 Gaussian 16, Revision A.03,

 -----------------------------------------------------------
 # opt freq B3LYP/6-31G(d) empiricaldispersion=gd3bj scf=xqc
 -----------------------------------------------------------

 -------------------------------
 CID_110390367_JID_8081_neutraal
 -------------------------------
 Symbolic Z-matrix:
 Charge =  0 Multiplicity = 1

 SCF Done:  E(RB3LYP) =  -840.296797479     A.U. after   15 cycles
 SCF Done:  E(RB3LYP) =  -840.305504429     A.U. after   13 cycles
 SCF Done:  E(RB3LYP) =  -840.300137541     A.U. after   15 cycles
 SCF Done:  E(RB3LYP) =  -840.304881550     A.U. after   13 cycles
 SCF Done:  E(RB3LYP) =  -840.306675380     A.U. after    9 cycles
 SCF Done:  E(RB3LYP) =  -840.308038098     A.U. after   13 cycles
 SCF Done:  E(RB3LYP) =  -840.308805233     A.U. after   13 cycles
 SCF Done:  E(RB3LYP) =  -840.309198718     A.U. after   13 cycles
 SCF Done:  E(RB3LYP) =  -840.309654238     A.U. after   12 cycles
 SCF Done:  E(RB3LYP) =  -840.309833060     A.U. after   12 cycles
 SCF Done:  E(RB3LYP) =  -840.310285260     A.U. after    8 cycles
 SCF Done:  E(RB3LYP) =  -840.310285323     A.U. after    8 cycles
 SCF Done:  E(RB3LYP) =  -840.310285658     A.U. after    8 cycles
 SCF Done:  E(RB3LYP) =  -840.310285662     A.U. after    7 cycles
 Optimization completed.
    -- Stationary point found.
 Normal termination of Gaussian 16 at Fri Dec 11 18:58:48 2020.

 --------------------------------------------------------------------
 #N Geom=AllCheck Guess=TCheck SCRF=Check GenChk RB3LYP/6-31G(d) Freq
 --------------------------------------------------------------------

 Structure from the checkpoint file:  "JID_8081.chk"
 -------------------------------
 CID_110390367_JID_8081_neutraal
 -------------------------------
 Charge =  0 Multiplicity = 1

 SCF Done:  E(RB3LYP) =  -840.310285662     A.U. after    1 cycles

  Exact polarizability: 174.724  32.959 127.515  -3.887  -4.832 144.719
 Approx polarizability: 254.962  65.745 187.988  -2.232  -8.253 257.274

                      1                      2                      3
                      A                      A                      A
 Frequencies --     29.9567                41.4513                52.8641
 Red. masses --      4.5698                 5.4133                 4.9975
 Frc consts  --      0.0024                 0.0055                 0.0082
 IR Inten    --      1.4677                 1.4217                 3.0659

                      4                      5                      6
                      A                      A                      A
 Frequencies --     66.1097                84.1951                89.1935
 Red. masses --      2.9236                 5.3760                 4.5682
 Frc consts  --      0.0075                 0.0225                 0.0214
 IR Inten    --      0.1571                 0.7904                 0.5119

                      7                      8                      9
                      A                      A                      A
 Frequencies --    124.4027               174.2522               209.8411
 Red. masses --      7.9241                 6.7589                 2.9922
 Frc consts  --      0.0723                 0.1209                 0.0776
 IR Inten    --      0.6537                 3.1479                 1.1801

                     10                     11                     12
                      A                      A                      A
 Frequencies --    236.4643               242.5154               273.5244
 Red. masses --      1.0269                 2.8960                 1.7287
 Frc consts  --      0.0338                 0.1004                 0.0762
 IR Inten    --      0.0878                 1.1174                 0.5987

                     13                     14                     15
                      A                      A                      A
 Frequencies --    282.0466               309.0729               328.1094
 Red. masses --      2.6623                 3.9613                 2.4458
 Frc consts  --      0.1248                 0.2230                 0.1551
 IR Inten    --      1.2188                 4.1684                 0.5122

                     16                     17                     18
                      A                      A                      A
 Frequencies --    381.5669               402.1428               405.4390
 Red. masses --      3.3494                 2.7635                 3.1554
 Frc consts  --      0.2873                 0.2633                 0.3056
 IR Inten    --      7.3395                11.0876                 2.7403

                     19                     20                     21
                      A                      A                      A
 Frequencies --    431.5668               446.4144               461.5703
 Red. masses --      2.5018                 2.6551                 1.6135
 Frc consts  --      0.2745                 0.3117                 0.2025
 IR Inten    --     17.0521                 1.8514                98.4938

                     22                     23                     24
                      A                      A                      A
 Frequencies --    479.4731               538.5967               539.9613
 Red. masses --      3.4297                 2.8591                 2.5784
 Frc consts  --      0.4646                 0.4887                 0.4429
 IR Inten    --      9.8935                22.9947                 7.6045

                     25                     26                     27
                      A                      A                      A
 Frequencies --    573.9327               586.1452               603.2380
 Red. masses --      5.8115                 1.5608                 5.3491
 Frc consts  --      1.1279                 0.3160                 1.1469
 IR Inten    --      9.7466                51.4242                 3.7120

                     28                     29                     30
                      A                      A                      A
 Frequencies --    654.1917               721.7219               723.0319
 Red. masses --      3.5281                 6.8844                 3.7901
 Frc consts  --      0.8896                 2.1128                 1.1674
 IR Inten    --     16.3081                17.3691                16.1957

                     31                     32                     33
                      A                      A                      A
 Frequencies --    738.3611               744.6959               769.5718
 Red. masses --      4.1429                 9.4673                 4.5911
 Frc consts  --      1.3307                 3.0934                 1.6020
 IR Inten    --      3.0986                12.4542                 7.0271

                     34                     35                     36
                      A                      A                      A
 Frequencies --    777.3587               827.1863               873.6448
 Red. masses --      2.7148                 1.4072                 6.4433
 Frc consts  --      0.9666                 0.5673                 2.8975
 IR Inten    --      1.7671                28.9688                 3.0810

                     37                     38                     39
                      A                      A                      A
 Frequencies --    883.8253               895.2465               929.6379
 Red. masses --      2.3762                 1.3950                 5.1525
 Frc consts  --      1.0936                 0.6587                 2.6236
 IR Inten    --      0.7587                13.5884                43.8227

                     40                     41                     42
                      A                      A                      A
 Frequencies --    931.7850               939.8239               944.9650
 Red. masses --      1.3603                 3.0996                 1.2514
 Frc consts  --      0.6959                 1.6130                 0.6584
 IR Inten    --      7.6776                52.6484                 0.8639

                     43                     44                     45
                      A                      A                      A
 Frequencies --    964.1793               971.1204               993.5503
 Red. masses --      1.4939                 2.1118                 2.2310
 Frc consts  --      0.8183                 1.1734                 1.2976
 IR Inten    --      0.5389                 6.8948                 5.1857

                     46                     47                     48
                      A                      A                      A
 Frequencies --   1016.8642              1049.3135              1114.8034
 Red. masses --      1.8758                 2.1691                 3.9430
 Frc consts  --      1.1428                 1.4072                 2.8872
 IR Inten    --      5.5122                 7.6740                17.6226

                     49                     50                     51
                      A                      A                      A
 Frequencies --   1150.4380              1159.1178              1179.2586
 Red. masses --      1.5934                 1.8534                 1.2818
 Frc consts  --      1.2425                 1.4672                 1.0502
 IR Inten    --     10.4820                 9.5771                15.8599

                     52                     53                     54
                      A                      A                      A
 Frequencies --   1200.7826              1205.3077              1216.3343
 Red. masses --      1.6844                 1.7874                 2.4070
 Frc consts  --      1.4309                 1.5300                 2.0981
 IR Inten    --     19.0151                 7.8030                32.2451

                     55                     56                     57
                      A                      A                      A
 Frequencies --   1233.0999              1290.0847              1295.8703
 Red. masses --      1.3426                 2.5468                 2.2489
 Frc consts  --      1.2028                 2.4974                 2.2251
 IR Inten    --      8.4889                59.7921                67.0465

                     58                     59                     60
                      A                      A                      A
 Frequencies --   1318.0325              1333.6518              1363.7275
 Red. masses --      3.2306                 1.5417                 1.8607
 Frc consts  --      3.3067                 1.6156                 2.0389
 IR Inten    --     43.3758                52.8063                15.0828

                     61                     62                     63
                      A                      A                      A
 Frequencies --   1368.8356              1371.9707              1391.4813
 Red. masses --      1.2864                 1.4714                 1.2885
 Frc consts  --      1.4201                 1.6318                 1.4699
 IR Inten    --      0.0701                 5.3346                 8.8263

                     64                     65                     66
                      A                      A                      A
 Frequencies --   1419.9636              1428.4541              1432.0145
 Red. masses --      3.6445                 1.3196                 2.1530
 Frc consts  --      4.3296                 1.5865                 2.6013
 IR Inten    --     23.1754                 8.3425                78.8140

                     67                     68                     69
                      A                      A                      A
 Frequencies --   1447.8331              1486.4719              1513.3211
 Red. masses --      1.2536                 1.5694                 3.2686
 Frc consts  --      1.5482                 2.0432                 4.4103
 IR Inten    --     18.6866                50.2791                98.3209

                     70                     71                     72
                      A                      A                      A
 Frequencies --   1515.0778              1516.5236              1518.8188
 Red. masses --      1.0719                 1.1115                 1.0956
 Frc consts  --      1.4497                 1.5061                 1.4890
 IR Inten    --      0.4455                12.0889                 0.5484

                     73                     74                     75
                      A                      A                      A
 Frequencies --   1526.5045              1531.8438              1538.6402
 Red. masses --      1.1819                 1.0764                 1.1051
 Frc consts  --      1.6226                 1.4881                 1.5415
 IR Inten    --     14.9302                 2.9123                 8.2254

                     76                     77                     78
                      A                      A                      A
 Frequencies --   1545.3114              1673.4022              1686.8215
 Red. masses --      2.5990                 7.6831                 7.0537
 Frc consts  --      3.6567                12.6761                11.8250
 IR Inten    --     54.7475                 7.9304                16.8884

                     79                     80                     81
                      A                      A                      A
 Frequencies --   1771.1022              1918.7143              3046.7768
 Red. masses --      7.6852                11.7266                 1.0379
 Frc consts  --     14.2034                25.4356                 5.6767
 IR Inten    --    341.6616               918.1796                16.6984

                     82                     83                     84
                      A                      A                      A
 Frequencies --   3050.9204              3068.4642              3081.6102
 Red. masses --      1.0386                 1.0606                 1.0607
 Frc consts  --      5.6960                 5.8836                 5.9347
 IR Inten    --     22.1623                26.7429                17.4050

                     85                     86                     87
                      A                      A                      A
 Frequencies --   3098.8772              3113.9078              3115.9946
 Red. masses --      1.0854                 1.1044                 1.0998
 Frc consts  --      6.1414                 6.3094                 6.2916
 IR Inten    --      2.9780                 8.9819                 1.8159

                     88                     89                     90
                      A                      A                      A
 Frequencies --   3124.5310              3127.4141              3134.3352
 Red. masses --      1.1026                 1.0999                 1.1011
 Frc consts  --      6.3422                 6.3385                 6.3736
 IR Inten    --     32.5826                26.0611                39.1287

                     91                     92                     93
                      A                      A                      A
 Frequencies --   3144.3696              3191.8688              3214.9499
 Red. masses --      1.1028                 1.0892                 1.0921
 Frc consts  --      6.4240                 6.5382                 6.6505
 IR Inten    --     21.3441                 8.8551                 0.9330

                     94                     95                     96
                      A                      A                      A
 Frequencies --   3231.3062              3575.9009              3677.3336
 Red. masses --      1.0937                 1.0755                 1.0802
 Frc consts  --      6.7283                 8.1024                 8.6067
 IR Inten    --      3.3368                14.0924                76.0907

 - Thermochemistry -
 -------------------
 Temperature   298.150 Kelvin.  Pressure   1.00000 Atm.
 Atom     1 has atomic number  6 and mass  12.00000

 Molecular mass:   248.11609 amu.
 Principal axes and moments of inertia in atomic units:
                           1         2         3
     Eigenvalues --  2771.434406286.877876893.84573
           X            0.99983  -0.01086  -0.01475
           Y            0.01127   0.99955   0.02788
           Z            0.01444  -0.02804   0.99950
 This molecule is an asymmetric top.
 Rotational symmetry number  1.
 Warning -- assumption of classical behavior for rotation
           may cause significant error
 Rotational temperatures (Kelvin)      0.03125     0.01378     0.01256
 Rotational constants (GHZ):           0.65119     0.28706     0.26179
 Zero-point vibrational energy     738133.6 (Joules/Mol)
                                  176.41816 (Kcal/Mol)
 Warning -- explicit consideration of  27 degrees of freedom as
           vibrations may cause significant error
 Vibrational temperatures:     43.10    59.64    76.06    95.12   121.14
          (Kelvin)            128.33   178.99   250.71   301.91   340.22
                              348.93   393.54   405.80   444.69   472.08
                              548.99   578.59   583.34   620.93   642.29
                              664.10   689.85   774.92   776.88   825.76
                              843.33   867.92   941.24  1038.40  1040.28
                             1062.34  1071.45  1107.24  1118.45  1190.14
                             1256.98  1271.63  1288.06  1337.54  1340.63
                             1352.20  1359.59  1387.24  1397.23  1429.50
                             1463.04  1509.73  1603.95  1655.22  1667.71
                             1696.69  1727.66  1734.17  1750.03  1774.16
                             1856.14  1864.47  1896.35  1918.83  1962.10
                             1969.45  1973.96  2002.03  2043.01  2055.23
                             2060.35  2083.11  2138.70  2177.33  2179.86
                             2181.94  2185.24  2196.30  2203.98  2213.76
                             2223.36  2407.65  2426.96  2548.22  2760.60
                             4383.63  4389.59  4414.84  4433.75  4458.59
                             4480.22  4483.22  4495.50  4499.65  4509.61
                             4524.05  4592.39  4625.60  4649.13  5144.92
                             5290.86

 Zero-point correction=                           0.281140 (Hartree/Particle)
 Thermal correction to Energy=                    0.297880
 Thermal correction to Enthalpy=                  0.298824
 Thermal correction to Gibbs Free Energy=         0.235783
 Sum of electronic and zero-point Energies=           -840.029145
 Sum of electronic and thermal Energies=              -840.012405
 Sum of electronic and thermal Enthalpies=            -840.011461
 Sum of electronic and thermal Free Energies=         -840.074502

                     E (Thermal)             CV                S
                      KCal/Mol        Cal/Mol-Kelvin    Cal/Mol-Kelvin
 Total                  186.923             64.197            132.681
 Electronic               0.000              0.000              0.000
 Translational            0.889              2.981             42.427
 Rotational               0.889              2.981             33.151
 Vibrational            185.145             58.235             57.103
 Vibration     1          0.594              1.984              5.832
 Vibration     2          0.594              1.981              5.188
 Vibration     3          0.596              1.976              4.707
 Vibration     4          0.598              1.970              4.266
 Vibration     5          0.601              1.960              3.791
 Vibration     6          0.602              1.957              3.678
 Vibration     7          0.610              1.929              3.031
 Vibration     8          0.627              1.874              2.389
 Vibration     9          0.642              1.826              2.045
 Vibration    10          0.655              1.785              1.829
 Vibration    11          0.659              1.775              1.784
 Vibration    12          0.676              1.722              1.574
 Vibration    13          0.681              1.707              1.521
 Vibration    14          0.698              1.656              1.367
 Vibration    15          0.711              1.619              1.269
 Vibration    16          0.751              1.509              1.033
 Vibration    17          0.768              1.465              0.955
 Vibration    18          0.770              1.458              0.943
 Vibration    19          0.793              1.401              0.854
 Vibration    20          0.806              1.369              0.807
 Vibration    21          0.819              1.335              0.762
 Vibration    22          0.836              1.296              0.711
 Vibration    23          0.894              1.165              0.568
 Vibration    24          0.895              1.162              0.565
 Vibration    25          0.930              1.088              0.497
 Vibration    26          0.943              1.061              0.474
 Vibration    27          0.962              1.025              0.444

 Optimization completed.
    -- Stationary point found.
 Normal termination of Gaussian 16 at Fri Dec 11 19:15:49 2020.

 ----------------------------------------------------------------------
 # B3LYP/6-311++G(d,p) empiricaldispersion=gd3bj scf=xqc pop=npa geom=c
 heck
 ----------------------------------------------------------------------

 ---------------------------------------
 CID_110390367_JID_8081_Energie_neutraal
 ---------------------------------------
 Structure from the checkpoint file:  "JID_8081.chk"
 Charge =  0 Multiplicity = 1

 SCF Done:  E(RB3LYP) =  -840.549846228     A.U. after   15 cycles
 Normal termination of Gaussian 16 at Fri Dec 11 19:23:17 2020.

 ----------------------------------------------------------------------
 # B3LYP/6-311++G(d,p) empiricaldispersion=gd3bj scf=xqc pop=npa geom=c
 heck
 ----------------------------------------------------------------------

 -------------------------------------
 CID_110390367_JID_8081_Energie_kation
 -------------------------------------
 Structure from the checkpoint file:  "JID_8081.chk"
 Charge =  1 Multiplicity = 2

 SCF Done:  E(UB3LYP) =  -840.246328726     A.U. after   33 cycles
 SCF Done:  E(UB3LYP) =  -840.246328728     a.u. after    2 cycles
 Normal termination of Gaussian 16 at Fri Dec 11 20:06:58 2020.
 Gaussian 16:  ES64L-G16RevA.03 25-Dec-2016

 ----------------------------------------------------------------------
 # B3LYP/6-311++G(d,p) empiricaldispersion=gd3bj scf=xqc pop=npa geom=c
 heck
 ----------------------------------------------------------------------

 ------------------------------------
 CID_110390367_JID_8081_Energie_anion
 ------------------------------------
 Structure from the checkpoint file:  "JID_8081.chk"
 Charge = -1 Multiplicity = 2

                         Standard orientation:
 ---------------------------------------------------------------------
 Center     Atomic      Atomic             Coordinates (Angstroms)
 Number     Number       Type             X           Y           Z
 ---------------------------------------------------------------------
      1          6           0       -0.475695    2.543236    0.269124
      2          6           0       -1.675724    1.634092    0.545111
      3          6           0       -2.793972    2.369927    1.291272
      4          7           0       -2.152812    1.083095   -0.727127
      5          6           0       -2.615911   -0.168047   -1.011684
      6          8           0       -2.799433   -0.530051   -2.172081
      7          6           0       -2.864917   -1.133022    0.142043
      8          6           0       -1.802617   -2.257620    0.131758
      9          6           0       -0.410439   -1.710414    0.347317
     10          6           0        0.309982   -1.207281   -0.751673
     11          6           0        1.533337   -0.608959   -0.498922
     12          6           0        2.040715   -0.508256    0.801107
     13          6           0        1.360470   -1.003981    1.894342
     14          6           0        0.120546   -1.609426    1.641290
     15          8           0        3.258619    0.138026    0.774758
     16          6           0        3.550987    0.464701   -0.549303
     17          8           0        4.547821    1.036808   -0.900675
     18          7           0        2.485761    0.006456   -1.307272
     19          1           0       -0.767671    3.398395   -0.354056
     20          1           0        0.318237    1.992850   -0.243938
     21          1           0       -0.071652    2.937878    1.206424
     22          1           0       -1.322129    0.798712    1.154782
     23          1           0       -3.160587    3.215193    0.697530
     24          1           0       -3.640377    1.702213    1.483076
     25          1           0       -2.433142    2.755201    2.251762
     26          1           0       -2.007619    1.646368   -1.557573
     27          1           0       -2.878676   -0.637445    1.116278
     28          1           0       -3.853391   -1.571688   -0.026881
     29          1           0       -2.048410   -2.986243    0.911754
     30          1           0       -1.865915   -2.770722   -0.832890
     31          1           0       -0.104962   -1.265085   -1.752648
     32          1           0        1.769219   -0.926291    2.895472
     33          1           0       -0.450096   -2.007590    2.475713
     34          1           0        2.469904    0.103439   -2.310723
 ---------------------------------------------------------------------

 SCF Done:  E(UB3LYP) =  -840.542693938     A.U. after   33 cycles
 SCF Done:  E(UB3LYP) =  -840.542722174     a.u. after    8 cycles

 The electronic state is 2-A.
 Alpha  occ. eigenvalues --  -19.10784 -19.02754 -18.99268 -14.28787 -14.24367
 Alpha  occ. eigenvalues --  -10.24993 -10.17989 -10.15490 -10.14391 -10.12832
 Alpha  occ. eigenvalues --  -10.10199 -10.10150 -10.09725 -10.09225 -10.09147
 Alpha  occ. eigenvalues --  -10.08952 -10.07864 -10.07430  -1.05563  -0.96221
 Alpha  occ. eigenvalues --   -0.94405  -0.87731  -0.83459  -0.78169  -0.71504
 Alpha  occ. eigenvalues --   -0.69153  -0.67333  -0.65531  -0.60758  -0.58232
 Alpha  occ. eigenvalues --   -0.57520  -0.54362  -0.53182  -0.52527  -0.48482
 Alpha  occ. eigenvalues --   -0.47004  -0.44047  -0.41506  -0.41213  -0.39903
 Alpha  occ. eigenvalues --   -0.38667  -0.37962  -0.37036  -0.36694  -0.36240
 Alpha  occ. eigenvalues --   -0.35396  -0.33399  -0.33008  -0.32296  -0.31028
 Alpha  occ. eigenvalues --   -0.30843  -0.30258  -0.29898  -0.28839  -0.28189
 Alpha  occ. eigenvalues --   -0.27801  -0.27267  -0.26723  -0.26203  -0.25350
 Alpha  occ. eigenvalues --   -0.23192  -0.21758  -0.17137  -0.16600  -0.16101
 Alpha  occ. eigenvalues --   -0.14098   0.03732
 Alpha virt. eigenvalues --    0.05460   0.05801   0.06564   0.07017   0.07822
 Alpha virt. eigenvalues --    0.08341   0.08925   0.09330   0.09445   0.09912
 Alpha virt. eigenvalues --    0.10495   0.11179   0.11333   0.12073   0.12129

  Beta  occ. eigenvalues --  -19.10776 -19.02749 -18.99261 -14.28743 -14.24359
  Beta  occ. eigenvalues --  -10.24987 -10.17983 -10.15476 -10.14394 -10.12825
  Beta  occ. eigenvalues --  -10.10180 -10.10139 -10.09697 -10.09211 -10.09135
  Beta  occ. eigenvalues --  -10.08929 -10.07836 -10.07394  -1.05543  -0.96209
  Beta  occ. eigenvalues --   -0.94391  -0.87684  -0.83442  -0.78134  -0.71468
  Beta  occ. eigenvalues --   -0.69122  -0.67288  -0.65493  -0.60699  -0.58191
  Beta  occ. eigenvalues --   -0.57449  -0.54326  -0.53144  -0.52476  -0.48441
  Beta  occ. eigenvalues --   -0.46947  -0.44012  -0.41468  -0.41180  -0.39873
  Beta  occ. eigenvalues --   -0.38632  -0.37924  -0.36994  -0.36653  -0.36223
  Beta  occ. eigenvalues --   -0.35358  -0.33366  -0.32982  -0.32268  -0.30987
  Beta  occ. eigenvalues --   -0.30809  -0.30224  -0.29866  -0.28805  -0.28158
  Beta  occ. eigenvalues --   -0.27767  -0.27235  -0.26690  -0.26162  -0.25320
  Beta  occ. eigenvalues --   -0.23154  -0.21742  -0.17080  -0.16565  -0.16071
  Beta  occ. eigenvalues --   -0.14050
  Beta virt. eigenvalues --    0.05981   0.06034   0.06719   0.07128   0.07434
  Beta virt. eigenvalues --    0.08157   0.08833   0.09270   0.09618   0.09841
  Beta virt. eigenvalues --    0.09956   0.10732   0.11363   0.11659   0.12286

 Mulliken charges and spin densities:
               1          2
     1  C   -0.182017  -0.675278
     2  C   -0.656307   0.796984
     3  C    0.773162  -1.189933
     4  N   -0.055318   0.053158
     5  C   -0.278105  -0.010464
     6  O   -0.317794   0.017089
     7  C    0.299969  -0.324746
     8  C    1.676016  -2.334871
     9  C    0.402587   0.231632
    10  C   -0.674647   0.184585
    11  C    0.704118  -0.133817
    12  C    0.099789  -0.462882
    13  C   -0.847377   0.377347
    14  C   -0.543161   0.183571
    15  O   -0.085865  -0.009943
    16  C    0.620620  -0.168497
    17  O   -0.371259  -0.000035
    18  N   -0.166586  -0.099142
    19  H   -0.174996   0.313707
    20  H   -0.050253   0.253538
    21  H    0.041868   0.112387
    22  H    0.843521  -0.600476
    23  H   -0.075796   0.227943
    24  H   -0.165846   0.307313
    25  H   -0.268185   0.413321
    26  H    0.194983   0.093553
    27  H   -0.164089   0.317940
    28  H   -0.079715   0.297981
    29  H   -0.163956   0.342016
    30  H    0.176742   0.016783
    31  H   -0.226345   0.459711
    32  H   -0.268929   0.460631
    33  H   -0.851521   1.042501
    34  H   -0.165307   0.506394
 Sum of Mulliken charges =  -1.00000   1.00000

 Dipole moment (field-independent basis, Debye):
    X=              0.8667    Y=             -0.4087    Z=             -0.5084  Tot=              1.0847
 Quadrupole moment (field-independent basis, Debye-Ang):
   XX=           -186.3469   YY=           -149.4320   ZZ=           -159.6122
   XY=             -7.6453   XZ=              5.9655   YZ=              3.3034

 Summary of Natural Population Analysis:

                                       Natural Population
                Natural  -----------------------------------------------
    Atom  No    Charge         Core      Valence    Rydberg      Total
 -----------------------------------------------------------------------
      C    1   -0.28461      0.99964     2.27934    0.00563     3.28461
      C    2   -0.02125      0.99960     2.01072    0.01093     3.02125
      C    3   -0.28616      0.99964     2.28106    0.00546     3.28616
      N    4   -0.31738      0.99965     2.80685    0.01088     3.81738
      C    5    0.34647      0.99966     1.63123    0.02264     2.65353
      O    6   -0.33308      0.99988     3.32749    0.00572     4.33308
      C    7   -0.22688      0.99958     2.21877    0.00853     3.22688
      C    8   -0.19390      0.99959     2.18433    0.00998     3.19390
      C    9   -0.01473      0.99952     2.00428    0.01092     3.01473
      C   10   -0.11193      0.99947     2.10347    0.00899     3.11193
      C   11    0.05758      0.99945     1.93164    0.01133     2.94242
      C   12    0.13907      0.99932     1.84907    0.01254     2.86093
      C   13   -0.11292      0.99951     2.10380    0.00961     3.11292
      C   14   -0.10530      0.99952     2.09545    0.01033     3.10530
      O   15   -0.25527      0.99985     3.24890    0.00652     4.25527
      C   16    0.45261      0.99971     1.52113    0.02655     2.54739
      O   17   -0.30480      0.99986     3.29895    0.00598     4.30480
      N   18   -0.30534      0.99964     2.79724    0.00846     3.80534
      H   19    0.09659      0.00000     0.40237    0.00104     0.40341
      H   20    0.10371      0.00000     0.39444    0.00185     0.39629
      H   21    0.10469      0.00000     0.39442    0.00089     0.39531
      H   22    0.10171      0.00000     0.39443    0.00386     0.39829
      H   23    0.09821      0.00000     0.40070    0.00109     0.40179
      H   24    0.10232      0.00000     0.39653    0.00115     0.39768
      H   25    0.10161      0.00000     0.39734    0.00105     0.39839
      H   26    0.19293      0.00000     0.30469    0.00239     0.30707
      H   27    0.10310      0.00000     0.39500    0.00190     0.39690
      H   28    0.11359      0.00000     0.38531    0.00110     0.38641
      H   29    0.10589      0.00000     0.39282    0.00129     0.39411
      H   30    0.10753      0.00000     0.39118    0.00130     0.39247
      H   31    0.11505      0.00000     0.38339    0.00156     0.38495
      H   32    0.11044      0.00000     0.38850    0.00106     0.38956
      H   33    0.10642      0.00000     0.39164    0.00194     0.39358
      H   34    0.21404      0.00000     0.28078    0.00518     0.28596
 =======================================================================
   * Total *   -0.00000     17.99309    47.78726    0.21965    66.00000

 Normal termination of Gaussian 16 at Fri Dec 11 23:02:39 2020.
