 Gaussian 16, Revision A.03,

 ----------------------------------------------------------------------
 # opt=(cartesian,calcfc) freq B3LYP/6-31G(d) empiricaldispersion=gd3bj
  scf=xqc
 ----------------------------------------------------------------------

 ------------------------------
 CID_61103132_JID_9263_neutraal
 ------------------------------
 Symbolic Z-matrix:
 Charge =  0 Multiplicity = 1

 SCF Done:  E(RB3LYP) =  -873.351721563     A.U. after   15 cycles
 SCF Done:  E(RB3LYP) =  -873.351838535     A.U. after   11 cycles
 SCF Done:  E(RB3LYP) =  -873.351866558     A.U. after   12 cycles
 SCF Done:  E(RB3LYP) =  -873.351846280     A.U. after   11 cycles
 SCF Done:  E(RB3LYP) =  -873.351933255     A.U. after   11 cycles
 SCF Done:  E(RB3LYP) =  -873.351919716     A.U. after   11 cycles
 SCF Done:  E(RB3LYP) =  -873.351939329     A.U. after   12 cycles
 SCF Done:  E(RB3LYP) =  -873.351969010     A.U. after   10 cycles
 SCF Done:  E(RB3LYP) =  -873.351983416     A.U. after   10 cycles
 SCF Done:  E(RB3LYP) =  -873.351967149     A.U. after   12 cycles
 SCF Done:  E(RB3LYP) =  -873.352060284     A.U. after    8 cycles
 SCF Done:  E(RB3LYP) =  -873.352060097     A.U. after    8 cycles
 SCF Done:  E(RB3LYP) =  -873.352060461     A.U. after    8 cycles
 SCF Done:  E(RB3LYP) =  -873.352060516     A.U. after    8 cycles
 SCF Done:  E(RB3LYP) =  -873.352060452     A.U. after    8 cycles
 SCF Done:  E(RB3LYP) =  -873.352060530     A.U. after    6 cycles
 Optimization completed.
    -- Stationary point found.
 Normal termination of Gaussian 16 at Mon Jan  4 11:18:15 2021.

 --------------------------------------------------------------------
 #N Geom=AllCheck Guess=TCheck SCRF=Check GenChk RB3LYP/6-31G(d) Freq
 --------------------------------------------------------------------

 Structure from the checkpoint file:  "JID_9263.chk"
 ------------------------------
 CID_61103132_JID_9263_neutraal
 ------------------------------
 Charge =  0 Multiplicity = 1

 SCF Done:  E(RB3LYP) =  -873.352060530     A.U. after    1 cycles

  Exact polarizability: 197.236  11.541 175.686  30.971  -0.385 124.751
 Approx polarizability: 295.147   4.546 305.209  69.009 -11.730 214.701

                      1                      2                      3
                      A                      A                      A
 Frequencies --     28.4469                33.7594                46.6106
 Red. masses --      4.8769                 5.1681                 4.9339
 Frc consts  --      0.0023                 0.0035                 0.0063
 IR Inten    --      0.8269                 0.1730                 0.7103

                      4                      5                      6
                      A                      A                      A
 Frequencies --     77.9506                96.0054               111.4613
 Red. masses --      6.8640                 2.2322                 1.6235
 Frc consts  --      0.0246                 0.0121                 0.0119
 IR Inten    --      6.7305                 3.8434                 2.7819

                      7                      8                      9
                      A                      A                      A
 Frequencies --    130.6310               150.6209               160.0079
 Red. masses --      1.6584                 3.1518                 1.6957
 Frc consts  --      0.0167                 0.0421                 0.0256
 IR Inten    --      1.6251                 1.9321                 2.0580

                     10                     11                     12
                      A                      A                      A
 Frequencies --    179.3571               211.4440               261.9594
 Red. masses --      4.2351                 3.9151                 4.6426
 Frc consts  --      0.0803                 0.1031                 0.1877
 IR Inten    --      1.3931                 3.3365                 0.8249

                     13                     14                     15
                      A                      A                      A
 Frequencies --    290.0932               292.9130               334.3995
 Red. masses --      1.4017                 2.0805                 3.8915
 Frc consts  --      0.0695                 0.1052                 0.2564
 IR Inten    --     20.1776                 1.8997                 1.2644

                     16                     17                     18
                      A                      A                      A
 Frequencies --    346.7241               357.1416               367.2728
 Red. masses --      5.8550                 3.5811                 5.1444
 Frc consts  --      0.4147                 0.2691                 0.4088
 IR Inten    --      6.9806                 1.4312                 1.6770

                     19                     20                     21
                      A                      A                      A
 Frequencies --    398.9492               421.5061               440.7240
 Red. masses --      4.6192                 3.4540                 3.6732
 Frc consts  --      0.4332                 0.3616                 0.4204
 IR Inten    --      6.9493                 0.6886                 4.3510

                     22                     23                     24
                      A                      A                      A
 Frequencies --    475.8891               489.8473               504.5156
 Red. masses --      5.3984                 4.6484                 4.9154
 Frc consts  --      0.7203                 0.6572                 0.7372
 IR Inten    --      3.3887                 9.7639                 3.3955

                     25                     26                     27
                      A                      A                      A
 Frequencies --    518.7263               562.6235               579.4625
 Red. masses --      3.3063                 2.4098                 1.6857
 Frc consts  --      0.5242                 0.4494                 0.3335
 IR Inten    --      9.4542                 7.3829                45.9064

                     28                     29                     30
                      A                      A                      A
 Frequencies --    605.7489               619.4551               640.0943
 Red. masses --      3.8862                 2.5128                 2.7899
 Frc consts  --      0.8402                 0.5681                 0.6735
 IR Inten    --     50.1836               217.7639               140.5726

                     31                     32                     33
                      A                      A                      A
 Frequencies --    669.5313               713.3122               728.4143
 Red. masses --      3.6213                 5.2717                 4.7929
 Frc consts  --      0.9564                 1.5804                 1.4983
 IR Inten    --     28.1107                14.2315                 4.4139

                     34                     35                     36
                      A                      A                      A
 Frequencies --    738.2451               768.1538               770.6758
 Red. masses --      3.9226                 3.9433                 4.8590
 Frc consts  --      1.2596                 1.3709                 1.7004
 IR Inten    --      9.3967                13.2836                 5.1924

                     37                     38                     39
                      A                      A                      A
 Frequencies --    805.5490               841.2891               860.8914
 Red. masses --      5.3481                 1.9026                 3.4221
 Frc consts  --      2.0447                 0.7934                 1.4943
 IR Inten    --     16.4714                21.8906                13.2418

                     40                     41                     42
                      A                      A                      A
 Frequencies --    892.3577               900.3332               921.2875
 Red. masses --      1.5045                 1.7074                 1.3589
 Frc consts  --      0.7059                 0.8154                 0.6796
 IR Inten    --     15.3127                32.3123                 1.4645

                     43                     44                     45
                      A                      A                      A
 Frequencies --    965.6892               989.9310               995.8800
 Red. masses --      4.4106                 1.4714                 2.3945
 Frc consts  --      2.4234                 0.8496                 1.3992
 IR Inten    --      7.8756                 0.8686                 2.9112

                     46                     47                     48
                      A                      A                      A
 Frequencies --   1025.3273              1073.4660              1090.3245
 Red. masses --      1.7262                 1.5219                 2.0788
 Frc consts  --      1.0692                 1.0332                 1.4561
 IR Inten    --      2.9244                 3.1928                18.8304

                     49                     50                     51
                      A                      A                      A
 Frequencies --   1112.9761              1128.4162              1150.1127
 Red. masses --      2.8683                 1.3498                 1.9611
 Frc consts  --      2.0934                 1.0126                 1.5284
 IR Inten    --     28.4515                 3.8248                23.5430

                     52                     53                     54
                      A                      A                      A
 Frequencies --   1161.4181              1178.6025              1227.0837
 Red. masses --      1.3128                 1.9398                 1.9459
 Frc consts  --      1.0433                 1.5876                 1.7263
 IR Inten    --      0.0589                18.3756                 6.4196

                     55                     56                     57
                      A                      A                      A
 Frequencies --   1251.4658              1285.3948              1295.1653
 Red. masses --      2.0398                 2.3364                 3.0368
 Frc consts  --      1.8822                 2.2744                 3.0013
 IR Inten    --     21.3798                36.3261                11.7432

                     58                     59                     60
                      A                      A                      A
 Frequencies --   1321.5052              1334.5711              1361.6613
 Red. masses --      2.2816                 4.6489                 1.6573
 Frc consts  --      2.3476                 4.8785                 1.8105
 IR Inten    --     42.0511                41.9426                12.6669

                     61                     62                     63
                      A                      A                      A
 Frequencies --   1381.3768              1434.4647              1442.7062
 Red. masses --      2.7805                 3.2147                 1.2664
 Frc consts  --      3.1261                 3.8974                 1.5531
 IR Inten    --    281.5792                44.6046                 4.9633

                     64                     65                     66
                      A                      A                      A
 Frequencies --   1448.1938              1481.1793              1482.0838
 Red. masses --      1.7191                 1.4438                 2.3964
 Frc consts  --      2.1243                 1.8662                 3.1013
 IR Inten    --     10.1240                10.1486                23.7743

                     67                     68                     69
                      A                      A                      A
 Frequencies --   1497.1592              1504.5958              1516.3614
 Red. masses --      1.0431                 1.5491                 1.8021
 Frc consts  --      1.3775                 2.0662                 2.4413
 IR Inten    --      6.3411                56.5699                33.4637

                     70                     71                     72
                      A                      A                      A
 Frequencies --   1518.7257              1521.9355              1537.1509
 Red. masses --      1.7000                 1.4867                 1.1756
 Frc consts  --      2.3103                 2.0289                 1.6367
 IR Inten    --     46.7776                48.9491                 4.8329

                     73                     74                     75
                      A                      A                      A
 Frequencies --   1588.1250              1611.8131              1660.3487
 Red. masses --      5.2758                 5.6173                 4.1643
 Frc consts  --      7.8399                 8.5982                 6.7638
 IR Inten    --     70.9460                 9.2808                18.6672

                     76                     77                     78
                      A                      A                      A
 Frequencies --   1691.2293              1695.3647              1768.7759
 Red. masses --      5.7815                 1.2488                 8.4089
 Frc consts  --      9.7431                 2.1147                15.5002
 IR Inten    --    122.2616                98.0834               740.2099

                     79                     80                     81
                      A                      A                      A
 Frequencies --   1775.8910              3062.0874              3083.4786
 Red. masses --      9.9200                 1.0397                 1.0313
 Frc consts  --     18.4329                 5.7435                 5.7770
 IR Inten    --    108.6673                15.0320                20.3433

                     82                     83                     84
                      A                      A                      A
 Frequencies --   3125.1500              3145.7610              3154.4760
 Red. masses --      1.0958                 1.0897                 1.1053
 Frc consts  --      6.3055                 6.3535                 6.4799
 IR Inten    --     13.8280                39.1667                 5.6743

                     85                     86                     87
                      A                      A                      A
 Frequencies --   3154.7958              3177.2696              3191.0345
 Red. masses --      1.1037                 1.1070                 1.0903
 Frc consts  --      6.4720                 6.5843                 6.5410
 IR Inten    --      9.3438                 6.7420                 8.3683

                     88                     89                     90
                      A                      A                      A
 Frequencies --   3196.4200              3238.4485              3247.1918
 Red. masses --      1.0907                 1.0937                 1.0928
 Frc consts  --      6.5658                 6.7578                 6.7893
 IR Inten    --      6.5782                 2.6084                 1.9925

                     91                     92                     93
                      A                      A                      A
 Frequencies --   3548.0970              3565.4983              3645.5120
 Red. masses --      1.0479                 1.0752                 1.0982
 Frc consts  --      7.7727                 8.0532                 8.5989
 IR Inten    --     20.0037                31.9943                11.3067

 - Thermochemistry -
 -------------------
 Temperature   298.150 Kelvin.  Pressure   1.00000 Atm.
 Atom     1 has atomic number  6 and mass  12.00000

 Molecular mass:   258.11168 amu.
 Principal axes and moments of inertia in atomic units:
                           1         2         3
     Eigenvalues --  3121.807306459.304237723.43333
           X            0.99977   0.02055   0.00538
           Y           -0.02077   0.99881   0.04424
           Z           -0.00447  -0.04434   0.99901
 This molecule is an asymmetric top.
 Rotational symmetry number  1.
 Warning -- assumption of classical behavior for rotation
           may cause significant error
 Rotational temperatures (Kelvin)      0.02774     0.01341     0.01121
 Rotational constants (GHZ):           0.57811     0.27940     0.23367
 Zero-point vibrational energy     690162.0 (Joules/Mol)
                                  164.95267 (Kcal/Mol)
 Warning -- explicit consideration of  29 degrees of freedom as
           vibrations may cause significant error
 Vibrational temperatures:     40.93    48.57    67.06   112.15   138.13
          (Kelvin)            160.37   187.95   216.71   230.22   258.05
                              304.22   376.90   417.38   421.44   481.13
                              498.86   513.85   528.42   574.00   606.45
                              634.10   684.70   704.78   725.89   746.33
                              809.49   833.72   871.54   891.26   920.95
                              963.31  1026.30  1048.03  1062.17  1105.20
                             1108.83  1159.01  1210.43  1238.63  1283.90
                             1295.38  1325.53  1389.41  1424.29  1432.85
                             1475.22  1544.48  1568.73  1601.32  1623.54
                             1654.76  1671.02  1695.75  1765.50  1800.58
                             1849.40  1863.45  1901.35  1920.15  1959.13
                             1987.49  2063.87  2075.73  2083.63  2131.09
                             2132.39  2154.08  2164.78  2181.71  2185.11
                             2189.73  2211.62  2284.96  2319.04  2388.87
                             2433.30  2439.25  2544.87  2555.11  4405.66
                             4436.44  4496.39  4526.05  4538.59  4539.05
                             4571.38  4591.19  4598.94  4659.41  4671.98
                             5104.92  5129.96  5245.08

 Zero-point correction=                           0.262869 (Hartree/Particle)
 Thermal correction to Energy=                    0.280402
 Thermal correction to Enthalpy=                  0.281346
 Thermal correction to Gibbs Free Energy=         0.216607
 Sum of electronic and zero-point Energies=           -873.089192
 Sum of electronic and thermal Energies=              -873.071658
 Sum of electronic and thermal Enthalpies=            -873.070714
 Sum of electronic and thermal Free Energies=         -873.135454

                     E (Thermal)             CV                S
                      KCal/Mol        Cal/Mol-Kelvin    Cal/Mol-Kelvin
 Total                  175.955             66.579            136.256
 Electronic               0.000              0.000              0.000
 Translational            0.889              2.981             42.544
 Rotational               0.889              2.981             33.409
 Vibrational            174.178             60.618             60.302
 Vibration     1          0.593              1.984              5.935
 Vibration     2          0.594              1.983              5.595
 Vibration     3          0.595              1.979              4.956
 Vibration     4          0.599              1.964              3.942
 Vibration     5          0.603              1.952              3.534
 Vibration     6          0.607              1.940              3.243
 Vibration     7          0.612              1.923              2.937
 Vibration     8          0.618              1.902              2.664
 Vibration     9          0.622              1.891              2.550
 Vibration    10          0.629              1.868              2.335
 Vibration    11          0.643              1.823              2.031
 Vibration    12          0.669              1.742              1.649
 Vibration    13          0.686              1.692              1.473
 Vibration    14          0.688              1.687              1.457
 Vibration    15          0.716              1.607              1.239
 Vibration    16          0.725              1.582              1.181
 Vibration    17          0.732              1.561              1.135
 Vibration    18          0.740              1.540              1.091
 Vibration    19          0.765              1.472              0.967
 Vibration    20          0.784              1.423              0.887
 Vibration    21          0.801              1.381              0.824
 Vibration    22          0.833              1.304              0.721
 Vibration    23          0.846              1.273              0.684
 Vibration    24          0.860              1.240              0.647
 Vibration    25          0.874              1.209              0.613
 Vibration    26          0.918              1.112              0.519
 Vibration    27          0.936              1.076              0.486
 Vibration    28          0.964              1.020              0.440
 Vibration    29          0.979              0.991              0.417

 Optimization completed.
    -- Stationary point found.
 Normal termination of Gaussian 16 at Mon Jan  4 11:36:50 2021.

 ----------------------------------------------------------------------
 # B3LYP/6-311++G(d,p) empiricaldispersion=gd3bj scf=xqc pop=npa geom=c
 heck
 ----------------------------------------------------------------------

 --------------------------------------
 CID_61103132_JID_9263_Energie_neutraal
 --------------------------------------
 Structure from the checkpoint file:  "JID_9263.chk"
 Charge =  0 Multiplicity = 1

 SCF Done:  E(RB3LYP) =  -873.600036889     A.U. after   16 cycles
 Normal termination of Gaussian 16 at Mon Jan  4 11:44:55 2021.

 ----------------------------------------------------------------------
 # B3LYP/6-311++G(d,p) empiricaldispersion=gd3bj scf=xqc pop=npa geom=c
 heck
 ----------------------------------------------------------------------

 ------------------------------------
 CID_61103132_JID_9263_Energie_kation
 ------------------------------------
 Structure from the checkpoint file:  "JID_9263.chk"
 Charge =  1 Multiplicity = 2

 SCF Done:  E(UB3LYP) =  -873.321076257     A.U. after   24 cycles
 Normal termination of Gaussian 16 at Mon Jan  4 12:02:05 2021.
 Gaussian 16:  ES64L-G16RevA.03 25-Dec-2016

 ----------------------------------------------------------------------
 # B3LYP/6-311++G(d,p) empiricaldispersion=gd3bj scf=xqc pop=npa geom=c
 heck
 ----------------------------------------------------------------------

 -----------------------------------
 CID_61103132_JID_9263_Energie_anion
 -----------------------------------
 Structure from the checkpoint file:  "JID_9263.chk"
 Charge = -1 Multiplicity = 2

                         Standard orientation:
 ---------------------------------------------------------------------
 Center     Atomic      Atomic             Coordinates (Angstroms)
 Number     Number       Type             X           Y           Z
 ---------------------------------------------------------------------
      1          6           0       -0.308768    0.990641    2.236922
      2          6           0       -1.256151    0.263311    1.317560
      3          6           0       -1.611193    0.721487    0.034445
      4          6           0       -2.568001    0.019736   -0.701374
      5          6           0       -3.112633   -1.160489   -0.190780
      6          6           0       -2.660532   -1.558539    1.079744
      7          7           0       -1.788750   -0.867971    1.807791
      8          7           0       -4.012076   -1.938407   -0.918612
      9          6           0       -1.085501    1.975478   -0.604336
     10          8           0       -1.839583    2.819108   -1.073134
     11          7           0        0.282122    2.138047   -0.685041
     12          6           0        1.301288    1.178576   -0.472699
     13          6           0        1.177578   -0.115584   -0.902940
     14          7           0        2.130287   -1.051019   -0.632696
     15          6           0        3.343494   -0.760606    0.043327
     16          8           0        4.164302   -1.655760    0.231958
     17          6           0        3.471767    0.622630    0.454285
     18          6           0        2.490998    1.540836    0.222579
     19          6           0        1.953292   -2.442153   -1.045981
     20          1           0        0.695390    0.553001    2.194566
     21          1           0       -0.665851    0.892747    3.265367
     22          1           0       -0.221677    2.050762    1.987202
     23          1           0       -2.878344    0.404550   -1.669002
     24          1           0       -3.043027   -2.477732    1.525181
     25          1           0       -4.563816   -1.427010   -1.596760
     26          1           0       -4.593975   -2.547979   -0.356776
     27          1           0        0.541622    3.018382   -1.117412
     28          1           0        0.307253   -0.460530   -1.445699
     29          1           0        4.385770    0.878566    0.977035
     30          1           0        2.598212    2.564388    0.572833
     31          1           0        2.755499   -2.731068   -1.729202
     32          1           0        2.007366   -3.092308   -0.169893
     33          1           0        0.982923   -2.549049   -1.532642
 ---------------------------------------------------------------------

 SCF Done:  E(UB3LYP) =  -873.611504160     A.U. after   31 cycles

 The electronic state is 2-A.
 Alpha  occ. eigenvalues --  -18.97578 -18.94546 -14.23702 -14.22975 -14.22468
 Alpha  occ. eigenvalues --  -14.17350 -10.16015 -10.13047 -10.10001 -10.09335
 Alpha  occ. eigenvalues --  -10.08752 -10.08746 -10.08656 -10.07109 -10.06060
 Alpha  occ. eigenvalues --  -10.05241 -10.04562 -10.04375 -10.02988  -0.92782
 Alpha  occ. eigenvalues --   -0.90529  -0.83549  -0.83078  -0.81300  -0.80260
 Alpha  occ. eigenvalues --   -0.68907  -0.67819  -0.65264  -0.62160  -0.59629
 Alpha  occ. eigenvalues --   -0.57908  -0.54429  -0.52011  -0.49263  -0.49060
 Alpha  occ. eigenvalues --   -0.46947  -0.43050  -0.42145  -0.40760  -0.38744
 Alpha  occ. eigenvalues --   -0.36446  -0.36150  -0.35198  -0.35032  -0.34114
 Alpha  occ. eigenvalues --   -0.33491  -0.31571  -0.31014  -0.30342  -0.29705
 Alpha  occ. eigenvalues --   -0.28954  -0.28784  -0.27661  -0.26947  -0.26849
 Alpha  occ. eigenvalues --   -0.26081  -0.25131  -0.24597  -0.22133  -0.21673
 Alpha  occ. eigenvalues --   -0.17984  -0.16959  -0.15476  -0.14761  -0.12854
 Alpha  occ. eigenvalues --   -0.12724  -0.10566  -0.08292   0.04042
 Alpha virt. eigenvalues --    0.06467   0.07033   0.08513   0.09125   0.09193
 Alpha virt. eigenvalues --    0.09885   0.10428   0.10576   0.11414   0.11927
 Alpha virt. eigenvalues --    0.12385   0.12849   0.13162   0.13577   0.14278

  Beta  occ. eigenvalues --  -18.97555 -18.94465 -14.23499 -14.22954 -14.22474
  Beta  occ. eigenvalues --  -14.17145 -10.15994 -10.13029 -10.10064 -10.09345
  Beta  occ. eigenvalues --  -10.08790 -10.08753 -10.08568 -10.06920 -10.05974
  Beta  occ. eigenvalues --  -10.05026 -10.04369 -10.04287 -10.02784  -0.92725
  Beta  occ. eigenvalues --   -0.90333  -0.83314  -0.82933  -0.81197  -0.80067
  Beta  occ. eigenvalues --   -0.68539  -0.67479  -0.65123  -0.61793  -0.59477
  Beta  occ. eigenvalues --   -0.57813  -0.54103  -0.51754  -0.48997  -0.48796
  Beta  occ. eigenvalues --   -0.46783  -0.42960  -0.42066  -0.40660  -0.38591
  Beta  occ. eigenvalues --   -0.36293  -0.36016  -0.34802  -0.34788  -0.33984
  Beta  occ. eigenvalues --   -0.33341  -0.31427  -0.30828  -0.30274  -0.29601
  Beta  occ. eigenvalues --   -0.28827  -0.28684  -0.27341  -0.26796  -0.26456
  Beta  occ. eigenvalues --   -0.25997  -0.25024  -0.24447  -0.21654  -0.21266
  Beta  occ. eigenvalues --   -0.17282  -0.16263  -0.14387  -0.14172  -0.12646
  Beta  occ. eigenvalues --   -0.12560  -0.10027  -0.07434
  Beta virt. eigenvalues --    0.06409   0.08419   0.08439   0.08938   0.09095
  Beta virt. eigenvalues --    0.09439   0.10253   0.10398   0.10597   0.11411
  Beta virt. eigenvalues --    0.12075   0.12464   0.13070   0.13177   0.13591

 Mulliken charges and spin densities:
               1          2
     1  C   -0.684248  -0.011283
     2  C   -0.425757  -0.018664
     3  C    0.711026   0.001141
     4  C    0.097412   0.273680
     5  C   -0.384945  -0.066214
     6  C   -0.056994   0.142562
     7  N    0.008654   0.077583
     8  N   -0.336173   0.005228
     9  C   -0.519914  -0.014919
    10  O   -0.321673   0.002591
    11  N   -0.256619   0.040376
    12  C   -0.244900  -0.147936
    13  C   -0.265398   0.182607
    14  N    0.119277   0.052623
    15  C   -0.155131   0.008966
    16  O   -0.415785   0.025258
    17  C   -0.387351   0.205356
    18  C    0.320970   0.174862
    19  C   -0.256953   0.001373
    20  H    0.218463  -0.005365
    21  H    0.166854  -0.002019
    22  H    0.137832   0.002418
    23  H    0.174218   0.004403
    24  H    0.133966  -0.013599
    25  H    0.221533   0.000489
    26  H    0.217765   0.009015
    27  H    0.295979   0.002675
    28  H    0.134706   0.074661
    29  H    0.153750  -0.011328
    30  H    0.149158  -0.017470
    31  H    0.159092   0.018544
    32  H    0.184470   0.002455
    33  H    0.106718  -0.000068
 Sum of Mulliken charges =  -1.00000   1.00000

 Dipole moment (field-independent basis, Debye):
    X=             -4.3660    Y=             -0.3518    Z=             -1.7192  Tot=              4.7054
 Quadrupole moment (field-independent basis, Debye-Ang):
   XX=           -162.9122   YY=           -134.0384   ZZ=           -127.5913
   XY=             22.0319   XZ=              0.1627   YZ=              8.1645

 Summary of Natural Population Analysis:

                                       Natural Population
                Natural  -----------------------------------------------
    Atom  No    Charge         Core      Valence    Rydberg      Total
 -----------------------------------------------------------------------
      C    1   -0.29922      0.99964     2.29460    0.00498     3.29922
      C    2    0.09390      0.99952     1.89064    0.01594     2.90610
      C    3   -0.06729      0.99942     2.05606    0.01182     3.06729
      C    4   -0.05964      0.99949     2.04996    0.01019     3.05964
      C    5    0.04660      0.99948     1.94455    0.00938     2.95340
      C    6    0.04049      0.99956     1.94653    0.01342     2.95951
      N    7   -0.21043      0.99967     2.69939    0.01137     3.71043
      N    8   -0.40249      0.99972     2.89305    0.00972     3.90249
      C    9    0.34436      0.99962     1.63329    0.02273     2.65564
      O   10   -0.32616      0.99988     3.32049    0.00579     4.32616
      N   11   -0.30753      0.99964     2.79727    0.01062     3.80753
      C   12    0.00749      0.99946     1.97965    0.01340     2.99251
      C   13    0.05807      0.99951     1.93063    0.01179     2.94193
      N   14   -0.19456      0.99963     2.68579    0.00914     3.69456
      C   15    0.31452      0.99962     1.66534    0.02052     2.68548
      O   16   -0.34122      0.99988     3.33497    0.00637     4.34122
      C   17   -0.11343      0.99953     2.10511    0.00879     3.11343
      C   18   -0.03962      0.99953     2.03209    0.00799     3.03962
      C   19   -0.17460      0.99966     2.16779    0.00715     3.17460
      H   20    0.11235      0.00000     0.38660    0.00104     0.38765
      H   21    0.10343      0.00000     0.39559    0.00098     0.39657
      H   22    0.09974      0.00000     0.39949    0.00077     0.40026
      H   23    0.09860      0.00000     0.39994    0.00146     0.40140
      H   24    0.07707      0.00000     0.42164    0.00129     0.42293
      H   25    0.18083      0.00000     0.31768    0.00149     0.31917
      H   26    0.18009      0.00000     0.31845    0.00145     0.31991
      H   27    0.19205      0.00000     0.30641    0.00154     0.30795
      H   28    0.10112      0.00000     0.39721    0.00167     0.39888
      H   29    0.09702      0.00000     0.40127    0.00170     0.40298
      H   30    0.09207      0.00000     0.40668    0.00126     0.40793
      H   31    0.09896      0.00000     0.39988    0.00116     0.40104
      H   32    0.10301      0.00000     0.39582    0.00117     0.39699
      H   33    0.09441      0.00000     0.40471    0.00088     0.40559
 =======================================================================
   * Total *   -0.00000     18.99245    48.77857    0.22898    68.00000

 Normal termination of Gaussian 16 at Mon Jan  4 12:23:51 2021.
