 Gaussian 16, Revision A.03,

 -----------------------------------------------------------
 # opt freq B3LYP/6-31G(d) empiricaldispersion=gd3bj scf=xqc
 -----------------------------------------------------------

 ------------------------------
 CID_91266815_JID_1347_neutraal
 ------------------------------
 Symbolic Z-matrix:
 Charge =  0 Multiplicity = 1

 SCF Done:  E(RB3LYP) =  -483.136323887     A.U. after   13 cycles
 SCF Done:  E(RB3LYP) =  -483.144770523     A.U. after   11 cycles
 SCF Done:  E(RB3LYP) =  -483.146014086     A.U. after   11 cycles
 SCF Done:  E(RB3LYP) =  -483.146788705     A.U. after   11 cycles
 SCF Done:  E(RB3LYP) =  -483.147478102     A.U. after   12 cycles
 SCF Done:  E(RB3LYP) =  -483.148059267     A.U. after   12 cycles
 SCF Done:  E(RB3LYP) =  -483.148671963     A.U. after   11 cycles
 SCF Done:  E(RB3LYP) =  -483.149154911     A.U. after   11 cycles
 SCF Done:  E(RB3LYP) =  -483.149208709     A.U. after   11 cycles
 SCF Done:  E(RB3LYP) =  -483.149259065     A.U. after   10 cycles
 SCF Done:  E(RB3LYP) =  -483.149277219     A.U. after    9 cycles
 SCF Done:  E(RB3LYP) =  -483.149281248     A.U. after    9 cycles
 SCF Done:  E(RB3LYP) =  -483.149283972     A.U. after    9 cycles
 SCF Done:  E(RB3LYP) =  -483.149284526     A.U. after    7 cycles
 SCF Done:  E(RB3LYP) =  -483.149284613     A.U. after    7 cycles
 SCF Done:  E(RB3LYP) =  -483.149284655     A.U. after    6 cycles
 Optimization completed.
    -- Stationary point found.
 Normal termination of Gaussian 16 at Tue Dec  8 19:56:28 2020.

 --------------------------------------------------------------------
 #N Geom=AllCheck Guess=TCheck SCRF=Check GenChk RB3LYP/6-31G(d) Freq
 --------------------------------------------------------------------

 Structure from the checkpoint file:  "JID_1347.chk"
 ------------------------------
 CID_91266815_JID_1347_neutraal
 ------------------------------
 Charge =  0 Multiplicity = 1

 SCF Done:  E(RB3LYP) =  -483.149284655     A.U. after    1 cycles

  Exact polarizability: 115.316  -6.181 104.913   7.528  -1.800  91.289
 Approx polarizability: 141.167 -14.605 154.466  11.137  -6.706 133.513

                      1                      2                      3
                      A                      A                      A
 Frequencies --     35.6546                38.5644                84.2116
 Red. masses --      3.0794                 3.2720                 2.9822
 Frc consts  --      0.0023                 0.0029                 0.0125
 IR Inten    --      0.1689                 0.6265                 0.2149

                      4                      5                      6
                      A                      A                      A
 Frequencies --    128.1687               139.1426               165.8873
 Red. masses --      2.1399                 1.1101                 2.1603
 Frc consts  --      0.0207                 0.0127                 0.0350
 IR Inten    --      0.6125                 0.2068                 0.2881

                      7                      8                      9
                      A                      A                      A
 Frequencies --    172.7002               224.4407               228.8020
 Red. masses --      1.3579                 2.4405                 1.1615
 Frc consts  --      0.0239                 0.0724                 0.0358
 IR Inten    --      1.0762                 1.8320                 1.1137

                     10                     11                     12
                      A                      A                      A
 Frequencies --    251.2361               272.3406               326.2736
 Red. masses --      2.0138                 2.7766                 2.9857
 Frc consts  --      0.0749                 0.1213                 0.1873
 IR Inten    --      4.2840                 2.2658                 2.0511

                     13                     14                     15
                      A                      A                      A
 Frequencies --    343.8815               429.0744               442.2888
 Red. masses --      2.3021                 2.9178                 2.9235
 Frc consts  --      0.1604                 0.3165                 0.3370
 IR Inten    --      4.6302                 5.1166                 1.5018

                     16                     17                     18
                      A                      A                      A
 Frequencies --    469.1196               571.6423               610.0878
 Red. masses --      2.3237                 3.4886                 3.1008
 Frc consts  --      0.3013                 0.6717                 0.6800
 IR Inten    --      5.8649                 5.6303                 2.6962

                     19                     20                     21
                      A                      A                      A
 Frequencies --    648.9410               778.8018               806.4475
 Red. masses --      3.2345                 2.5064                 1.4788
 Frc consts  --      0.8025                 0.8957                 0.5666
 IR Inten    --     10.9738                 6.0818                 4.4919

                     22                     23                     24
                      A                      A                      A
 Frequencies --    830.8824               859.1344               933.0470
 Red. masses --      1.2584                 2.1465                 1.5784
 Frc consts  --      0.5118                 0.9335                 0.8096
 IR Inten    --      8.4298                 2.6530                 2.1041

                     25                     26                     27
                      A                      A                      A
 Frequencies --    954.4043               966.4289               975.0192
 Red. masses --      1.7056                 2.1339                 2.6122
 Frc consts  --      0.9154                 1.1743                 1.4631
 IR Inten    --     11.6966                10.8827                 1.9939

                     28                     29                     30
                      A                      A                      A
 Frequencies --   1016.8777              1049.9885              1070.4403
 Red. masses --      2.1444                 1.5844                 1.5404
 Frc consts  --      1.3064                 1.0292                 1.0400
 IR Inten    --     27.8358                 4.9317                 7.1083

                     31                     32                     33
                      A                      A                      A
 Frequencies --   1086.8812              1094.4649              1116.4304
 Red. masses --      1.5699                 2.8277                 1.5494
 Frc consts  --      1.0926                 1.9957                 1.1379
 IR Inten    --     15.1112                74.0098                 4.4836

                     34                     35                     36
                      A                      A                      A
 Frequencies --   1124.5449              1146.0063              1175.9815
 Red. masses --      3.2027                 1.9155                 1.6880
 Frc consts  --      2.3862                 1.4822                 1.3754
 IR Inten    --     65.6353                11.3200                 1.3360

                     37                     38                     39
                      A                      A                      A
 Frequencies --   1186.2324              1207.8819              1226.7235
 Red. masses --      1.8522                 1.3108                 2.6876
 Frc consts  --      1.5356                 1.1268                 2.3829
 IR Inten    --     10.2659                 0.8487                82.4746

                     40                     41                     42
                      A                      A                      A
 Frequencies --   1237.7215              1258.1764              1272.7242
 Red. masses --      2.9696                 1.5294                 1.4636
 Frc consts  --      2.6803                 1.4265                 1.3968
 IR Inten    --      1.4009                18.4985                 9.5098

                     43                     44                     45
                      A                      A                      A
 Frequencies --   1299.0566              1306.9368              1347.4173
 Red. masses --      1.2329                 1.4981                 1.4865
 Frc consts  --      1.2258                 1.5076                 1.5901
 IR Inten    --     16.9657                 7.8821                47.4070

                     46                     47                     48
                      A                      A                      A
 Frequencies --   1361.2298              1397.4067              1429.1112
 Red. masses --      1.4886                 1.4243                 1.3923
 Frc consts  --      1.6251                 1.6387                 1.6754
 IR Inten    --     31.1379                18.4881                 4.8153

                     49                     50                     51
                      A                      A                      A
 Frequencies --   1439.4729              1444.4442              1475.5650
 Red. masses --      1.3170                 1.3475                 1.1793
 Frc consts  --      1.6079                 1.6564                 1.5128
 IR Inten    --      1.4686                17.1846                 1.5402

                     52                     53                     54
                      A                      A                      A
 Frequencies --   1502.8414              1512.6997              1514.7812
 Red. masses --      1.0532                 1.0978                 1.0652
 Frc consts  --      1.4014                 1.4801                 1.4401
 IR Inten    --      4.3256                 1.5156                 1.4337

                     55                     56                     57
                      A                      A                      A
 Frequencies --   1516.9498              1521.9455              1524.6294
 Red. masses --      1.0518                 1.0500                 1.0524
 Frc consts  --      1.4260                 1.4330                 1.4413
 IR Inten    --     11.3703                 7.6568                 4.0853

                     58                     59                     60
                      A                      A                      A
 Frequencies --   1527.3215              1538.3855              1552.8849
 Red. masses --      1.0498                 1.0790                 1.1211
 Frc consts  --      1.4429                 1.5046                 1.5928
 IR Inten    --      4.0365                 4.5284                 3.6862

                     61                     62                     63
                      A                      A                      A
 Frequencies --   1766.7759              2938.5171              2967.9894
 Red. masses --      6.7487                 1.0608                 1.0793
 Frc consts  --     12.4118                 5.3966                 5.6018
 IR Inten    --     32.6304                72.7962                46.5137

                     64                     65                     66
                      A                      A                      A
 Frequencies --   2980.6142              3030.5198              3042.5860
 Red. masses --      1.0726                 1.0413                 1.0454
 Frc consts  --      5.6144                 5.6347                 5.7021
 IR Inten    --     83.8104                46.3244                 2.2990

                     67                     68                     69
                      A                      A                      A
 Frequencies --   3053.4391              3070.7242              3074.2975
 Red. masses --      1.0540                 1.0998                 1.0839
 Frc consts  --      5.7899                 6.1100                 6.0360
 IR Inten    --     66.5762                32.4875                33.6980

                     70                     71                     72
                      A                      A                      A
 Frequencies --   3076.1616              3093.6129              3101.2008
 Red. masses --      1.0802                 1.0979                 1.0673
 Frc consts  --      6.0222                 6.1906                 6.0476
 IR Inten    --     64.3198                30.5256                13.9371

                     73                     74                     75
                      A                      A                      A
 Frequencies --   3105.8858              3117.0223              3140.5174
 Red. masses --      1.1012                 1.1039                 1.0997
 Frc consts  --      6.2586                 6.3191                 6.3902
 IR Inten    --     44.6197                30.2753                14.8980

                     76                     77                     78
                      A                      A                      A
 Frequencies --   3148.2757              3163.7580              3177.7283
 Red. masses --      1.0951                 1.1062                 1.0898
 Frc consts  --      6.3953                 6.5235                 6.4841
 IR Inten    --      5.2080                20.6592                28.0737

 - Thermochemistry -
 -------------------
 Temperature   298.150 Kelvin.  Pressure   1.00000 Atm.
 Atom     1 has atomic number  6 and mass  12.00000

 Molecular mass:   155.13101 amu.
 Principal axes and moments of inertia in atomic units:
                           1         2         3
     Eigenvalues --   995.476692948.980093052.19140
           X            0.99990   0.00332   0.01396
           Y           -0.00454   0.99612   0.08788
           Z           -0.01361  -0.08793   0.99603
 This molecule is an asymmetric top.
 Rotational symmetry number  1.
 Warning -- assumption of classical behavior for rotation
           may cause significant error
 Rotational temperatures (Kelvin)      0.08701     0.02937     0.02838
 Rotational constants (GHZ):           1.81294     0.61199     0.59129
 Zero-point vibrational energy     659264.4 (Joules/Mol)
                                  157.56798 (Kcal/Mol)
 Warning -- explicit consideration of  18 degrees of freedom as
           vibrations may cause significant error
 Vibrational temperatures:     51.30    55.49   121.16   184.41   200.20
          (Kelvin)            238.67   248.48   322.92   329.20   361.47
                              391.84   469.43   494.77   617.34   636.35
                              674.96   822.47   877.78   933.68  1120.52
                             1160.30  1195.45  1236.10  1342.45  1373.17
                             1390.48  1402.84  1463.06  1510.70  1540.12
                             1563.78  1574.69  1606.29  1617.97  1648.85
                             1691.98  1706.72  1737.87  1764.98  1780.81
                             1810.24  1831.17  1869.05  1880.39  1938.63
                             1958.51  2010.56  2056.17  2071.08  2078.23
                             2123.01  2162.25  2176.44  2179.43  2182.55
                             2189.74  2193.60  2197.47  2213.39  2234.25
                             2542.00  4227.87  4270.27  4288.44  4360.24
                             4377.60  4393.22  4418.09  4423.23  4425.91
                             4451.02  4461.94  4468.68  4484.70  4518.50
                             4529.67  4551.94  4572.04

 Zero-point correction=                           0.251101 (Hartree/Particle)
 Thermal correction to Energy=                    0.263893
 Thermal correction to Enthalpy=                  0.264837
 Thermal correction to Gibbs Free Energy=         0.211390
 Sum of electronic and zero-point Energies=           -482.898184
 Sum of electronic and thermal Energies=              -482.885392
 Sum of electronic and thermal Enthalpies=            -482.884447
 Sum of electronic and thermal Free Energies=         -482.937895

                     E (Thermal)             CV                S
                      KCal/Mol        Cal/Mol-Kelvin    Cal/Mol-Kelvin
 Total                  165.595             46.444            112.489
 Electronic               0.000              0.000              0.000
 Translational            0.889              2.981             41.027
 Rotational               0.889              2.981             30.572
 Vibrational            163.818             40.482             40.890
 Vibration     1          0.594              1.982              5.487
 Vibration     2          0.594              1.981              5.332
 Vibration     3          0.601              1.960              3.790
 Vibration     4          0.611              1.925              2.973
 Vibration     5          0.615              1.914              2.816
 Vibration     6          0.624              1.884              2.482
 Vibration     7          0.626              1.876              2.406
 Vibration     8          0.649              1.804              1.923
 Vibration     9          0.651              1.797              1.888
 Vibration    10          0.663              1.761              1.722
 Vibration    11          0.675              1.724              1.581
 Vibration    12          0.710              1.623              1.278
 Vibration    13          0.723              1.588              1.194
 Vibration    14          0.790              1.407              0.862
 Vibration    15          0.802              1.378              0.819
 Vibration    16          0.826              1.319              0.740
 Vibration    17          0.928              1.093              0.501
 Vibration    18          0.969              1.010              0.433

 Optimization completed.
    -- Stationary point found.
 Normal termination of Gaussian 16 at Tue Dec  8 20:02:57 2020.

 ----------------------------------------------------------------------
 # B3LYP/6-311++G(d,p) empiricaldispersion=gd3bj scf=xqc pop=npa geom=c
 heck
 ----------------------------------------------------------------------

 --------------------------------------
 CID_91266815_JID_1347_Energie_neutraal
 --------------------------------------
 Structure from the checkpoint file:  "JID_1347.chk"
 Charge =  0 Multiplicity = 1

 SCF Done:  E(RB3LYP) =  -483.285088513     A.U. after   14 cycles
 Normal termination of Gaussian 16 at Tue Dec  8 20:06:02 2020.

 ----------------------------------------------------------------------
 # B3LYP/6-311++G(d,p) empiricaldispersion=gd3bj scf=xqc pop=npa geom=c
 heck
 ----------------------------------------------------------------------

 ------------------------------------
 CID_91266815_JID_1347_Energie_kation
 ------------------------------------
 Structure from the checkpoint file:  "JID_1347.chk"
 Charge =  1 Multiplicity = 2

 SCF Done:  E(UB3LYP) =  -482.997832096     A.U. after   22 cycles
 Normal termination of Gaussian 16 at Tue Dec  8 20:12:29 2020.
 Gaussian 16:  ES64L-G16RevA.03 25-Dec-2016

 ----------------------------------------------------------------------
 # B3LYP/6-311++G(d,p) empiricaldispersion=gd3bj scf=xqc pop=npa geom=c
 heck
 ----------------------------------------------------------------------

 -----------------------------------
 CID_91266815_JID_1347_Energie_anion
 -----------------------------------
 Structure from the checkpoint file:  "JID_1347.chk"
 Charge = -1 Multiplicity = 2

                         Standard orientation:
 ---------------------------------------------------------------------
 Center     Atomic      Atomic             Coordinates (Angstroms)
 Number     Number       Type             X           Y           Z
 ---------------------------------------------------------------------
      1          6           0        2.437812   -2.058867   -0.112853
      2          6           0        2.632539   -0.658693    0.386488
      3          6           0        2.012629    0.427417   -0.090626
      4          6           0        2.236169    1.822346    0.425770
      5          8           0        1.185844    0.308763   -1.195650
      6          6           0       -0.158290    0.768414   -1.052286
      7          6           0       -0.987438   -0.143375   -0.160637
      8          6           0       -0.876512   -0.041885    1.380029
      9          6           0       -2.420208   -0.107733    1.378462
     10          7           0       -2.407520    0.253931   -0.054003
     11          6           0       -3.366113   -0.388191   -0.927822
     12          1           0        1.705988   -2.085167   -0.923109
     13          1           0        2.091678   -2.722520    0.691539
     14          1           0        3.378820   -2.483383   -0.487843
     15          1           0        3.348726   -0.508582    1.191425
     16          1           0        2.532941    2.489843   -0.392638
     17          1           0        1.334780    2.250709    0.880804
     18          1           0        3.022786    1.827187    1.184660
     19          1           0       -0.200026    1.797541   -0.673617
     20          1           0       -0.570538    0.770317   -2.066529
     21          1           0       -0.861555   -1.187826   -0.496750
     22          1           0       -0.334193   -0.838201    1.890611
     23          1           0       -0.495628    0.928271    1.709444
     24          1           0       -2.976094    0.583363    2.022886
     25          1           0       -2.787498   -1.133298    1.556316
     26          1           0       -3.350987   -1.492970   -0.848151
     27          1           0       -4.377068   -0.041521   -0.685591
     28          1           0       -3.159775   -0.117988   -1.969394
 ---------------------------------------------------------------------

 SCF Done:  E(UB3LYP) =  -483.266988956     A.U. after   32 cycles

 The electronic state is 2-A.
 Alpha  occ. eigenvalues --  -19.03611 -14.20471 -10.12003 -10.11819 -10.09884
 Alpha  occ. eigenvalues --  -10.09223 -10.08677 -10.06880 -10.06740 -10.06035
 Alpha  occ. eigenvalues --  -10.05883  -0.95127  -0.84594  -0.69790  -0.66737
 Alpha  occ. eigenvalues --   -0.63448  -0.62538  -0.55710  -0.54639  -0.52795
 Alpha  occ. eigenvalues --   -0.45225  -0.44630  -0.39497  -0.38215  -0.38082
 Alpha  occ. eigenvalues --   -0.36936  -0.35726  -0.33794  -0.31699  -0.31281
 Alpha  occ. eigenvalues --   -0.31027  -0.30352  -0.28845  -0.27755  -0.27049
 Alpha  occ. eigenvalues --   -0.26050  -0.25489  -0.25150  -0.23053  -0.21288
 Alpha  occ. eigenvalues --   -0.18527  -0.12994  -0.12299   0.04666
 Alpha virt. eigenvalues --    0.06382   0.07229   0.07636   0.08812   0.09080
 Alpha virt. eigenvalues --    0.09516   0.10105   0.10546   0.11245   0.11710
 Alpha virt. eigenvalues --    0.12108   0.12326   0.13298   0.13545   0.14268

  Beta  occ. eigenvalues --  -19.03604 -14.20460 -10.12002 -10.11807 -10.09877
  Beta  occ. eigenvalues --  -10.09199 -10.08645 -10.06850 -10.06721 -10.06013
  Beta  occ. eigenvalues --  -10.05869  -0.95114  -0.84573  -0.69768  -0.66706
  Beta  occ. eigenvalues --   -0.63414  -0.62501  -0.55662  -0.54570  -0.52742
  Beta  occ. eigenvalues --   -0.45164  -0.44596  -0.39436  -0.38177  -0.38054
  Beta  occ. eigenvalues --   -0.36904  -0.35687  -0.33769  -0.31666  -0.31247
  Beta  occ. eigenvalues --   -0.30995  -0.30323  -0.28816  -0.27724  -0.27015
  Beta  occ. eigenvalues --   -0.26015  -0.25456  -0.25111  -0.23011  -0.21263
  Beta  occ. eigenvalues --   -0.18507  -0.12958  -0.12259
  Beta virt. eigenvalues --    0.06833   0.07422   0.07804   0.08264   0.09489
  Beta virt. eigenvalues --    0.09624   0.10063   0.10502   0.11058   0.11595
  Beta virt. eigenvalues --    0.12099   0.12508   0.12652   0.13596   0.13760

 Mulliken charges and spin densities:
               1          2
     1  C    0.983404  -1.709916
     2  C    0.383584  -0.402586
     3  C   -1.541339   1.788117
     4  C    1.111026  -1.669813
     5  O   -0.063800   0.005441
     6  C    0.562841  -0.890249
     7  C   -1.743474   1.332137
     8  C   -0.081805  -0.182518
     9  C    1.023188  -1.337527
    10  N    0.004252   0.161105
    11  C    0.978248  -1.250999
    12  H   -0.165354   0.331494
    13  H   -0.156531   0.300523
    14  H   -0.103152   0.237860
    15  H   -0.582606   0.751077
    16  H   -0.055073   0.223040
    17  H   -0.187562   0.332201
    18  H   -0.412947   0.572941
    19  H    0.095590   0.082697
    20  H    0.066438   0.111749
    21  H    0.309491  -0.158161
    22  H   -0.111292   0.276295
    23  H    0.071907   0.051371
    24  H   -0.337759   0.500929
    25  H   -0.141740   0.265517
    26  H   -0.347035   0.454879
    27  H   -0.287349   0.432742
    28  H   -0.271151   0.389654
 Sum of Mulliken charges =  -1.00000   1.00000

 Dipole moment (field-independent basis, Debye):
    X=              0.5121    Y=              0.9748    Z=             -2.0116  Tot=              2.2932
 Quadrupole moment (field-independent basis, Debye-Ang):
   XX=           -146.5048   YY=           -109.2877   ZZ=           -108.9219
   XY=             -3.0457   XZ=             -6.0249   YZ=             -1.6514

 Summary of Natural Population Analysis:

                                       Natural Population
                Natural  -----------------------------------------------
    Atom  No    Charge         Core      Valence    Rydberg      Total
 -----------------------------------------------------------------------
      C    1   -0.30159      0.99965     2.29475    0.00719     3.30159
      C    2   -0.12087      0.99946     2.11215    0.00926     3.12087
      C    3    0.14963      0.99937     1.83521    0.01579     2.85037
      C    4   -0.31021      0.99961     2.30502    0.00557     3.31021
      O    5   -0.29557      0.99986     3.28577    0.00995     4.29557
      C    6   -0.00824      0.99951     1.99694    0.01178     3.00824
      C    7   -0.01403      0.99961     2.00089    0.01353     3.01403
      C    8   -0.19402      0.99960     2.18581    0.00861     3.19402
      C    9   -0.07596      0.99965     2.06567    0.01064     3.07596
      N   10   -0.28047      0.99971     2.76706    0.01370     3.78047
      C   11   -0.17657      0.99965     2.16817    0.00875     3.17657
      H   12    0.10732      0.00000     0.39133    0.00136     0.39268
      H   13    0.10197      0.00000     0.39684    0.00118     0.39803
      H   14    0.09943      0.00000     0.39958    0.00099     0.40057
      H   15    0.09628      0.00000     0.40238    0.00134     0.40372
      H   16    0.10296      0.00000     0.39590    0.00114     0.39704
      H   17    0.10183      0.00000     0.39664    0.00153     0.39817
      H   18    0.10882      0.00000     0.38982    0.00137     0.39118
      H   19    0.08327      0.00000     0.41452    0.00221     0.41673
      H   20    0.09151      0.00000     0.40697    0.00152     0.40849
      H   21    0.08580      0.00000     0.41189    0.00231     0.41420
      H   22    0.10375      0.00000     0.39511    0.00114     0.39625
      H   23    0.09854      0.00000     0.39994    0.00152     0.40146
      H   24    0.09111      0.00000     0.40741    0.00148     0.40889
      H   25    0.08323      0.00000     0.41505    0.00172     0.41677
      H   26    0.08086      0.00000     0.41725    0.00188     0.41914
      H   27    0.09638      0.00000     0.40222    0.00140     0.40362
      H   28    0.09484      0.00000     0.40370    0.00147     0.40516
 =======================================================================
   * Total *    0.00000     10.99568    31.86397    0.14035    43.00000

 Normal termination of Gaussian 16 at Tue Dec  8 20:22:06 2020.
