 Gaussian 16, Revision A.03,

 -----------------------------------------------------------
 # opt freq B3LYP/6-31G(d) empiricaldispersion=gd3bj scf=xqc
 -----------------------------------------------------------

 -------------------------------
 CID_114585600_JID_8155_neutraal
 -------------------------------
 Symbolic Z-matrix:
 Charge =  0 Multiplicity = 1

 SCF Done:  E(RB3LYP) =  -889.811301635     A.U. after   15 cycles
 SCF Done:  E(RB3LYP) =  -889.816678575     A.U. after   12 cycles
 SCF Done:  E(RB3LYP) =  -889.817393021     A.U. after   12 cycles
 SCF Done:  E(RB3LYP) =  -889.817117957     A.U. after   13 cycles
 SCF Done:  E(RB3LYP) =  -889.817602409     A.U. after   12 cycles
 SCF Done:  E(RB3LYP) =  -889.817683388     A.U. after   11 cycles
 SCF Done:  E(RB3LYP) =  -889.817749893     A.U. after   12 cycles
 SCF Done:  E(RB3LYP) =  -889.817894043     A.U. after   13 cycles
 SCF Done:  E(RB3LYP) =  -889.817844321     A.U. after   12 cycles
 SCF Done:  E(RB3LYP) =  -889.818276821     A.U. after   13 cycles
 SCF Done:  E(RB3LYP) =  -889.819314991     A.U. after   12 cycles
 SCF Done:  E(RB3LYP) =  -889.819354669     A.U. after   11 cycles
 SCF Done:  E(RB3LYP) =  -889.819364936     A.U. after   10 cycles
 SCF Done:  E(RB3LYP) =  -889.819367165     A.U. after    9 cycles
 SCF Done:  E(RB3LYP) =  -889.819367356     A.U. after    8 cycles
 SCF Done:  E(RB3LYP) =  -889.819367434     A.U. after    7 cycles
 Optimization completed.
    -- Stationary point found.
 Normal termination of Gaussian 16 at Fri Dec 11 19:24:58 2020.

 --------------------------------------------------------------------
 #N Geom=AllCheck Guess=TCheck SCRF=Check GenChk RB3LYP/6-31G(d) Freq
 --------------------------------------------------------------------

 Structure from the checkpoint file:  "JID_8155.chk"
 -------------------------------
 CID_114585600_JID_8155_neutraal
 -------------------------------
 Charge =  0 Multiplicity = 1

 SCF Done:  E(RB3LYP) =  -889.819367434     A.U. after    1 cycles

  Exact polarizability: 239.339  -2.756 134.198 -14.627  -3.411  87.954
 Approx polarizability: 338.257 -16.456 242.278 -35.810 -12.433 154.858

                      1                      2                      3
                      A                      A                      A
 Frequencies --     19.8029                29.1445                56.6674
 Red. masses --      8.7600                 5.9028                 7.5160
 Frc consts  --      0.0020                 0.0030                 0.0142
 IR Inten    --      0.1729                 1.2103                 0.8701

                      4                      5                      6
                      A                      A                      A
 Frequencies --     78.7595               111.5038               129.4676
 Red. masses --      5.5553                 7.0386                 7.6213
 Frc consts  --      0.0203                 0.0516                 0.0753
 IR Inten    --      0.5336                 0.6602                 3.6839

                      7                      8                      9
                      A                      A                      A
 Frequencies --    179.9269               209.2915               235.2096
 Red. masses --      7.2349                 7.1678                 5.7565
 Frc consts  --      0.1380                 0.1850                 0.1876
 IR Inten    --      1.4481                 3.2818                 8.5262

                     10                     11                     12
                      A                      A                      A
 Frequencies --    278.9012               301.7109               311.1383
 Red. masses --      5.9194                 4.1114                 3.8872
 Frc consts  --      0.2713                 0.2205                 0.2217
 IR Inten    --      4.5230                22.4093                 8.9424

                     13                     14                     15
                      A                      A                      A
 Frequencies --    368.3596               404.1278               418.6422
 Red. masses --      7.0335                 6.1612                 1.2575
 Frc consts  --      0.5623                 0.5929                 0.1299
 IR Inten    --      7.9071                11.8857                26.4041

                     16                     17                     18
                      A                      A                      A
 Frequencies --    424.5524               489.8469               506.6660
 Red. masses --      3.1059                 3.4481                 3.9522
 Frc consts  --      0.3298                 0.4875                 0.5978
 IR Inten    --      1.6287                12.2100                 9.2364

                     19                     20                     21
                      A                      A                      A
 Frequencies --    511.0878               536.5865               549.1093
 Red. masses --      4.0792                 2.7933                 4.3009
 Frc consts  --      0.6278                 0.4739                 0.7641
 IR Inten    --     32.7120                77.9027                94.0859

                     22                     23                     24
                      A                      A                      A
 Frequencies --    566.0971               601.9432               607.6864
 Red. masses --      2.8001                 2.4447                 2.0685
 Frc consts  --      0.5287                 0.5219                 0.4500
 IR Inten    --    182.7939                15.9081                36.7413

                     25                     26                     27
                      A                      A                      A
 Frequencies --    613.8713               647.5750               657.4188
 Red. masses --      3.0783                 5.2201                 4.1428
 Frc consts  --      0.6835                 1.2898                 1.0550
 IR Inten    --     49.5558                12.8078                42.6907

                     28                     29                     30
                      A                      A                      A
 Frequencies --    706.9124               715.9198               733.1211
 Red. masses --      3.4722                 1.8063                 5.4280
 Frc consts  --      1.0223                 0.5455                 1.7189
 IR Inten    --     33.3335                45.1057                38.3472

                     31                     32                     33
                      A                      A                      A
 Frequencies --    747.9815               763.1096               785.5794
 Red. masses --      4.4962                 5.0534                 6.4683
 Frc consts  --      1.4821                 1.7338                 2.3519
 IR Inten    --     20.0190                37.2615                22.6349

                     34                     35                     36
                      A                      A                      A
 Frequencies --    837.4819               845.2394               867.6761
 Red. masses --      1.2713                 5.2064                 1.8001
 Frc consts  --      0.5253                 2.1915                 0.7985
 IR Inten    --      0.6114                23.5727                23.4499

                     37                     38                     39
                      A                      A                      A
 Frequencies --    872.0733               908.2644               972.3570
 Red. masses --      1.4125                 7.2156                 1.3131
 Frc consts  --      0.6329                 3.5071                 0.7315
 IR Inten    --      3.4547                 0.1089                 0.1569

                     40                     41                     42
                      A                      A                      A
 Frequencies --    983.9409               998.8773              1037.7057
 Red. masses --      1.3162                 2.5956                 2.7648
 Frc consts  --      0.7508                 1.5259                 1.7542
 IR Inten    --      0.8888                20.6711                15.1524

                     43                     44                     45
                      A                      A                      A
 Frequencies --   1121.2224              1140.6040              1144.3194
 Red. masses --      3.8694                 1.8866                 1.4678
 Frc consts  --      2.8660                 1.4461                 1.1325
 IR Inten    --    195.0147                35.6978                 9.5194

                     46                     47                     48
                      A                      A                      A
 Frequencies --   1192.5357              1213.5648              1226.4447
 Red. masses --      1.2728                 2.1489                 1.7030
 Frc consts  --      1.0665                 1.8646                 1.5093
 IR Inten    --    280.9886               106.4056               137.6019

                     49                     50                     51
                      A                      A                      A
 Frequencies --   1246.7005              1289.0927              1308.8526
 Red. masses --      3.6897                 5.2644                 2.9343
 Frc consts  --      3.3788                 5.1542                 2.9617
 IR Inten    --      4.9607               688.5128               135.8282

                     52                     53                     54
                      A                      A                      A
 Frequencies --   1340.1591              1370.0884              1398.1558
 Red. masses --      1.3376                 9.3576                 2.7687
 Frc consts  --      1.4155                10.3493                 3.1889
 IR Inten    --     20.9667                 8.5971               237.9097

                     55                     56                     57
                      A                      A                      A
 Frequencies --   1410.3199              1442.3017              1468.2822
 Red. masses --      2.9554                 2.1567                 3.3435
 Frc consts  --      3.4634                 2.6433                 4.2469
 IR Inten    --     10.0760                73.1328                 2.6941

                     58                     59                     60
                      A                      A                      A
 Frequencies --   1483.3354              1558.1017              1610.2294
 Red. masses --      2.5332                 2.6273                 2.3038
 Frc consts  --      3.2839                 3.7579                 3.5194
 IR Inten    --     18.0218                85.8395                89.8469

                     61                     62                     63
                      A                      A                      A
 Frequencies --   1637.6244              1649.7764              1668.5306
 Red. masses --      6.1801                 2.4846                 3.7823
 Frc consts  --      9.7650                 3.9843                 6.2041
 IR Inten    --     14.9452               227.7074               188.2864

                     64                     65                     66
                      A                      A                      A
 Frequencies --   1684.6419              1784.2639              1818.9048
 Red. masses --      7.0867                 7.6696                 9.6729
 Frc consts  --     11.8497                14.3860                18.8549
 IR Inten    --    185.7590               570.5074               320.7268

                     67                     68                     69
                      A                      A                      A
 Frequencies --   3216.4918              3219.4744              3224.6499
 Red. masses --      1.0928                 1.0893                 1.0886
 Frc consts  --      6.6615                 6.6525                 6.6691
 IR Inten    --      4.5779                 4.2846                 0.9764

                     70                     71                     72
                      A                      A                      A
 Frequencies --   3238.3370              3240.2111              3562.5502
 Red. masses --      1.0937                 1.0943                 1.0463
 Frc consts  --      6.7575                 6.7691                 7.8236
 IR Inten    --      4.9365                 4.7199                53.6884

                     73                     74                     75
                      A                      A                      A
 Frequencies --   3593.8421              3683.0052              3702.6393
 Red. masses --      1.0782                 1.1006                 1.0642
 Frc consts  --      8.2045                 8.7957                 8.5957
 IR Inten    --     61.0221                38.4813                82.5605

 - Thermochemistry -
 -------------------
 Temperature   298.150 Kelvin.  Pressure   1.00000 Atm.
 Atom     1 has atomic number  6 and mass  12.00000

 Molecular mass:   247.05931 amu.
 Principal axes and moments of inertia in atomic units:
                           1         2         3
     Eigenvalues --  1395.34495********************
           X            0.99999   0.00346  -0.00216
           Y           -0.00344   0.99993   0.01122
           Z            0.00220  -0.01121   0.99993
 This molecule is an asymmetric top.
 Rotational symmetry number  1.
 Warning -- assumption of classical behavior for rotation
           may cause significant error
 Rotational temperatures (Kelvin)      0.06207     0.00827     0.00783
 Rotational constants (GHZ):           1.29340     0.17235     0.16318
 Zero-point vibrational energy     523429.6 (Joules/Mol)
                                  125.10267 (Kcal/Mol)
 Warning -- explicit consideration of  25 degrees of freedom as
           vibrations may cause significant error
 Vibrational temperatures:     28.49    41.93    81.53   113.32   160.43
          (Kelvin)            186.27   258.87   301.12   338.41   401.28
                              434.09   447.66   529.99   581.45   602.33
                              610.84   704.78   728.98   735.34   772.03
                              790.05   814.49   866.06   874.33   883.22
                              931.72   945.88  1017.09  1030.05  1054.80
                             1076.18  1097.94  1130.27  1204.95  1216.11
                             1248.39  1254.72  1306.79  1399.00  1415.67
                             1437.16  1493.03  1613.19  1641.07  1646.42
                             1715.79  1746.05  1764.58  1793.72  1854.72
                             1883.15  1928.19  1971.25  2011.63  2029.14
                             2075.15  2112.53  2134.19  2241.76  2316.76
                             2356.18  2373.66  2400.64  2423.82  2567.16
                             2617.00  4627.81  4632.11  4639.55  4659.24
                             4661.94  5125.72  5170.74  5299.02  5327.27

 Zero-point correction=                           0.199364 (Hartree/Particle)
 Thermal correction to Energy=                    0.214337
 Thermal correction to Enthalpy=                  0.215281
 Thermal correction to Gibbs Free Energy=         0.155255
 Sum of electronic and zero-point Energies=           -889.620004
 Sum of electronic and thermal Energies=              -889.605031
 Sum of electronic and thermal Enthalpies=            -889.604087
 Sum of electronic and thermal Free Energies=         -889.664113

                     E (Thermal)             CV                S
                      KCal/Mol        Cal/Mol-Kelvin    Cal/Mol-Kelvin
 Total                  134.498             57.772            126.335
 Electronic               0.000              0.000              0.000
 Translational            0.889              2.981             42.414
 Rotational               0.889              2.981             33.446
 Vibrational            132.721             51.810             50.475
 Vibration     1          0.593              1.986              6.654
 Vibration     2          0.593              1.984              5.887
 Vibration     3          0.596              1.975              4.570
 Vibration     4          0.600              1.963              3.922
 Vibration     5          0.607              1.940              3.243
 Vibration     6          0.612              1.924              2.954
 Vibration     7          0.629              1.867              2.329
 Vibration     8          0.642              1.827              2.050
 Vibration     9          0.655              1.787              1.839
 Vibration    10          0.679              1.713              1.540
 Vibration    11          0.694              1.670              1.407
 Vibration    12          0.700              1.652              1.356
 Vibration    13          0.741              1.537              1.087
 Vibration    14          0.769              1.461              0.948
 Vibration    15          0.781              1.430              0.897
 Vibration    16          0.787              1.417              0.877
 Vibration    17          0.846              1.273              0.684
 Vibration    18          0.862              1.235              0.642
 Vibration    19          0.866              1.225              0.631
 Vibration    20          0.892              1.169              0.573
 Vibration    21          0.904              1.142              0.546
 Vibration    22          0.922              1.105              0.512
 Vibration    23          0.960              1.028              0.446
 Vibration    24          0.966              1.016              0.437
 Vibration    25          0.973              1.003              0.426

 Optimization completed.
    -- Stationary point found.
 Normal termination of Gaussian 16 at Fri Dec 11 19:34:34 2020.

 ----------------------------------------------------------------------
 # B3LYP/6-311++G(d,p) empiricaldispersion=gd3bj scf=xqc pop=npa geom=c
 heck
 ----------------------------------------------------------------------

 ---------------------------------------
 CID_114585600_JID_8155_Energie_neutraal
 ---------------------------------------
 Structure from the checkpoint file:  "JID_8155.chk"
 Charge =  0 Multiplicity = 1

 SCF Done:  E(RB3LYP) =  -890.085520030     A.U. after   16 cycles
 Normal termination of Gaussian 16 at Fri Dec 11 19:39:14 2020.

 ----------------------------------------------------------------------
 # B3LYP/6-311++G(d,p) empiricaldispersion=gd3bj scf=xqc pop=npa geom=c
 heck
 ----------------------------------------------------------------------

 -------------------------------------
 CID_114585600_JID_8155_Energie_kation
 -------------------------------------
 Structure from the checkpoint file:  "JID_8155.chk"
 Charge =  1 Multiplicity = 2

 SCF Done:  E(UB3LYP) =  -889.800198255     A.U. after   24 cycles
 Normal termination of Gaussian 16 at Fri Dec 11 19:49:27 2020.
 Gaussian 16:  ES64L-G16RevA.03 25-Dec-2016

 ----------------------------------------------------------------------
 # B3LYP/6-311++G(d,p) empiricaldispersion=gd3bj scf=xqc pop=npa geom=c
 heck
 ----------------------------------------------------------------------

 ------------------------------------
 CID_114585600_JID_8155_Energie_anion
 ------------------------------------
 Structure from the checkpoint file:  "JID_8155.chk"
 Charge = -1 Multiplicity = 2

                         Standard orientation:
 ---------------------------------------------------------------------
 Center     Atomic      Atomic             Coordinates (Angstroms)
 Number     Number       Type             X           Y           Z
 ---------------------------------------------------------------------
      1          6           0        2.854616    1.080272   -0.686080
      2          6           0        1.520982    1.422980   -0.869358
      3          6           0        0.522584    0.657731   -0.263105
      4          6           0        0.845507   -0.448235    0.529326
      5          6           0        2.181072   -0.785258    0.702548
      6          6           0        3.195492   -0.029588    0.099655
      7          6           0        4.598239   -0.441746    0.324862
      8          8           0        4.949273   -1.393208    0.995721
      9          8           0        5.497097    0.362569   -0.303381
     10          8           0       -0.768729    1.106617   -0.437365
     11          6           0       -1.823454    0.223989   -0.376694
     12          6           0       -2.959677    0.659806    0.263909
     13          6           0       -4.110627   -0.229956    0.307251
     14          8           0       -5.165262    0.015186    0.887539
     15          7           0       -3.893486   -1.437510   -0.366966
     16          6           0       -2.721658   -1.761926   -0.990910
     17          7           0       -1.695325   -0.970447   -1.013434
     18          7           0       -3.120190    1.895851    0.843582
     19          1           0        3.636178    1.667212   -1.154185
     20          1           0        1.232452    2.273849   -1.476999
     21          1           0        0.062618   -1.033275    0.996037
     22          1           0        2.462196   -1.637414    1.311694
     23          1           0        6.372154   -0.005889   -0.083307
     24          1           0       -4.672888   -2.085922   -0.358195
     25          1           0       -2.681955   -2.728731   -1.483009
     26          1           0       -3.889929    1.939430    1.500404
     27          1           0       -2.275305    2.377760    1.116747
 ---------------------------------------------------------------------

 SCF Done:  E(UB3LYP) =  -890.098723521     A.U. after   31 cycles

 The electronic state is 2-A.
 Alpha  occ. eigenvalues --  -19.04751 -19.04012 -18.97664 -18.96679 -14.25592
 Alpha  occ. eigenvalues --  -14.20823 -14.20141 -10.15897 -10.15272 -10.13653
 Alpha  occ. eigenvalues --  -10.13473 -10.10038 -10.09025 -10.04936 -10.04657
 Alpha  occ. eigenvalues --  -10.04642 -10.04404 -10.04030  -0.97556  -0.97048
 Alpha  occ. eigenvalues --   -0.93412  -0.88065  -0.87290  -0.80766  -0.78660
 Alpha  occ. eigenvalues --   -0.73127  -0.65862  -0.62794  -0.62575  -0.56194
 Alpha  occ. eigenvalues --   -0.55241  -0.51514  -0.49014  -0.46658  -0.45836
 Alpha  occ. eigenvalues --   -0.45062  -0.42529  -0.39632  -0.38365  -0.37146
 Alpha  occ. eigenvalues --   -0.36128  -0.35235  -0.34155  -0.33509  -0.32184
 Alpha  occ. eigenvalues --   -0.31940  -0.31031  -0.30263  -0.29512  -0.28142
 Alpha  occ. eigenvalues --   -0.27662  -0.26184  -0.25244  -0.23716  -0.22253
 Alpha  occ. eigenvalues --   -0.20909  -0.19769  -0.18066  -0.17564  -0.15928
 Alpha  occ. eigenvalues --   -0.14875  -0.13508  -0.11812  -0.08935   0.03904
 Alpha virt. eigenvalues --    0.07106   0.07201   0.08293   0.08710   0.10051
 Alpha virt. eigenvalues --    0.10229   0.10558   0.11224   0.11434   0.12613
 Alpha virt. eigenvalues --    0.13045   0.13575   0.14170   0.15412   0.15849

  Beta  occ. eigenvalues --  -19.04780 -19.03961 -18.97612 -18.96464 -14.25399
  Beta  occ. eigenvalues --  -14.20780 -14.20217 -10.15840 -10.15054 -10.13486
  Beta  occ. eigenvalues --  -10.13285 -10.09725 -10.08876 -10.04841 -10.04701
  Beta  occ. eigenvalues --  -10.04701 -10.04271 -10.03909  -0.97325  -0.96939
  Beta  occ. eigenvalues --   -0.93240  -0.87740  -0.87086  -0.80599  -0.78496
  Beta  occ. eigenvalues --   -0.72874  -0.65504  -0.62471  -0.62325  -0.55778
  Beta  occ. eigenvalues --   -0.54981  -0.51227  -0.48867  -0.46507  -0.45675
  Beta  occ. eigenvalues --   -0.44878  -0.42357  -0.39440  -0.38217  -0.37030
  Beta  occ. eigenvalues --   -0.35852  -0.34858  -0.33822  -0.33306  -0.31719
  Beta  occ. eigenvalues --   -0.31187  -0.30881  -0.30207  -0.29303  -0.27817
  Beta  occ. eigenvalues --   -0.27389  -0.25618  -0.25026  -0.23211  -0.21949
  Beta  occ. eigenvalues --   -0.20625  -0.18899  -0.18044  -0.17019  -0.15830
  Beta  occ. eigenvalues --   -0.14658  -0.12936  -0.10754  -0.08102
  Beta virt. eigenvalues --    0.07086   0.08234   0.08388   0.08771   0.09527
  Beta virt. eigenvalues --    0.10033   0.10478   0.10768   0.11264   0.11682
  Beta virt. eigenvalues --    0.12575   0.13060   0.13537   0.14206   0.15475

 Mulliken charges and spin densities:
               1          2
     1  C   -0.453477   0.106030
     2  C   -0.313505  -0.014425
     3  C   -0.415593   0.133078
     4  C   -0.171021  -0.006066
     5  C   -0.262271   0.154612
     6  C    0.615303   0.007316
     7  C    0.133844   0.134059
     8  O   -0.411952   0.077041
     9  O   -0.227247   0.011611
    10  O   -0.036491  -0.013381
    11  C   -0.670987   0.048439
    12  C    0.561223   0.105976
    13  C   -0.019849   0.045241
    14  O   -0.447327   0.019622
    15  N   -0.275551   0.057128
    16  C    0.039311   0.165824
    17  N   -0.079465  -0.045685
    18  N   -0.420467   0.021338
    19  H    0.160713  -0.004558
    20  H    0.124747   0.002434
    21  H    0.151322   0.001338
    22  H    0.179121  -0.007780
    23  H    0.266707  -0.000563
    24  H    0.308946  -0.003568
    25  H    0.160081  -0.010719
    26  H    0.253315   0.005001
    27  H    0.250569   0.010658
 Sum of Mulliken charges =  -1.00000   1.00000

 Dipole moment (field-independent basis, Debye):
    X=             -1.9943    Y=             -0.0224    Z=             -1.1551  Tot=              2.3048
 Quadrupole moment (field-independent basis, Debye-Ang):
   XX=           -183.7310   YY=           -109.7291   ZZ=           -113.5322
   XY=             18.3264   XZ=             -0.8072   YZ=              5.4140

 Summary of Natural Population Analysis:

                                       Natural Population
                Natural  -----------------------------------------------
    Atom  No    Charge         Core      Valence    Rydberg      Total
 -----------------------------------------------------------------------
      C    1   -0.06013      0.99955     2.05204    0.00853     3.06013
      C    2   -0.14166      0.99953     2.13324    0.00888     3.14166
      C    3    0.21338      0.99936     1.77545    0.01180     2.78662
      C    4   -0.14634      0.99953     2.13883    0.00798     3.14634
      C    5   -0.04526      0.99956     2.03684    0.00887     3.04526
      C    6   -0.07892      0.99945     2.06974    0.00973     3.07892
      C    7    0.42098      0.99966     1.55478    0.02458     2.57902
      O    8   -0.31242      0.99987     3.30496    0.00758     4.31242
      O    9   -0.35412      0.99988     3.34842    0.00582     4.35412
      O   10   -0.27655      0.99984     3.26615    0.01057     4.27655
      C   11    0.25248      0.99938     1.73211    0.01603     2.74752
      C   12    0.02964      0.99944     1.95867    0.01226     2.97036
      C   13    0.31278      0.99962     1.66575    0.02185     2.68722
      O   14   -0.34577      0.99988     3.33823    0.00765     4.34577
      N   15   -0.27167      0.99967     2.76496    0.00705     3.77167
      C   16    0.16591      0.99969     1.81775    0.01664     2.83409
      N   17   -0.26926      0.99966     2.76016    0.00944     3.76926
      N   18   -0.39456      0.99971     2.88421    0.01064     3.89456
      H   19    0.10176      0.00000     0.39719    0.00106     0.39824
      H   20    0.10024      0.00000     0.39870    0.00106     0.39976
      H   21    0.10419      0.00000     0.39433    0.00147     0.39581
      H   22    0.10494      0.00000     0.39399    0.00107     0.39506
      H   23    0.23187      0.00000     0.26493    0.00320     0.26813
      H   24    0.19391      0.00000     0.30337    0.00272     0.30609
      H   25    0.08082      0.00000     0.41800    0.00118     0.41918
      H   26    0.19343      0.00000     0.30493    0.00164     0.30657
      H   27    0.19033      0.00000     0.30830    0.00137     0.30967
 =======================================================================
   * Total *    0.00000     17.99328    45.78603    0.22069    64.00000

 Normal termination of Gaussian 16 at Fri Dec 11 20:02:10 2020.
