 Gaussian 16, Revision A.03,

 -----------------------------------------------------------
 # opt freq B3LYP/6-31G(d) empiricaldispersion=gd3bj scf=xqc
 -----------------------------------------------------------

 ------------------------------
 CID_91569103_JID_6372_neutraal
 ------------------------------
 Symbolic Z-matrix:
 Charge =  0 Multiplicity = 1

 SCF Done:  E(RB3LYP) =  -674.956290269     A.U. after   15 cycles
 SCF Done:  E(RB3LYP) =  -674.962735416     A.U. after   12 cycles
 SCF Done:  E(RB3LYP) =  -674.964155364     A.U. after   12 cycles
 SCF Done:  E(RB3LYP) =  -674.964991647     A.U. after   14 cycles
 SCF Done:  E(RB3LYP) =  -674.966032509     A.U. after   13 cycles
 SCF Done:  E(RB3LYP) =  -674.966811987     A.U. after   14 cycles
 SCF Done:  E(RB3LYP) =  -674.967206773     A.U. after   11 cycles
 SCF Done:  E(RB3LYP) =  -674.967632964     A.U. after   12 cycles
 SCF Done:  E(RB3LYP) =  -674.967795448     A.U. after   11 cycles
 SCF Done:  E(RB3LYP) =  -674.967868033     A.U. after   11 cycles
 SCF Done:  E(RB3LYP) =  -674.968961498     A.U. after   11 cycles
 SCF Done:  E(RB3LYP) =  -674.968820324     A.U. after   11 cycles
 SCF Done:  E(RB3LYP) =  -674.968869616     A.U. after   10 cycles
 SCF Done:  E(RB3LYP) =  -674.968942964     A.U. after   11 cycles
 SCF Done:  E(RB3LYP) =  -674.968960250     A.U. after   10 cycles
 SCF Done:  E(RB3LYP) =  -674.968959956     A.U. after    6 cycles
 Optimization completed.
    -- Stationary point found.
 Normal termination of Gaussian 16 at Sun Dec 13 12:56:17 2020.

 --------------------------------------------------------------------
 #N Geom=AllCheck Guess=TCheck SCRF=Check GenChk RB3LYP/6-31G(d) Freq
 --------------------------------------------------------------------

 Structure from the checkpoint file:  "JID_6372.chk"
 ------------------------------
 CID_91569103_JID_6372_neutraal
 ------------------------------
 Charge =  0 Multiplicity = 1

 SCF Done:  E(RB3LYP) =  -674.968959956     A.U. after    1 cycles

  Exact polarizability: 247.748  14.346  97.854  -7.283  12.957 151.372
 Approx polarizability: 344.450  20.122 139.574 -18.195  31.302 265.103

 ******    1 imaginary frequencies (negative Signs) ******

                      1                      2                      3
                      A                      A                      A
 Frequencies --     -5.7699                21.3208                37.8161
 Red. masses --      3.6533                 2.8602                 2.9320
 Frc consts  --      0.0001                 0.0008                 0.0025
 IR Inten    --      0.1436                 0.7707                 1.7819

                      4                      5                      6
                      A                      A                      A
 Frequencies --     44.6902                64.7354                66.4167
 Red. masses --      2.7803                 2.8167                 1.7104
 Frc consts  --      0.0033                 0.0070                 0.0044
 IR Inten    --      0.6094                 0.3786                 0.0393

                      7                      8                      9
                      A                      A                      A
 Frequencies --     92.4972               102.3217               118.2313
 Red. masses --      1.7303                 2.7202                 2.1835
 Frc consts  --      0.0087                 0.0168                 0.0180
 IR Inten    --      1.5820                 0.4195                 2.9108

                     10                     11                     12
                      A                      A                      A
 Frequencies --    130.9619               151.3049               153.2304
 Red. masses --      1.7458                 1.3217                 4.3445
 Frc consts  --      0.0176                 0.0178                 0.0601
 IR Inten    --      1.1627                 1.7839                 1.3719

                     13                     14                     15
                      A                      A                      A
 Frequencies --    207.5304               253.2103               270.5047
 Red. masses --      1.7789                 2.9999                 3.2959
 Frc consts  --      0.0451                 0.1133                 0.1421
 IR Inten    --      1.6777                 5.8056                 1.7888

                     16                     17                     18
                      A                      A                      A
 Frequencies --    278.8698               284.5133               330.4587
 Red. masses --      4.6194                 3.5601                 1.0133
 Frc consts  --      0.2117                 0.1698                 0.0652
 IR Inten    --      8.7805                 0.9045                 0.2686

                     19                     20                     21
                      A                      A                      A
 Frequencies --    335.7109               427.3009               462.4345
 Red. masses --      4.0518                 3.1083                 2.6532
 Frc consts  --      0.2690                 0.3344                 0.3343
 IR Inten    --      1.4858                 4.1401                 1.3766

                     22                     23                     24
                      A                      A                      A
 Frequencies --    478.2075               497.5571               511.1473
 Red. masses --      3.1851                 3.0989                 4.6450
 Frc consts  --      0.4292                 0.4520                 0.7150
 IR Inten    --      4.7425                 9.6983                 1.5528

                     25                     26                     27
                      A                      A                      A
 Frequencies --    572.8139               652.6288               694.7498
 Red. masses --      7.0280                 6.3644                 4.5294
 Frc consts  --      1.3587                 1.5971                 1.2881
 IR Inten    --      8.1532                 2.8678                 8.0441

                     28                     29                     30
                      A                      A                      A
 Frequencies --    700.9589               754.0330               796.5087
 Red. masses --      6.7488                 1.4615                 5.3146
 Frc consts  --      1.9537                 0.4896                 1.9866
 IR Inten    --     13.8886                49.9007                 0.2910

                     31                     32                     33
                      A                      A                      A
 Frequencies --    808.3942               834.5618               836.7845
 Red. masses --      2.9557                 1.0572                 1.0573
 Frc consts  --      1.1380                 0.4338                 0.4362
 IR Inten    --      0.7251                 7.0968                 3.4236

                     34                     35                     36
                      A                      A                      A
 Frequencies --    855.8627               858.7181               889.2007
 Red. masses --      4.6043                 3.9305                 1.3279
 Frc consts  --      1.9871                 1.7077                 0.6186
 IR Inten    --      7.9250                 4.2357                 0.0429

                     37                     38                     39
                      A                      A                      A
 Frequencies --    952.8983               968.4777               978.9565
 Red. masses --      1.3992                 4.1153                 1.5382
 Frc consts  --      0.7486                 2.2742                 0.8685
 IR Inten    --      0.0928                94.5566                16.8848

                     40                     41                     42
                      A                      A                      A
 Frequencies --    992.3958               995.7705              1013.1083
 Red. masses --      1.3017                 1.5842                 3.2517
 Frc consts  --      0.7553                 0.9255                 1.9664
 IR Inten    --      0.0407                 2.5113                 0.1073

                     43                     44                     45
                      A                      A                      A
 Frequencies --   1050.0818              1094.0923              1117.4828
 Red. masses --      2.0841                 1.5058                 2.1156
 Frc consts  --      1.3540                 1.0620                 1.5565
 IR Inten    --      0.6832                15.5246                96.0843

                     46                     47                     48
                      A                      A                      A
 Frequencies --   1136.3189              1145.8333              1155.6507
 Red. masses --      1.2599                 1.5809                 3.7815
 Frc consts  --      0.9585                 1.2229                 2.9755
 IR Inten    --      8.6303               109.0220                52.9138

                     49                     50                     51
                      A                      A                      A
 Frequencies --   1178.3163              1185.2478              1194.3367
 Red. masses --      1.3735                 1.2085                 1.1190
 Frc consts  --      1.1236                 1.0003                 0.9404
 IR Inten    --     25.4725                 4.6002                 0.3526

                     52                     53                     54
                      A                      A                      A
 Frequencies --   1214.5351              1235.7607              1236.9425
 Red. masses --      2.2356                 1.5213                 1.6591
 Frc consts  --      1.9430                 1.3688                 1.4956
 IR Inten    --     16.5840                 3.7446                 9.2798

                     55                     56                     57
                      A                      A                      A
 Frequencies --   1239.0021              1274.3808              1323.4869
 Red. masses --      1.4597                 2.9596                 3.5304
 Frc consts  --      1.3202                 2.8319                 3.6434
 IR Inten    --      0.1280                41.0014               110.9471

                     58                     59                     60
                      A                      A                      A
 Frequencies --   1327.8294              1385.1771              1429.4766
 Red. masses --      1.5979                 5.2056                 1.3653
 Frc consts  --      1.6599                 5.8848                 1.6438
 IR Inten    --     24.6940                66.3643                21.3799

                     61                     62                     63
                      A                      A                      A
 Frequencies --   1430.7630              1453.2442              1455.0848
 Red. masses --      1.2072                 1.2952                 2.9312
 Frc consts  --      1.4560                 1.6117                 3.6565
 IR Inten    --      0.3525                 2.8582                31.3150

                     64                     65                     66
                      A                      A                      A
 Frequencies --   1475.5119              1496.5898              1498.5386
 Red. masses --      1.1495                 1.1749                 1.2374
 Frc consts  --      1.4745                 1.5504                 1.6371
 IR Inten    --      2.5084                 7.3751                76.8246

                     67                     68                     69
                      A                      A                      A
 Frequencies --   1508.2039              1512.1760              1519.8208
 Red. masses --      1.0816                 2.2439                 2.0034
 Frc consts  --      1.4496                 3.0231                 2.7265
 IR Inten    --      5.9678                11.0866                 3.6310

                     70                     71                     72
                      A                      A                      A
 Frequencies --   1525.5888              1530.2804              1532.9768
 Red. masses --      1.1017                 1.0430                 1.0321
 Frc consts  --      1.5108                 1.4391                 1.4290
 IR Inten    --     22.2102                 4.1137                 0.5399

                     73                     74                     75
                      A                      A                      A
 Frequencies --   1534.1354              1540.4357              1541.6591
 Red. masses --      1.0547                 1.0536                 1.0599
 Frc consts  --      1.4625                 1.4731                 1.4842
 IR Inten    --      8.1737                 6.0000                 6.4304

                     76                     77                     78
                      A                      A                      A
 Frequencies --   1555.9082              1646.1813              1665.7097
 Red. masses --      1.1839                 6.3066                 6.5892
 Frc consts  --      1.6887                10.0694                10.7717
 IR Inten    --      5.4834                39.2903                23.3714

                     79                     80                     81
                      A                      A                      A
 Frequencies --   1688.7692              1778.3311              3014.9488
 Red. masses --      6.6201                10.5128                 1.0478
 Frc consts  --     11.1238                19.5882                 5.6114
 IR Inten    --    824.5330               246.7462                50.3605

                     82                     83                     84
                      A                      A                      A
 Frequencies --   3020.1446              3030.1485              3045.4726
 Red. masses --      1.0540                 1.0584                 1.0404
 Frc consts  --      5.6642                 5.7258                 5.6854
 IR Inten    --    104.4652                49.6054                24.9802

                     85                     86                     87
                      A                      A                      A
 Frequencies --   3050.4209              3056.3686              3081.4507
 Red. masses --      1.0372                 1.1008                 1.0926
 Frc consts  --      5.6865                 6.0586                 6.1128
 IR Inten    --     31.6733                18.8855                39.3402

                     88                     89                     90
                      A                      A                      A
 Frequencies --   3096.7359              3100.3926              3106.7806
 Red. masses --      1.0992                 1.0899                 1.1004
 Frc consts  --      6.2107                 6.1729                 6.2577
 IR Inten    --     14.2438                31.7321                12.6291

                     91                     92                     93
                      A                      A                      A
 Frequencies --   3129.1021              3136.0919              3155.9093
 Red. masses --      1.1014                 1.1016                 1.0988
 Frc consts  --      6.3537                 6.3836                 6.4479
 IR Inten    --     39.5231                56.2877                11.4814

                     94                     95                     96
                      A                      A                      A
 Frequencies --   3173.8769              3177.5249              3189.5451
 Red. masses --      1.0882                 1.0865                 1.0893
 Frc consts  --      6.4583                 6.4635                 6.5290
 IR Inten    --      3.6633                 3.1413                14.9231

                     97                     98                     99
                      A                      A                      A
 Frequencies --   3198.5454              3202.3244              3213.7083
 Red. masses --      1.0947                 1.0931                 1.0955
 Frc consts  --      6.5987                 6.6047                 6.6663
 IR Inten    --      6.5640                28.3737                23.6547

 - Thermochemistry -
 -------------------
 Temperature   298.150 Kelvin.  Pressure   1.00000 Atm.
 Atom     1 has atomic number  6 and mass  12.00000

 Molecular mass:   217.14666 amu.
 Principal axes and moments of inertia in atomic units:
                           1         2         3
     Eigenvalues --  2248.204346042.226016230.24100
           X            1.00000  -0.00060  -0.00161
           Y            0.00039   0.99184  -0.12751
           Z            0.00168   0.12751   0.99184
 This molecule is an asymmetric top.
 Rotational symmetry number  1.
 Warning -- assumption of classical behavior for rotation
           may cause significant error
 Rotational temperatures (Kelvin)      0.03853     0.01433     0.01390
 Rotational constants (GHZ):           0.80275     0.29869     0.28967
    1 imaginary frequencies ignored.
 Zero-point vibrational energy     792353.4 (Joules/Mol)
                                  189.37701 (Kcal/Mol)
 Warning -- explicit consideration of  24 degrees of freedom as
           vibrations may cause significant error
 Vibrational temperatures:     30.68    54.41    64.30    93.14    95.56
          (Kelvin)            133.08   147.22   170.11   188.42   217.69
                              220.46   298.59   364.31   389.20   401.23
                              409.35   475.46   483.01   614.79   665.34
                              688.03   715.87   735.43   824.15   938.99
                              999.59  1008.52  1084.89  1146.00  1163.10
                             1200.75  1203.95  1231.40  1235.50  1279.36
                             1371.01  1393.42  1408.50  1427.84  1432.69
                             1457.64  1510.83  1574.15  1607.81  1634.91
                             1648.60  1662.72  1695.33  1705.31  1718.38
                             1747.45  1777.98  1779.68  1782.65  1833.55
                             1904.20  1910.45  1992.96  2056.70  2058.55
                             2090.89  2093.54  2122.93  2153.26  2156.06
                             2169.97  2175.68  2186.68  2194.98  2201.73
                             2205.61  2207.28  2216.34  2218.10  2238.60
                             2368.49  2396.58  2429.76  2558.62  4337.84
                             4345.31  4359.71  4381.76  4388.88  4397.43
                             4433.52  4455.51  4460.77  4469.96  4502.08
                             4512.14  4540.65  4566.50  4571.75  4589.04
                             4601.99  4607.43  4623.81

 Zero-point correction=                           0.301791 (Hartree/Particle)
 Thermal correction to Energy=                    0.319053
 Thermal correction to Enthalpy=                  0.319997
 Thermal correction to Gibbs Free Energy=         0.254547
 Sum of electronic and zero-point Energies=           -674.667168
 Sum of electronic and thermal Energies=              -674.649907
 Sum of electronic and thermal Enthalpies=            -674.648963
 Sum of electronic and thermal Free Energies=         -674.714413

                     E (Thermal)             CV                S
                      KCal/Mol        Cal/Mol-Kelvin    Cal/Mol-Kelvin
 Total                  200.209             61.743            137.750
 Electronic               0.000              0.000              0.000
 Translational            0.889              2.981             42.029
 Rotational               0.889              2.981             32.803
 Vibrational            198.431             55.782             62.918
 Vibration     1          0.593              1.985              6.507
 Vibration     2          0.594              1.982              5.370
 Vibration     3          0.595              1.980              5.040
 Vibration     4          0.597              1.971              4.307
 Vibration     5          0.598              1.970              4.257
 Vibration     6          0.602              1.955              3.607
 Vibration     7          0.604              1.947              3.410
 Vibration     8          0.608              1.934              3.129
 Vibration     9          0.612              1.922              2.932
 Vibration    10          0.619              1.901              2.656
 Vibration    11          0.619              1.899              2.632
 Vibration    12          0.641              1.829              2.065
 Vibration    13          0.664              1.757              1.708
 Vibration    14          0.674              1.728              1.593
 Vibration    15          0.679              1.713              1.541
 Vibration    16          0.683              1.702              1.506
 Vibration    17          0.713              1.615              1.258
 Vibration    18          0.717              1.604              1.232
 Vibration    19          0.789              1.411              0.868
 Vibration    20          0.820              1.333              0.759
 Vibration    21          0.835              1.298              0.715
 Vibration    22          0.853              1.255              0.664
 Vibration    23          0.866              1.225              0.631
 Vibration    24          0.929              1.090              0.499

                           ! Non-Optimized Parameters !
 Normal termination of Gaussian 16 at Sun Dec 13 13:08:26 2020.

 ----------------------------------------------------------------------
 # B3LYP/6-311++G(d,p) empiricaldispersion=gd3bj scf=xqc pop=npa geom=c
 heck
 ----------------------------------------------------------------------

 --------------------------------------
 CID_91569103_JID_6372_Energie_neutraal
 --------------------------------------
 Structure from the checkpoint file:  "JID_6372.chk"
 Charge =  0 Multiplicity = 1

 SCF Done:  E(RB3LYP) =  -675.151571934     A.U. after   16 cycles
 Normal termination of Gaussian 16 at Sun Dec 13 13:15:02 2020.

 ----------------------------------------------------------------------
 # B3LYP/6-311++G(d,p) empiricaldispersion=gd3bj scf=xqc pop=npa geom=c
 heck
 ----------------------------------------------------------------------

 ------------------------------------
 CID_91569103_JID_6372_Energie_kation
 ------------------------------------
 Structure from the checkpoint file:  "JID_6372.chk"
 Charge =  1 Multiplicity = 2

 SCF Done:  E(UB3LYP) =  -674.879570130     A.U. after   24 cycles
 Normal termination of Gaussian 16 at Sun Dec 13 13:29:49 2020.
 Gaussian 16:  ES64L-G16RevA.03 25-Dec-2016

 ----------------------------------------------------------------------
 # B3LYP/6-311++G(d,p) empiricaldispersion=gd3bj scf=xqc pop=npa geom=c
 heck
 ----------------------------------------------------------------------

 -----------------------------------
 CID_91569103_JID_6372_Energie_anion
 -----------------------------------
 Structure from the checkpoint file:  "JID_6372.chk"
 Charge = -1 Multiplicity = 2

                         Standard orientation:
 ---------------------------------------------------------------------
 Center     Atomic      Atomic             Coordinates (Angstroms)
 Number     Number       Type             X           Y           Z
 ---------------------------------------------------------------------
      1          6           0       -0.718113    2.984109   -0.220288
      2          6           0       -2.034855    2.765701   -0.967131
      3          6           0       -2.979486   -0.434058    1.775821
      4          7           0       -2.959835   -0.732817    0.354801
      5          6           0       -4.198244   -1.271143   -0.183799
      6          6           0       -1.810497   -0.840122   -0.363424
      7          6           0       -0.510417   -0.615735   -0.038698
      8          6           0        0.186117   -0.216990    1.250031
      9          6           0        1.648392   -0.167126    0.850069
     10          6           0        2.759286    0.146377    1.628683
     11          6           0        4.022399    0.136594    1.030358
     12          6           0        4.177759   -0.180230   -0.327191
     13          6           0        3.066174   -0.493023   -1.106837
     14          6           0        1.810018   -0.481672   -0.502723
     15          6           0        0.487624   -0.776187   -1.116632
     16          8           0        0.287002   -1.091550   -2.287755
     17          1           0       -0.254100    3.938419   -0.494195
     18          1           0       -0.001724    2.187966   -0.445091
     19          1           0       -0.877089    2.995162    0.865257
     20          1           0       -2.746735    3.575624   -0.767955
     21          1           0       -1.872096    2.724293   -2.049859
     22          1           0       -2.505492    1.823071   -0.669390
     23          1           0       -3.923256    0.062222    2.024188
     24          1           0       -2.163622    0.238820    2.032331
     25          1           0       -2.898315   -1.345335    2.387020
     26          1           0       -4.098155   -1.417687   -1.260843
     27          1           0       -4.454439   -2.236894    0.277332
     28          1           0       -5.024201   -0.574001   -0.000004
     29          1           0       -1.965457   -1.133748   -1.400434
     30          1           0       -0.128432    0.765905    1.624824
     31          1           0        0.023716   -0.934064    2.066448
     32          1           0        2.652431    0.395649    2.681689
     33          1           0        4.898440    0.379118    1.625953
     34          1           0        5.170768   -0.179793   -0.767896
     35          1           0        3.153643   -0.741571   -2.160385
 ---------------------------------------------------------------------

 SCF Done:  E(UB3LYP) =  -675.157296732     A.U. after   30 cycles

 The electronic state is 2-A.
 Alpha  occ. eigenvalues --  -18.92224 -14.22279 -10.09861 -10.09557 -10.07090
 Alpha  occ. eigenvalues --  -10.06409 -10.05573 -10.05450 -10.05430 -10.04735
 Alpha  occ. eigenvalues --  -10.04629 -10.04246 -10.04080 -10.03328 -10.02539
 Alpha  occ. eigenvalues --  -10.02013  -0.85735  -0.83834  -0.73563  -0.67955
 Alpha  occ. eigenvalues --   -0.65008  -0.62729  -0.62174  -0.61895  -0.57256
 Alpha  occ. eigenvalues --   -0.53856  -0.51353  -0.50143  -0.45631  -0.43999
 Alpha  occ. eigenvalues --   -0.40989  -0.38337  -0.36664  -0.36085  -0.34362
 Alpha  occ. eigenvalues --   -0.33559  -0.33341  -0.31846  -0.31420  -0.31044
 Alpha  occ. eigenvalues --   -0.30379  -0.30107  -0.29221  -0.28291  -0.27133
 Alpha  occ. eigenvalues --   -0.26628  -0.25332  -0.24636  -0.24121  -0.23988
 Alpha  occ. eigenvalues --   -0.23063  -0.22292  -0.21844  -0.20700  -0.19037
 Alpha  occ. eigenvalues --   -0.12671  -0.11918  -0.08697  -0.07431   0.04065
 Alpha virt. eigenvalues --    0.06342   0.07843   0.08242   0.08557   0.09469
 Alpha virt. eigenvalues --    0.09883   0.10278   0.10841   0.11258   0.11510
 Alpha virt. eigenvalues --    0.12051   0.12386   0.12821   0.13378   0.13765

  Beta  occ. eigenvalues --  -18.91924 -14.22183 -10.09839 -10.09541 -10.06867
  Beta  occ. eigenvalues --  -10.06110 -10.05573 -10.05448 -10.05420 -10.04706
  Beta  occ. eigenvalues --  -10.04701 -10.04213 -10.03865 -10.03131 -10.02518
  Beta  occ. eigenvalues --  -10.02123  -0.85178  -0.83586  -0.73362  -0.67769
  Beta  occ. eigenvalues --   -0.65004  -0.62425  -0.62111  -0.61561  -0.57175
  Beta  occ. eigenvalues --   -0.53617  -0.51347  -0.49737  -0.45504  -0.43788
  Beta  occ. eigenvalues --   -0.40824  -0.38215  -0.36429  -0.35924  -0.34133
  Beta  occ. eigenvalues --   -0.33525  -0.33335  -0.31719  -0.31309  -0.30936
  Beta  occ. eigenvalues --   -0.30287  -0.30048  -0.29161  -0.28222  -0.26909
  Beta  occ. eigenvalues --   -0.26623  -0.25190  -0.24413  -0.24101  -0.23356
  Beta  occ. eigenvalues --   -0.22850  -0.21732  -0.21263  -0.20629  -0.17984
  Beta  occ. eigenvalues --   -0.11903  -0.11042  -0.08440  -0.06750
  Beta virt. eigenvalues --    0.06476   0.07852   0.08166   0.08588   0.08963
  Beta virt. eigenvalues --    0.09703   0.09983   0.10326   0.10838   0.11376
  Beta virt. eigenvalues --    0.11516   0.12006   0.12480   0.12891   0.13383

 Mulliken charges and spin densities:
               1          2
     1  C   -0.407559  -0.024814
     2  C   -0.485725   0.025399
     3  C    0.179976  -0.511159
     4  N   -0.062010   0.185384
     5  C    0.173692  -0.483321
     6  C    0.005720   0.206133
     7  C    0.375875  -0.004136
     8  C   -0.119531  -0.120603
     9  C   -0.169186   0.057348
    10  C   -0.170710   0.011078
    11  C   -0.361523   0.165155
    12  C   -0.275056  -0.054158
    13  C    0.023093   0.209960
    14  C   -0.116639   0.064065
    15  C   -0.836056   0.142490
    16  O   -0.406636   0.120093
    17  H    0.122824  -0.002696
    18  H    0.182663   0.003679
    19  H    0.095905   0.008942
    20  H    0.092928   0.008494
    21  H    0.116128   0.000379
    22  H    0.250096  -0.026744
    23  H    0.087850   0.043752
    24  H    0.164801  -0.000662
    25  H   -0.247155   0.413821
    26  H    0.061478   0.052441
    27  H   -0.267582   0.424800
    28  H    0.026308   0.095881
    29  H    0.255562  -0.035567
    30  H    0.095101  -0.033932
    31  H    0.114832   0.070022
    32  H    0.105721   0.010549
    33  H    0.111992  -0.014823
    34  H    0.118068   0.004623
    35  H    0.164756  -0.011872
 Sum of Mulliken charges =  -1.00000   1.00000

 Dipole moment (field-independent basis, Debye):
    X=             -1.2905    Y=              4.5705    Z=              2.7942  Tot=              5.5102
 Quadrupole moment (field-independent basis, Debye-Ang):
   XX=           -140.8099   YY=           -124.9875   ZZ=           -123.8589
   XY=             -7.7258   XZ=              4.3136   YZ=             -0.1059

 Summary of Natural Population Analysis:

                                       Natural Population
                Natural  -----------------------------------------------
    Atom  No    Charge         Core      Valence    Rydberg      Total
 -----------------------------------------------------------------------
      C    1   -0.28691      0.99968     2.28310    0.00413     3.28691
      C    2   -0.28761      0.99968     2.28400    0.00393     3.28761
      C    3   -0.17404      0.99964     2.16680    0.00760     3.17404
      N    4   -0.22896      0.99968     2.71999    0.00930     3.72896
      C    5   -0.16831      0.99964     2.16116    0.00750     3.16831
      C    6    0.10372      0.99947     1.88414    0.01267     2.89628
      C    7   -0.14404      0.99950     2.13425    0.01029     3.14404
      C    8   -0.20690      0.99959     2.19910    0.00822     3.20690
      C    9    0.01252      0.99949     1.97776    0.01024     2.98748
      C   10   -0.11105      0.99951     2.10331    0.00822     3.11105
      C   11   -0.06170      0.99958     2.05303    0.00908     3.06170
      C   12   -0.12959      0.99958     2.12117    0.00884     3.12959
      C   13   -0.04760      0.99953     2.03966    0.00841     3.04760
      C   14   -0.05808      0.99942     2.04722    0.01144     3.05808
      C   15    0.28060      0.99953     1.69620    0.02367     2.71940
      O   16   -0.29540      0.99988     3.29002    0.00550     4.29540
      H   17    0.08844      0.00000     0.41059    0.00097     0.41156
      H   18    0.11060      0.00000     0.38843    0.00097     0.38940
      H   19    0.08997      0.00000     0.40918    0.00085     0.41003
      H   20    0.08538      0.00000     0.41371    0.00090     0.41462
      H   21    0.09556      0.00000     0.40363    0.00081     0.40444
      H   22    0.10509      0.00000     0.39322    0.00169     0.39491
      H   23    0.08921      0.00000     0.40991    0.00088     0.41079
      H   24    0.10131      0.00000     0.39763    0.00106     0.39869
      H   25    0.09182      0.00000     0.40616    0.00202     0.40818
      H   26    0.09954      0.00000     0.39970    0.00076     0.40046
      H   27    0.09005      0.00000     0.40745    0.00250     0.40995
      H   28    0.08654      0.00000     0.41255    0.00092     0.41346
      H   29    0.10118      0.00000     0.39718    0.00164     0.39882
      H   30    0.09665      0.00000     0.40189    0.00146     0.40335
      H   31    0.10201      0.00000     0.39667    0.00132     0.39799
      H   32    0.09111      0.00000     0.40757    0.00131     0.40889
      H   33    0.08760      0.00000     0.41140    0.00100     0.41240
      H   34    0.09112      0.00000     0.40790    0.00099     0.40888
      H   35    0.10019      0.00000     0.39831    0.00151     0.39981
 =======================================================================
   * Total *   -0.00000     15.99339    42.83401    0.17260    59.00000

 Normal termination of Gaussian 16 at Sun Dec 13 13:46:50 2020.
