 Gaussian 16, Revision A.03,

 -----------------------------------------------------------
 # opt freq B3LYP/6-31G(d) empiricaldispersion=gd3bj scf=xqc
 -----------------------------------------------------------

 ------------------------------
 CID_23327261_JID_6269_neutraal
 ------------------------------
 Symbolic Z-matrix:
 Charge =  0 Multiplicity = 1

 SCF Done:  E(RB3LYP) =  -673.766414525     A.U. after   14 cycles
 SCF Done:  E(RB3LYP) =  -673.771721384     A.U. after   11 cycles
 SCF Done:  E(RB3LYP) =  -673.772383662     A.U. after   10 cycles
 SCF Done:  E(RB3LYP) =  -673.772594968     A.U. after   10 cycles
 SCF Done:  E(RB3LYP) =  -673.772674040     A.U. after   10 cycles
 SCF Done:  E(RB3LYP) =  -673.772738667     A.U. after   11 cycles
 SCF Done:  E(RB3LYP) =  -673.772754364     A.U. after   10 cycles
 SCF Done:  E(RB3LYP) =  -673.772757275     A.U. after    8 cycles
 SCF Done:  E(RB3LYP) =  -673.772757804     A.U. after    7 cycles
 SCF Done:  E(RB3LYP) =  -673.772757885     A.U. after    7 cycles
 Optimization completed.
    -- Stationary point found.
 Normal termination of Gaussian 16 at Thu Dec 10 21:56:05 2020.

 --------------------------------------------------------------------
 #N Geom=AllCheck Guess=TCheck SCRF=Check GenChk RB3LYP/6-31G(d) Freq
 --------------------------------------------------------------------

 Structure from the checkpoint file:  "JID_6269.chk"
 ------------------------------
 CID_23327261_JID_6269_neutraal
 ------------------------------
 Charge =  0 Multiplicity = 1

 SCF Done:  E(RB3LYP) =  -673.772757885     A.U. after    1 cycles

  Exact polarizability: 190.333  -1.396 123.693   7.512  18.677 121.056
 Approx polarizability: 266.456  -1.166 184.523  18.003  45.477 209.266

                      1                      2                      3
                      A                      A                      A
 Frequencies --     75.9021               129.9202               169.2701
 Red. masses --      4.2485                 3.6606                 2.9236
 Frc consts  --      0.0144                 0.0364                 0.0494
 IR Inten    --      1.2519                 0.6926                 1.3443

                      4                      5                      6
                      A                      A                      A
 Frequencies --    188.7068               213.7389               219.1989
 Red. masses --      1.0832                 2.0309                 1.2100
 Frc consts  --      0.0227                 0.0547                 0.0343
 IR Inten    --      0.3175                 2.3244                 1.5732

                      7                      8                      9
                      A                      A                      A
 Frequencies --    227.4961               259.3688               280.1554
 Red. masses --      2.0008                 3.1368                 3.5471
 Frc consts  --      0.0610                 0.1243                 0.1640
 IR Inten    --      2.3097                11.9058                 0.3646

                     10                     11                     12
                      A                      A                      A
 Frequencies --    302.7034               313.5350               337.8943
 Red. masses --      1.2327                 3.3142                 3.5736
 Frc consts  --      0.0665                 0.1920                 0.2404
 IR Inten    --     79.6580                24.2009                 4.5962

                     13                     14                     15
                      A                      A                      A
 Frequencies --    389.4407               404.2275               434.9209
 Red. masses --      3.1349                 3.0574                 3.3810
 Frc consts  --      0.2801                 0.2943                 0.3768
 IR Inten    --      7.5743                 5.3622                 5.3106

                     16                     17                     18
                      A                      A                      A
 Frequencies --    463.2480               508.2544               551.8552
 Red. masses --      2.9777                 3.3618                 5.6026
 Frc consts  --      0.3765                 0.5117                 1.0053
 IR Inten    --      2.6960                 2.1183                 1.6710

                     19                     20                     21
                      A                      A                      A
 Frequencies --    564.8825               569.1549               615.5686
 Red. masses --      4.0884                 4.0899                 5.6654
 Frc consts  --      0.7686                 0.7806                 1.2648
 IR Inten    --      1.0308                 0.5018                 2.3065

                     22                     23                     24
                      A                      A                      A
 Frequencies --    653.2180               692.5267               707.5504
 Red. masses --      4.3693                 4.8189                 4.8052
 Frc consts  --      1.0984                 1.3617                 1.4173
 IR Inten    --      3.8200                 5.0162                 0.2339

                     25                     26                     27
                      A                      A                      A
 Frequencies --    757.0684               764.2445               793.8329
 Red. masses --      1.3611                 3.5004                 3.5374
 Frc consts  --      0.4596                 1.2046                 1.3134
 IR Inten    --     50.1686                 6.5723                 2.0084

                     28                     29                     30
                      A                      A                      A
 Frequencies --    808.7779               817.5167               854.0292
 Red. masses --      1.8062                 2.7426                 1.5207
 Frc consts  --      0.6961                 1.0800                 0.6535
 IR Inten    --      6.4406                 9.6415                 0.9518

                     31                     32                     33
                      A                      A                      A
 Frequencies --    866.1859               892.1199               911.7376
 Red. masses --      3.7738                 2.2773                 1.9429
 Frc consts  --      1.6682                 1.0678                 0.9515
 IR Inten    --      1.8721                11.8878                 1.0003

                     34                     35                     36
                      A                      A                      A
 Frequencies --    927.4303               935.0698               949.6453
 Red. masses --      1.4781                 1.7886                 3.0814
 Frc consts  --      0.7490                 0.9214                 1.6373
 IR Inten    --      6.6388                 1.0062                16.7377

                     37                     38                     39
                      A                      A                      A
 Frequencies --    958.6144               961.0210               995.2882
 Red. masses --      2.2110                 1.2713                 2.7560
 Frc consts  --      1.1971                 0.6917                 1.6085
 IR Inten    --     22.2285                 1.6566                 5.8049

                     40                     41                     42
                      A                      A                      A
 Frequencies --   1007.2488              1026.1680              1066.3644
 Red. masses --      2.4482                 2.1409                 2.2576
 Frc consts  --      1.4634                 1.3282                 1.5125
 IR Inten    --     42.8047                30.6232                 0.4010

                     43                     44                     45
                      A                      A                      A
 Frequencies --   1089.8366              1117.0873              1140.1005
 Red. masses --      1.5445                 1.7898                 1.6753
 Frc consts  --      1.0808                 1.3159                 1.2830
 IR Inten    --      9.4185                 9.7365                13.5475

                     46                     47                     48
                      A                      A                      A
 Frequencies --   1151.1966              1174.8549              1191.5130
 Red. masses --      1.9601                 1.7797                 1.0939
 Frc consts  --      1.5305                 1.4473                 0.9150
 IR Inten    --      8.8916                 0.5790                 3.0401

                     49                     50                     51
                      A                      A                      A
 Frequencies --   1196.4997              1212.7423              1221.6881
 Red. masses --      2.2048                 1.7038                 2.4729
 Frc consts  --      1.8597                 1.4764                 2.1746
 IR Inten    --     22.9810                 1.5028                11.7545

                     52                     53                     54
                      A                      A                      A
 Frequencies --   1242.7005              1250.9361              1280.8814
 Red. masses --      2.0112                 2.0651                 1.5604
 Frc consts  --      1.8300                 1.9040                 1.5083
 IR Inten    --      1.9257                 7.0113                 3.5839

                     55                     56                     57
                      A                      A                      A
 Frequencies --   1289.8357              1298.3881              1309.9280
 Red. masses --      1.6060                 1.6891                 1.6624
 Frc consts  --      1.5743                 1.6777                 1.6806
 IR Inten    --     12.2133                 1.5642                 1.7036

                     58                     59                     60
                      A                      A                      A
 Frequencies --   1321.2857              1330.8958              1361.3943
 Red. masses --      2.2941                 2.2610                 2.0361
 Frc consts  --      2.3597                 2.3596                 2.2234
 IR Inten    --     72.6928                 8.0904                 8.5298

                     61                     62                     63
                      A                      A                      A
 Frequencies --   1364.5915              1384.6252              1404.2900
 Red. masses --      1.8461                 2.5593                 1.5844
 Frc consts  --      2.0254                 2.8909                 1.8409
 IR Inten    --      0.8189                12.1774                23.4456

                     64                     65                     66
                      A                      A                      A
 Frequencies --   1439.3856              1445.1752              1486.3169
 Red. masses --      1.4005                 1.2895                 1.7283
 Frc consts  --      1.7096                 1.5868                 2.2495
 IR Inten    --     14.5117                 3.7793                 0.9380

                     67                     68                     69
                      A                      A                      A
 Frequencies --   1508.0685              1514.5332              1524.3663
 Red. masses --      1.0840                 1.0612                 1.0553
 Frc consts  --      1.4526                 1.4342                 1.4448
 IR Inten    --      0.2918                 4.6878                 1.6265

                     70                     71                     72
                      A                      A                      A
 Frequencies --   1525.7627              1527.6252              1534.5197
 Red. masses --      1.1063                 1.0564                 1.1133
 Frc consts  --      1.5174                 1.4525                 1.5446
 IR Inten    --      6.1731                 1.6937                 6.5780

                     73                     74                     75
                      A                      A                      A
 Frequencies --   1538.9428              1546.4003              1646.7026
 Red. masses --      2.1404                 2.5308                 5.5686
 Frc consts  --      2.9867                 3.5658                 8.8967
 IR Inten    --     90.2041                50.0860                 3.9974

                     76                     77                     78
                      A                      A                      A
 Frequencies --   1675.2028              3047.8187              3052.8616
 Red. masses --      6.1865                 1.0396                 1.0424
 Frc consts  --     10.2289                 5.6895                 5.7241
 IR Inten    --     96.0842                19.0236                 2.2301

                     79                     80                     81
                      A                      A                      A
 Frequencies --   3056.7975              3065.3584              3073.2007
 Red. masses --      1.0562                 1.0647                 1.0865
 Frc consts  --      5.8147                 5.8945                 6.0458
 IR Inten    --     59.8296                31.3138                48.0086

                     82                     83                     84
                      A                      A                      A
 Frequencies --   3080.1430              3098.0959              3106.1082
 Red. masses --      1.0849                 1.1043                 1.1014
 Frc consts  --      6.0645                 6.2448                 6.2610
 IR Inten    --     49.3084                 8.4713                29.9485

                     85                     86                     87
                      A                      A                      A
 Frequencies --   3122.5342              3126.7602              3129.8184
 Red. masses --      1.1018                 1.1020                 1.1023
 Frc consts  --      6.3292                 6.3480                 6.3618
 IR Inten    --      7.0377                42.5057                23.7316

                     88                     89                     90
                      A                      A                      A
 Frequencies --   3142.6119              3171.5477              3176.4161
 Red. masses --      1.0991                 1.0864                 1.0887
 Frc consts  --      6.3955                 6.4384                 6.4716
 IR Inten    --     20.2236                15.7669                 3.9034

                     91                     92                     93
                      A                      A                      A
 Frequencies --   3191.3608              3210.3521              3617.7986
 Red. masses --      1.0916                 1.0964                 1.0764
 Frc consts  --      6.5503                 6.6576                 8.3005
 IR Inten    --     30.0695                31.0206                12.9346

 - Thermochemistry -
 -------------------
 Temperature   298.150 Kelvin.  Pressure   1.00000 Atm.
 Atom     1 has atomic number  6 and mass  12.00000

 Molecular mass:   215.13101 amu.
 Principal axes and moments of inertia in atomic units:
                           1         2         3
     Eigenvalues --  1657.863833964.194504350.45102
           X            0.99999   0.00261   0.00233
           Y           -0.00262   0.99998   0.00581
           Z           -0.00231  -0.00582   0.99998
 This molecule is an asymmetric top.
 Rotational symmetry number  1.
 Warning -- assumption of classical behavior for rotation
           may cause significant error
 Rotational temperatures (Kelvin)      0.05224     0.02185     0.01991
 Rotational constants (GHZ):           1.08859     0.45526     0.41484
 Zero-point vibrational energy     749358.5 (Joules/Mol)
                                  179.10098 (Kcal/Mol)
 Warning -- explicit consideration of  21 degrees of freedom as
           vibrations may cause significant error
 Vibrational temperatures:    109.21   186.93   243.54   271.51   307.52
          (Kelvin)            315.38   327.32   373.17   403.08   435.52
                              451.11   486.15   560.32   581.59   625.75
                              666.51   731.26   794.00   812.74   818.89
                              885.67   939.84   996.39  1018.01  1089.25
                             1099.58  1142.15  1163.65  1176.22  1228.76
                             1246.25  1283.56  1311.79  1334.37  1345.36
                             1366.33  1379.23  1382.69  1432.00  1449.21
                             1476.43  1534.26  1568.03  1607.24  1640.35
                             1656.32  1690.35  1714.32  1721.50  1744.87
                             1757.74  1787.97  1799.82  1842.90  1855.79
                             1868.09  1884.69  1901.04  1914.86  1958.74
                             1963.34  1992.17  2020.46  2070.95  2079.28
                             2138.48  2169.77  2179.08  2193.22  2195.23
                             2197.91  2207.83  2214.20  2224.93  2369.24
                             2410.24  4385.13  4392.39  4398.05  4410.37
                             4421.65  4431.64  4457.47  4469.00  4492.63
                             4498.71  4503.11  4521.52  4563.15  4570.15
                             4591.66  4618.98  5205.21

 Zero-point correction=                           0.285416 (Hartree/Particle)
 Thermal correction to Energy=                    0.298395
 Thermal correction to Enthalpy=                  0.299340
 Thermal correction to Gibbs Free Energy=         0.247530
 Sum of electronic and zero-point Energies=           -673.487342
 Sum of electronic and thermal Energies=              -673.474363
 Sum of electronic and thermal Enthalpies=            -673.473418
 Sum of electronic and thermal Free Energies=         -673.525228

                     E (Thermal)             CV                S
                      KCal/Mol        Cal/Mol-Kelvin    Cal/Mol-Kelvin
 Total                  187.246             54.940            109.042
 Electronic               0.000              0.000              0.000
 Translational            0.889              2.981             42.002
 Rotational               0.889              2.981             31.725
 Vibrational            185.468             48.978             35.315
 Vibration     1          0.599              1.965              3.994
 Vibration     2          0.612              1.923              2.947
 Vibration     3          0.625              1.880              2.444
 Vibration     4          0.633              1.855              2.240
 Vibration     5          0.644              1.820              2.012
 Vibration     6          0.647              1.812              1.966
 Vibration     7          0.651              1.799              1.899
 Vibration     8          0.668              1.747              1.666
 Vibration     9          0.680              1.710              1.533
 Vibration    10          0.694              1.669              1.402
 Vibration    11          0.701              1.648              1.344
 Vibration    12          0.718              1.600              1.222
 Vibration    13          0.757              1.493              1.002
 Vibration    14          0.769              1.461              0.947
 Vibration    15          0.796              1.394              0.843
 Vibration    16          0.821              1.332              0.757
 Vibration    17          0.863              1.232              0.638
 Vibration    18          0.907              1.136              0.540
 Vibration    19          0.921              1.107              0.514
 Vibration    20          0.925              1.098              0.506
 Vibration    21          0.975              0.999              0.424

 Optimization completed.
    -- Stationary point found.
 Normal termination of Gaussian 16 at Thu Dec 10 22:09:15 2020.

 ----------------------------------------------------------------------
 # B3LYP/6-311++G(d,p) empiricaldispersion=gd3bj scf=xqc pop=npa geom=c
 heck
 ----------------------------------------------------------------------

 --------------------------------------
 CID_23327261_JID_6269_Energie_neutraal
 --------------------------------------
 Structure from the checkpoint file:  "JID_6269.chk"
 Charge =  0 Multiplicity = 1

 SCF Done:  E(RB3LYP) =  -673.950130885     A.U. after   15 cycles
 Normal termination of Gaussian 16 at Thu Dec 10 22:14:26 2020.

 ----------------------------------------------------------------------
 # B3LYP/6-311++G(d,p) empiricaldispersion=gd3bj scf=xqc pop=npa geom=c
 heck
 ----------------------------------------------------------------------

 ------------------------------------
 CID_23327261_JID_6269_Energie_kation
 ------------------------------------
 Structure from the checkpoint file:  "JID_6269.chk"
 Charge =  1 Multiplicity = 2

 SCF Done:  E(UB3LYP) =  -673.691052018     A.U. after   20 cycles
 Normal termination of Gaussian 16 at Thu Dec 10 22:24:02 2020.
 Gaussian 16:  ES64L-G16RevA.03 25-Dec-2016

 ----------------------------------------------------------------------
 # B3LYP/6-311++G(d,p) empiricaldispersion=gd3bj scf=xqc pop=npa geom=c
 heck
 ----------------------------------------------------------------------

 -----------------------------------
 CID_23327261_JID_6269_Energie_anion
 -----------------------------------
 Structure from the checkpoint file:  "JID_6269.chk"
 Charge = -1 Multiplicity = 2

                         Standard orientation:
 ---------------------------------------------------------------------
 Center     Atomic      Atomic             Coordinates (Angstroms)
 Number     Number       Type             X           Y           Z
 ---------------------------------------------------------------------
      1          6           0        0.474348   -2.236836    1.213601
      2          6           0        1.069109   -1.125356    0.367441
      3          6           0        2.537845   -1.359223   -0.062949
      4          6           0        3.069041    0.061238   -0.415656
      5          6           0        1.797901    0.911147   -0.279123
      6          6           0        1.135084    0.294595    0.979482
      7          7           0       -0.174085    0.791249    1.351221
      8          6           0       -1.305113    0.477338    0.602775
      9          6           0       -2.578492    0.935459    0.961981
     10          6           0       -3.694326    0.540768    0.223315
     11          6           0       -3.563636   -0.323381   -0.864061
     12          6           0       -2.289987   -0.775677   -1.222562
     13          6           0       -1.165047   -0.374313   -0.513943
     14          6           0        0.249795   -0.730233   -0.884423
     15          8           0        0.910839    0.477918   -1.344466
     16          6           0        1.944775    2.411525   -0.348548
     17          1           0        1.090467   -2.412276    2.102937
     18          1           0        0.433360   -3.174557    0.646044
     19          1           0       -0.540232   -1.997758    1.542035
     20          1           0        3.103746   -1.810394    0.759467
     21          1           0        2.590755   -2.050214   -0.910912
     22          1           0        3.462236    0.132800   -1.432991
     23          1           0        3.853038    0.389514    0.277125
     24          1           0        1.792409    0.343744    1.854437
     25          1           0       -0.205528    1.646843    1.886317
     26          1           0       -2.692287    1.589813    1.823274
     27          1           0       -4.675983    0.908624    0.509953
     28          1           0       -4.436105   -0.631252   -1.431856
     29          1           0       -2.163480   -1.433110   -2.079948
     30          1           0        0.290839   -1.482111   -1.680188
     31          1           0        2.643107    2.769675    0.416289
     32          1           0        2.324678    2.712975   -1.329962
     33          1           0        0.973081    2.893297   -0.198829
 ---------------------------------------------------------------------

 SCF Done:  E(UB3LYP) =  -673.936533451     A.U. after   33 cycles
 SCF Done:  E(UB3LYP) =  -673.936533452     a.u. after    1 cycles

 The electronic state is 2-A.
 Alpha  occ. eigenvalues --  -19.01561 -14.22110 -10.12414 -10.12163 -10.11352
 Alpha  occ. eigenvalues --  -10.10409 -10.08794 -10.07707 -10.07663 -10.07124
 Alpha  occ. eigenvalues --  -10.07119 -10.06824 -10.06797 -10.06464 -10.06384
 Alpha  occ. eigenvalues --  -10.05706  -0.94075  -0.83700  -0.75280  -0.73115
 Alpha  occ. eigenvalues --   -0.69729  -0.65057  -0.64052  -0.62106  -0.59388
 Alpha  occ. eigenvalues --   -0.56388  -0.53409  -0.51992  -0.49995  -0.45899
 Alpha  occ. eigenvalues --   -0.43590  -0.42676  -0.40862  -0.39189  -0.38227
 Alpha  occ. eigenvalues --   -0.36177  -0.34915  -0.34012  -0.32979  -0.32305
 Alpha  occ. eigenvalues --   -0.31810  -0.31226  -0.30584  -0.29527  -0.28546
 Alpha  occ. eigenvalues --   -0.27335  -0.26521  -0.26156  -0.25476  -0.24704
 Alpha  occ. eigenvalues --   -0.24543  -0.23014  -0.22432  -0.21346  -0.18908
 Alpha  occ. eigenvalues --   -0.15762  -0.15053  -0.09657   0.04557
 Alpha virt. eigenvalues --    0.06617   0.06847   0.07966   0.08206   0.08434
 Alpha virt. eigenvalues --    0.08578   0.09417   0.09695   0.10428   0.10693
 Alpha virt. eigenvalues --    0.10756   0.11084   0.12769   0.12923   0.13386

  Beta  occ. eigenvalues --  -19.01553 -14.22079 -10.12407 -10.12163 -10.11348
  Beta  occ. eigenvalues --  -10.10383 -10.08796 -10.07705 -10.07654 -10.07117
  Beta  occ. eigenvalues --  -10.07103 -10.06810 -10.06792 -10.06444 -10.06369
  Beta  occ. eigenvalues --  -10.05675  -0.94059  -0.83655  -0.75258  -0.73090
  Beta  occ. eigenvalues --   -0.69708  -0.65035  -0.64023  -0.62068  -0.59350
  Beta  occ. eigenvalues --   -0.56342  -0.53368  -0.51953  -0.49965  -0.45858
  Beta  occ. eigenvalues --   -0.43544  -0.42636  -0.40825  -0.39152  -0.38183
  Beta  occ. eigenvalues --   -0.36139  -0.34893  -0.33981  -0.32945  -0.32276
  Beta  occ. eigenvalues --   -0.31783  -0.31191  -0.30558  -0.29488  -0.28507
  Beta  occ. eigenvalues --   -0.27303  -0.26492  -0.26124  -0.25447  -0.24681
  Beta  occ. eigenvalues --   -0.24519  -0.22985  -0.22410  -0.21322  -0.18885
  Beta  occ. eigenvalues --   -0.15744  -0.15036  -0.09628
  Beta virt. eigenvalues --    0.06536   0.07229   0.07729   0.08251   0.08357
  Beta virt. eigenvalues --    0.08873   0.09100   0.09476   0.10013   0.10898
  Beta virt. eigenvalues --    0.10976   0.11359   0.11415   0.12871   0.13178

 Mulliken charges and spin densities:
               1          2
     1  C   -0.014078  -0.446554
     2  C    0.527694  -0.606202
     3  C    0.238694  -0.436459
     4  C    0.400254  -1.056969
     5  C    0.059891   0.030902
     6  C   -2.012358   1.863643
     7  N    0.179755  -0.289228
     8  C    0.457886  -0.457673
     9  C   -1.442546   1.075162
    10  C    0.640912  -0.850251
    11  C   -0.302079  -0.199922
    12  C   -0.740384   0.560606
    13  C    0.829988  -0.588236
    14  C    1.486573  -1.637155
    15  O   -0.025765  -0.008502
    16  C    1.210306  -1.382899
    17  H   -0.078656   0.237146
    18  H    0.031372   0.111348
    19  H    0.200064  -0.042947
    20  H   -0.160630   0.333080
    21  H    0.072280   0.047294
    22  H    0.138213   0.017664
    23  H   -0.247403   0.411828
    24  H   -1.295863   1.567859
    25  H   -0.176207   0.488928
    26  H   -0.671317   0.822871
    27  H   -0.048839   0.202704
    28  H    0.005925   0.135369
    29  H   -0.054354   0.180203
    30  H    0.153998   0.087863
    31  H   -0.450674   0.619795
    32  H    0.054429   0.085505
    33  H    0.032919   0.123227
 Sum of Mulliken charges =  -1.00000   1.00000

 Dipole moment (field-independent basis, Debye):
    X=             -2.5969    Y=             -4.3595    Z=             -5.8740  Tot=              7.7623
 Quadrupole moment (field-independent basis, Debye-Ang):
   XX=           -157.1795   YY=           -135.9219   ZZ=           -142.2911
   XY=             -1.8500   XZ=            -10.1497   YZ=             -5.7561

 Summary of Natural Population Analysis:

                                       Natural Population
                Natural  -----------------------------------------------
    Atom  No    Charge         Core      Valence    Rydberg      Total
 -----------------------------------------------------------------------
      C    1   -0.28611      0.99960     2.27936    0.00716     3.28611
      C    2   -0.04502      0.99953     2.03072    0.01477     3.04502
      C    3   -0.18488      0.99960     2.17595    0.00934     3.18488
      C    4   -0.19848      0.99957     2.18974    0.00917     3.19848
      C    5    0.13547      0.99950     1.84528    0.01975     2.86453
      C    6   -0.01563      0.99946     1.99739    0.01878     3.01563
      N    7   -0.31665      0.99967     2.80325    0.01373     3.81665
      C    8    0.10243      0.99944     1.88579    0.01234     2.89757
      C    9   -0.12215      0.99952     2.11259    0.01003     3.12215
      C   10   -0.09460      0.99957     2.08473    0.01030     3.09460
      C   11   -0.12868      0.99957     2.11926    0.00986     3.12868
      C   12   -0.08942      0.99952     2.08144    0.00846     3.08942
      C   13   -0.04918      0.99945     2.03839    0.01135     3.04918
      C   14    0.06518      0.99946     1.92004    0.01532     2.93482
      O   15   -0.31424      0.99989     3.30695    0.00740     4.31424
      C   16   -0.29242      0.99958     2.28545    0.00739     3.29242
      H   17    0.10446      0.00000     0.39463    0.00091     0.39554
      H   18    0.09829      0.00000     0.40090    0.00081     0.40171
      H   19    0.10905      0.00000     0.38992    0.00103     0.39095
      H   20    0.10365      0.00000     0.39519    0.00115     0.39635
      H   21    0.09699      0.00000     0.40200    0.00101     0.40301
      H   22    0.10187      0.00000     0.39712    0.00101     0.39813
      H   23    0.10398      0.00000     0.39435    0.00166     0.39602
      H   24    0.11472      0.00000     0.37831    0.00698     0.38528
      H   25    0.19757      0.00000     0.29601    0.00642     0.30243
      H   26    0.10268      0.00000     0.39551    0.00181     0.39732
      H   27    0.09842      0.00000     0.40079    0.00080     0.40158
      H   28    0.09733      0.00000     0.40190    0.00077     0.40267
      H   29    0.09701      0.00000     0.40175    0.00124     0.40299
      H   30    0.09257      0.00000     0.40601    0.00142     0.40743
      H   31    0.10689      0.00000     0.39165    0.00147     0.39311
      H   32    0.10275      0.00000     0.39631    0.00095     0.39725
      H   33    0.10615      0.00000     0.39258    0.00127     0.39385
 =======================================================================
   * Total *    0.00000     15.99292    41.79121    0.21587    58.00000

 Normal termination of Gaussian 16 at Thu Dec 10 22:40:21 2020.
