 Gaussian 16, Revision A.03,

 -----------------------------------------------------------
 # opt freq B3LYP/6-31G(d) empiricaldispersion=gd3bj scf=xqc
 -----------------------------------------------------------

 ------------------------------
 CID_68027343_JID_5114_neutraal
 ------------------------------
 Symbolic Z-matrix:
 Charge =  0 Multiplicity = 1

 SCF Done:  E(RB3LYP) =  -706.100550604     A.U. after   14 cycles
 SCF Done:  E(RB3LYP) =  -706.106810437     A.U. after   12 cycles
 SCF Done:  E(RB3LYP) =  -706.107580869     A.U. after   12 cycles
 SCF Done:  E(RB3LYP) =  -706.107901237     A.U. after   11 cycles
 SCF Done:  E(RB3LYP) =  -706.108091423     A.U. after   12 cycles
 SCF Done:  E(RB3LYP) =  -706.108223531     A.U. after   12 cycles
 SCF Done:  E(RB3LYP) =  -706.108402403     A.U. after   12 cycles
 SCF Done:  E(RB3LYP) =  -706.108477506     A.U. after   12 cycles
 SCF Done:  E(RB3LYP) =  -706.108596519     A.U. after   12 cycles
 SCF Done:  E(RB3LYP) =  -706.108633848     A.U. after   10 cycles
 SCF Done:  E(RB3LYP) =  -706.108645461     A.U. after    8 cycles
 SCF Done:  E(RB3LYP) =  -706.108645580     A.U. after    7 cycles
 SCF Done:  E(RB3LYP) =  -706.108645843     A.U. after    8 cycles
 SCF Done:  E(RB3LYP) =  -706.108646052     A.U. after    8 cycles
 SCF Done:  E(RB3LYP) =  -706.108646145     A.U. after    7 cycles
 Optimization completed.
    -- Stationary point found.
 Normal termination of Gaussian 16 at Thu Dec 10 14:51:55 2020.

 --------------------------------------------------------------------
 #N Geom=AllCheck Guess=TCheck SCRF=Check GenChk RB3LYP/6-31G(d) Freq
 --------------------------------------------------------------------

 Structure from the checkpoint file:  "JID_5114.chk"
 ------------------------------
 CID_68027343_JID_5114_neutraal
 ------------------------------
 Charge =  0 Multiplicity = 1

 SCF Done:  E(RB3LYP) =  -706.108646145     A.U. after    1 cycles

  Exact polarizability: 159.207   5.944 109.271   2.590  -1.443 107.423
 Approx polarizability: 188.368  12.203 173.003  11.265   1.838 167.716

                      1                      2                      3
                      A                      A                      A
 Frequencies --     24.6428                27.4568                69.3283
 Red. masses --      5.1209                 4.6127                 4.2705
 Frc consts  --      0.0018                 0.0020                 0.0121
 IR Inten    --      2.1340                 0.7901                 1.8914

                      4                      5                      6
                      A                      A                      A
 Frequencies --    100.5238               101.9032               153.1612
 Red. masses --      4.0898                 3.9529                 2.6925
 Frc consts  --      0.0243                 0.0242                 0.0372
 IR Inten    --      5.4712                 7.6262                 1.8287

                      7                      8                      9
                      A                      A                      A
 Frequencies --    177.5730               197.5337               223.0785
 Red. masses --      2.4058                 2.1033                 6.2939
 Frc consts  --      0.0447                 0.0484                 0.1845
 IR Inten    --      1.1140                 1.4196                 0.2173

                     10                     11                     12
                      A                      A                      A
 Frequencies --    243.5137               301.9044               359.3866
 Red. masses --      3.4802                 2.4867                 2.2757
 Frc consts  --      0.1216                 0.1335                 0.1732
 IR Inten    --      2.5188                 5.4079                17.0613

                     13                     14                     15
                      A                      A                      A
 Frequencies --    369.9592               408.5104               438.5071
 Red. masses --      3.4638                 1.6281                 1.9442
 Frc consts  --      0.2793                 0.1601                 0.2203
 IR Inten    --      3.1323                41.7303                14.5357

                     16                     17                     18
                      A                      A                      A
 Frequencies --    479.8222               485.5227               522.8752
 Red. masses --      2.3476                 2.7451                 2.8811
 Frc consts  --      0.3184                 0.3813                 0.4641
 IR Inten    --      2.1559                 1.2358                 1.7552

                     19                     20                     21
                      A                      A                      A
 Frequencies --    551.9887               567.2305               603.0808
 Red. masses --      4.0406                 2.6354                 2.2667
 Frc consts  --      0.7254                 0.4996                 0.4857
 IR Inten    --      1.0353                 5.2417                92.5855

                     22                     23                     24
                      A                      A                      A
 Frequencies --    635.1262               650.2721               688.9295
 Red. masses --      1.9910                 2.9847                 4.0867
 Frc consts  --      0.4732                 0.7436                 1.1428
 IR Inten    --    100.2164                10.6956                 7.7435

                     25                     26                     27
                      A                      A                      A
 Frequencies --    750.9211               783.3576               791.6144
 Red. masses --      3.2028                 4.7645                 2.2486
 Frc consts  --      1.0641                 1.7226                 0.8302
 IR Inten    --      5.5053                98.5110                 2.8498

                     28                     29                     30
                      A                      A                      A
 Frequencies --    830.1005               846.4329               883.2036
 Red. masses --      1.5640                 2.2130                 2.3186
 Frc consts  --      0.6349                 0.9342                 1.0656
 IR Inten    --      2.7604                 8.3320                 4.7812

                     31                     32                     33
                      A                      A                      A
 Frequencies --    919.1376               944.0621               954.1967
 Red. masses --      1.5058                 2.2477                 1.7470
 Frc consts  --      0.7495                 1.1803                 0.9372
 IR Inten    --      2.5695                 4.5311                 6.4103

                     34                     35                     36
                      A                      A                      A
 Frequencies --    991.2546              1008.9243              1022.8590
 Red. masses --      2.3268                 1.5846                 2.8303
 Frc consts  --      1.3470                 0.9503                 1.7447
 IR Inten    --     10.6161                 2.6709                19.2182

                     37                     38                     39
                      A                      A                      A
 Frequencies --   1032.2034              1058.6557              1096.6592
 Red. masses --      1.9109                 2.8313                 2.4075
 Frc consts  --      1.1995                 1.8696                 1.7059
 IR Inten    --      0.9670                24.1453                 4.9053

                     40                     41                     42
                      A                      A                      A
 Frequencies --   1105.2460              1126.7525              1130.4536
 Red. masses --      1.7418                 2.2068                 2.0627
 Frc consts  --      1.2536                 1.6507                 1.5531
 IR Inten    --      4.5372                34.9984                44.5577

                     43                     44                     45
                      A                      A                      A
 Frequencies --   1161.4909              1193.7117              1199.0015
 Red. masses --      1.9543                 1.2975                 1.2862
 Frc consts  --      1.5533                 1.0894                 1.0894
 IR Inten    --      8.6128                 4.7742                 3.5478

                     46                     47                     48
                      A                      A                      A
 Frequencies --   1232.5349              1232.6618              1254.2162
 Red. masses --      1.5781                 1.8812                 1.6189
 Frc consts  --      1.4125                 1.6841                 1.5004
 IR Inten    --     13.6347                 7.5747                46.4857

                     49                     50                     51
                      A                      A                      A
 Frequencies --   1264.8291              1297.9525              1301.0994
 Red. masses --      2.2610                 1.5193                 1.8547
 Frc consts  --      2.1312                 1.5080                 1.8499
 IR Inten    --     16.3308                17.8542                15.0737

                     52                     53                     54
                      A                      A                      A
 Frequencies --   1309.8954              1323.8870              1327.5907
 Red. masses --      1.4710                 1.7027                 1.5934
 Frc consts  --      1.4870                 1.7583                 1.6546
 IR Inten    --    112.3058               170.9859                 7.8380

                     55                     56                     57
                      A                      A                      A
 Frequencies --   1348.3622              1362.9818              1385.9875
 Red. masses --      1.3195                 1.3572                 1.4843
 Frc consts  --      1.4135                 1.4855                 1.6799
 IR Inten    --      1.5676                 5.2575                49.2921

                     58                     59                     60
                      A                      A                      A
 Frequencies --   1391.8510              1408.2402              1422.4636
 Red. masses --      1.2908                 1.3661                 1.6247
 Frc consts  --      1.4734                 1.5962                 1.9369
 IR Inten    --      5.7693                 1.5149                 6.2130

                     61                     62                     63
                      A                      A                      A
 Frequencies --   1427.1668              1467.4513              1478.9368
 Red. masses --      1.4704                 2.0520                 3.1489
 Frc consts  --      1.7646                 2.6035                 4.0579
 IR Inten    --     65.3547               117.0811               260.9700

                     64                     65                     66
                      A                      A                      A
 Frequencies --   1500.9128              1506.0074              1519.4382
 Red. masses --      1.0879                 1.0960                 1.1050
 Frc consts  --      1.4439                 1.4646                 1.5031
 IR Inten    --      2.3571                 0.2345                 8.4607

                     67                     68                     69
                      A                      A                      A
 Frequencies --   1527.4695              1527.8115              1540.9299
 Red. masses --      1.0880                 1.1052                 1.1168
 Frc consts  --      1.4957                 1.5200                 1.5624
 IR Inten    --      3.2915                 8.8414                 9.6642

                     70                     71                     72
                      A                      A                      A
 Frequencies --   1562.1304              1658.6636              1791.8812
 Red. masses --      1.1000                 1.2080                 6.9117
 Frc consts  --      1.5816                 1.9581                13.0754
 IR Inten    --      6.7978               156.8784               360.6895

                     73                     74                     75
                      A                      A                      A
 Frequencies --   1806.7558              2992.5690              2999.4120
 Red. masses --     11.9967                 1.0750                 1.0743
 Frc consts  --     23.0733                 5.6722                 5.6946
 IR Inten    --    325.8793                26.9327                54.7145

                     76                     77                     78
                      A                      A                      A
 Frequencies --   3016.8817              3045.0997              3049.7803
 Red. masses --      1.0700                 1.0631                 1.0628
 Frc consts  --      5.7379                 5.8079                 5.8242
 IR Inten    --     38.4875                14.3817                32.1196

                     79                     80                     81
                      A                      A                      A
 Frequencies --   3061.3201              3073.7174              3076.0300
 Red. masses --      1.0702                 1.0702                 1.0829
 Frc consts  --      5.9095                 5.9571                 6.0367
 IR Inten    --     14.9110                14.2943                17.9273

                     82                     83                     84
                      A                      A                      A
 Frequencies --   3088.3864              3098.2200              3104.1830
 Red. masses --      1.0861                 1.1024                 1.1015
 Frc consts  --      6.1036                 6.2348                 6.2534
 IR Inten    --     43.2576                20.9538                41.0314

                     85                     86                     87
                      A                      A                      A
 Frequencies --   3128.4860              3139.1133              3153.9922
 Red. masses --      1.1003                 1.0986                 1.0885
 Frc consts  --      6.3448                 6.3786                 6.3799
 IR Inten    --     24.4302                18.9628                22.6118

                     88                     89                     90
                      A                      A                      A
 Frequencies --   3170.0454              3558.7009              3665.0320
 Red. masses --      1.0898                 1.0479                 1.0985
 Frc consts  --      6.4523                 7.8192                 8.6935
 IR Inten    --      3.0795                18.8774                20.7841

 - Thermochemistry -
 -------------------
 Temperature   298.150 Kelvin.  Pressure   1.00000 Atm.
 Atom     1 has atomic number  6 and mass  12.00000

 Molecular mass:   211.13208 amu.
 Principal axes and moments of inertia in atomic units:
                           1         2         3
     Eigenvalues --  1131.236026753.789936839.11572
           X            0.99991  -0.00935  -0.00981
           Y            0.00776   0.98850  -0.15100
           Z            0.01111   0.15090   0.98849
 This molecule is an asymmetric top.
 Rotational symmetry number  1.
 Warning -- assumption of classical behavior for rotation
           may cause significant error
 Rotational temperatures (Kelvin)      0.07657     0.01282     0.01266
 Rotational constants (GHZ):           1.59537     0.26722     0.26389
 Zero-point vibrational energy     734585.8 (Joules/Mol)
                                  175.57021 (Kcal/Mol)
 Warning -- explicit consideration of  21 degrees of freedom as
           vibrations may cause significant error
 Vibrational temperatures:     35.46    39.50    99.75   144.63   146.62
          (Kelvin)            220.36   255.49   284.21   320.96   350.36
                              434.37   517.08   532.29   587.76   630.91
                              690.36   698.56   752.30   794.19   816.12
                              867.70   913.80   935.60   991.22  1080.41
                             1127.08  1138.96  1194.33  1217.83  1270.73
                             1322.43  1358.29  1372.88  1426.19  1451.62
                             1471.67  1485.11  1523.17  1577.85  1590.20
                             1621.15  1626.47  1671.13  1717.48  1725.10
                             1773.34  1773.53  1804.54  1819.81  1867.46
                             1871.99  1884.65  1904.78  1910.11  1939.99
                             1961.03  1994.13  2002.56  2026.14  2046.61
                             2053.37  2111.34  2127.86  2159.48  2166.81
                             2186.13  2197.69  2198.18  2217.05  2247.56
                             2386.45  2578.12  2599.52  4305.64  4315.48
                             4340.62  4381.22  4387.95  4404.56  4422.39
                             4425.72  4443.50  4457.65  4466.23  4501.19
                             4516.48  4537.89  4560.99  5120.18  5273.16

 Zero-point correction=                           0.279789 (Hartree/Particle)
 Thermal correction to Energy=                    0.293877
 Thermal correction to Enthalpy=                  0.294821
 Thermal correction to Gibbs Free Energy=         0.237235
 Sum of electronic and zero-point Energies=           -705.828857
 Sum of electronic and thermal Energies=              -705.814769
 Sum of electronic and thermal Enthalpies=            -705.813825
 Sum of electronic and thermal Free Energies=         -705.871412

                     E (Thermal)             CV                S
                      KCal/Mol        Cal/Mol-Kelvin    Cal/Mol-Kelvin
 Total                  184.411             53.895            121.201
 Electronic               0.000              0.000              0.000
 Translational            0.889              2.981             41.946
 Rotational               0.889              2.981             32.324
 Vibrational            182.633             47.934             46.931
 Vibration     1          0.593              1.985              6.220
 Vibration     2          0.593              1.984              6.005
 Vibration     3          0.598              1.969              4.172
 Vibration     4          0.604              1.949              3.444
 Vibration     5          0.604              1.948              3.418
 Vibration     6          0.619              1.899              2.633
 Vibration     7          0.628              1.870              2.354
 Vibration     8          0.637              1.843              2.156
 Vibration     9          0.649              1.806              1.934
 Vibration    10          0.659              1.773              1.777
 Vibration    11          0.694              1.670              1.406
 Vibration    12          0.734              1.556              1.125
 Vibration    13          0.742              1.534              1.080
 Vibration    14          0.773              1.452              0.932
 Vibration    15          0.799              1.386              0.831
 Vibration    16          0.836              1.295              0.711
 Vibration    17          0.842              1.282              0.695
 Vibration    18          0.878              1.199              0.603
 Vibration    19          0.907              1.135              0.540
 Vibration    20          0.923              1.102              0.510
 Vibration    21          0.961              1.025              0.444

 Optimization completed.
    -- Stationary point found.
 Normal termination of Gaussian 16 at Thu Dec 10 15:01:20 2020.

 ----------------------------------------------------------------------
 # B3LYP/6-311++G(d,p) empiricaldispersion=gd3bj scf=xqc pop=npa geom=c
 heck
 ----------------------------------------------------------------------

 --------------------------------------
 CID_68027343_JID_5114_Energie_neutraal
 --------------------------------------
 Structure from the checkpoint file:  "JID_5114.chk"
 Charge =  0 Multiplicity = 1

 SCF Done:  E(RB3LYP) =  -706.316832386     A.U. after   16 cycles
 Normal termination of Gaussian 16 at Thu Dec 10 15:05:39 2020.

 ----------------------------------------------------------------------
 # B3LYP/6-311++G(d,p) empiricaldispersion=gd3bj scf=xqc pop=npa geom=c
 heck
 ----------------------------------------------------------------------

 ------------------------------------
 CID_68027343_JID_5114_Energie_kation
 ------------------------------------
 Structure from the checkpoint file:  "JID_5114.chk"
 Charge =  1 Multiplicity = 2

 SCF Done:  E(UB3LYP) =  -706.008858019     A.U. after   33 cycles
 SCF Done:  E(UB3LYP) =  -706.008858023     a.u. after    2 cycles
 Normal termination of Gaussian 16 at Thu Dec 10 15:27:55 2020.
 Gaussian 16:  ES64L-G16RevA.03 25-Dec-2016

 ----------------------------------------------------------------------
 # B3LYP/6-311++G(d,p) empiricaldispersion=gd3bj scf=xqc pop=npa geom=c
 heck
 ----------------------------------------------------------------------

 -----------------------------------
 CID_68027343_JID_5114_Energie_anion
 -----------------------------------
 Structure from the checkpoint file:  "JID_5114.chk"
 Charge = -1 Multiplicity = 2

                         Standard orientation:
 ---------------------------------------------------------------------
 Center     Atomic      Atomic             Coordinates (Angstroms)
 Number     Number       Type             X           Y           Z
 ---------------------------------------------------------------------
      1          6           0        3.749615   -1.481796   -0.379351
      2          6           0        4.242829   -0.048157   -0.138092
      3          6           0        2.990274    0.705080    0.308155
      4          8           0        2.940795    1.803925    0.839384
      5          7           0        1.905424   -0.072876   -0.020020
      6          6           0        2.257734   -1.299790   -0.724384
      7          6           0        0.543243    0.401206    0.161089
      8          6           0       -0.225320    0.502885   -1.164670
      9          6           0       -1.651590    1.006572   -0.927581
     10          7           0       -2.330081    0.151016    0.041508
     11          6           0       -1.660830    0.079000    1.336946
     12          6           0       -0.235416   -0.457158    1.170249
     13          6           0       -3.662473   -0.144258   -0.174031
     14          8           0       -4.287107    0.260062   -1.148158
     15          7           0       -4.275159   -0.931695    0.804516
     16          1           0        4.292871   -2.007723   -1.168409
     17          1           0        3.841377   -2.067405    0.541484
     18          1           0        4.609551    0.421797   -1.059771
     19          1           0        5.032134    0.040900    0.611623
     20          1           0        2.104105   -1.191671   -1.808154
     21          1           0        1.642714   -2.140167   -0.385523
     22          1           0        0.656264    1.407401    0.580588
     23          1           0        0.301055    1.181111   -1.846141
     24          1           0       -0.275528   -0.482063   -1.646090
     25          1           0       -1.623226    2.042763   -0.553062
     26          1           0       -2.240859    1.002533   -1.843532
     27          1           0       -2.233549   -0.541218    2.026050
     28          1           0       -1.620727    1.087196    1.781659
     29          1           0       -0.284194   -1.496859    0.821220
     30          1           0        0.283611   -0.450067    2.135115
     31          1           0       -3.723930   -1.677349    1.210384
     32          1           0       -5.180861   -1.247688    0.480739
 ---------------------------------------------------------------------

 SCF Done:  E(UB3LYP) =  -706.311332804     A.U. after   31 cycles

 The electronic state is 2-A.
 Alpha  occ. eigenvalues --  -18.99612 -18.98605 -14.24731 -14.24308 -14.22508
 Alpha  occ. eigenvalues --  -10.19818 -10.17595 -10.11916 -10.11726 -10.11588
 Alpha  occ. eigenvalues --  -10.11163 -10.08978 -10.08788 -10.08364 -10.07894
 Alpha  occ. eigenvalues --   -0.95254  -0.94703  -0.86021  -0.84806  -0.79817
 Alpha  occ. eigenvalues --   -0.73164  -0.67857  -0.67636  -0.62611  -0.59041
 Alpha  occ. eigenvalues --   -0.55187  -0.52968  -0.50893  -0.46852  -0.45831
 Alpha  occ. eigenvalues --   -0.44426  -0.41391  -0.40438  -0.40002  -0.37493
 Alpha  occ. eigenvalues --   -0.36813  -0.36068  -0.35088  -0.33670  -0.33448
 Alpha  occ. eigenvalues --   -0.32879  -0.32345  -0.31222  -0.30384  -0.30165
 Alpha  occ. eigenvalues --   -0.29340  -0.27159  -0.26984  -0.26912  -0.24820
 Alpha  occ. eigenvalues --   -0.24431  -0.24254  -0.18988  -0.16854  -0.16530
 Alpha  occ. eigenvalues --   -0.15208  -0.14955   0.03796
 Alpha virt. eigenvalues --    0.05703   0.07302   0.07724   0.08006   0.08962
 Alpha virt. eigenvalues --    0.08972   0.09998   0.10188   0.10524   0.11283
 Alpha virt. eigenvalues --    0.12013   0.12204   0.12340   0.12836   0.13784

  Beta  occ. eigenvalues --  -18.99611 -18.98595 -14.24728 -14.24308 -14.22447
  Beta  occ. eigenvalues --  -10.19805 -10.17595 -10.11916 -10.11706 -10.11555
  Beta  occ. eigenvalues --  -10.11160 -10.08966 -10.08756 -10.08354 -10.07865
  Beta  occ. eigenvalues --   -0.95229  -0.94699  -0.86008  -0.84791  -0.79730
  Beta  occ. eigenvalues --   -0.73140  -0.67823  -0.67608  -0.62563  -0.59009
  Beta  occ. eigenvalues --   -0.55144  -0.52901  -0.50843  -0.46810  -0.45749
  Beta  occ. eigenvalues --   -0.44369  -0.41352  -0.40399  -0.39964  -0.37463
  Beta  occ. eigenvalues --   -0.36792  -0.36036  -0.35062  -0.33643  -0.33421
  Beta  occ. eigenvalues --   -0.32845  -0.32318  -0.31197  -0.30354  -0.30125
  Beta  occ. eigenvalues --   -0.29313  -0.27124  -0.26952  -0.26862  -0.24787
  Beta  occ. eigenvalues --   -0.24412  -0.24227  -0.18932  -0.16819  -0.16519
  Beta  occ. eigenvalues --   -0.15193  -0.14946
  Beta virt. eigenvalues --    0.06272   0.07010   0.07702   0.08084   0.08543
  Beta virt. eigenvalues --    0.09269   0.09389   0.10286   0.10736   0.11000
  Beta virt. eigenvalues --    0.11420   0.12181   0.12495   0.12582   0.13101

 Mulliken charges and spin densities:
               1          2
     1  C    1.030624  -1.426362
     2  C   -0.237151  -0.144391
     3  C    0.427261  -0.217079
     4  O   -0.374191   0.005317
     5  N    0.476862   0.017210
     6  C    0.314882  -0.438312
     7  C   -3.059676   1.922770
     8  C    0.908267  -0.755528
     9  C   -0.384708  -0.275186
    10  N   -0.032907   0.089788
    11  C    0.129791  -0.894429
    12  C    1.133254  -0.834860
    13  C    0.465531  -0.239800
    14  O   -0.384709  -0.003477
    15  N   -0.337815  -0.039546
    16  H   -0.419322   0.594256
    17  H   -0.073041   0.232477
    18  H    0.018205   0.147496
    19  H    0.056395   0.125744
    20  H   -0.137735   0.295450
    21  H   -0.451408   0.626167
    22  H    0.167930   0.026157
    23  H    0.076052   0.111549
    24  H   -0.033196   0.193982
    25  H    0.134044   0.012012
    26  H    0.219644   0.006084
    27  H   -0.197556   0.376496
    28  H    0.168070  -0.021958
    29  H   -0.156950   0.319571
    30  H   -0.090443   0.281868
    31  H   -0.367314   0.623673
    32  H    0.011309   0.282860
 Sum of Mulliken charges =  -1.00000   1.00000

 Dipole moment (field-independent basis, Debye):
    X=              1.7899    Y=              4.6053    Z=             -0.6195  Tot=              4.9796
 Quadrupole moment (field-independent basis, Debye-Ang):
   XX=           -178.6948   YY=           -137.1634   ZZ=           -126.1985
   XY=             -5.4666   XZ=              1.4441   YZ=              0.7984

 Summary of Natural Population Analysis:

                                       Natural Population
                Natural  -----------------------------------------------
    Atom  No    Charge         Core      Valence    Rydberg      Total
 -----------------------------------------------------------------------
      C    1   -0.19305      0.99964     2.18527    0.00813     3.19305
      C    2   -0.23018      0.99960     2.22195    0.00863     3.23018
      C    3    0.35033      0.99964     1.62721    0.02282     2.64967
      O    4   -0.32828      0.99987     3.32315    0.00525     4.32828
      N    5   -0.25580      0.99962     2.74451    0.01167     3.75580
      C    6   -0.07888      0.99962     2.06900    0.01025     3.07888
      C    7   -0.00976      0.99956     1.99745    0.01275     3.00976
      C    8   -0.19729      0.99960     2.18981    0.00787     3.19729
      C    9   -0.08223      0.99961     2.07359    0.00902     3.08223
      N   10   -0.27194      0.99964     2.76137    0.01094     3.77194
      C   11   -0.08044      0.99960     2.06989    0.01094     3.08044
      C   12   -0.19679      0.99960     2.18714    0.01005     3.19679
      C   13    0.41044      0.99969     1.56699    0.02287     2.58956
      O   14   -0.34224      0.99987     3.33703    0.00534     4.34224
      N   15   -0.41810      0.99972     2.90970    0.00868     3.91810
      H   16    0.10455      0.00000     0.39370    0.00175     0.39545
      H   17    0.10009      0.00000     0.39847    0.00144     0.39991
      H   18    0.10796      0.00000     0.39097    0.00107     0.39204
      H   19    0.10904      0.00000     0.38998    0.00098     0.39096
      H   20    0.09061      0.00000     0.40776    0.00163     0.40939
      H   21    0.10269      0.00000     0.39500    0.00231     0.39731
      H   22    0.11109      0.00000     0.38682    0.00209     0.38891
      H   23    0.10258      0.00000     0.39652    0.00090     0.39742
      H   24    0.10149      0.00000     0.39700    0.00151     0.39851
      H   25    0.08542      0.00000     0.41351    0.00107     0.41458
      H   26    0.11764      0.00000     0.38134    0.00103     0.38236
      H   27    0.10846      0.00000     0.38991    0.00163     0.39154
      H   28    0.08655      0.00000     0.41229    0.00116     0.41345
      H   29    0.10327      0.00000     0.39382    0.00291     0.39673
      H   30    0.10492      0.00000     0.39387    0.00121     0.39508
      H   31    0.19474      0.00000     0.29715    0.00812     0.30526
      H   32    0.19312      0.00000     0.30518    0.00170     0.30688
 =======================================================================
   * Total *   -0.00000     14.99491    41.80736    0.19772    57.00000

 Normal termination of Gaussian 16 at Thu Dec 10 15:39:28 2020.
