 Gaussian 16, Revision A.03,

 -----------------------------------------------------------
 # opt freq B3LYP/6-31G(d) empiricaldispersion=gd3bj scf=xqc
 -----------------------------------------------------------

 -------------------------------
 CID_154503964_JID_5438_neutraal
 -------------------------------
 Symbolic Z-matrix:
 Charge =  0 Multiplicity = 1

 SCF Done:  E(RB3LYP) =  -987.042749390     A.U. after   16 cycles
 SCF Done:  E(RB3LYP) =  -987.055775178     A.U. after   13 cycles
 SCF Done:  E(RB3LYP) =  -987.059931883     A.U. after   13 cycles
 SCF Done:  E(RB3LYP) =  -987.063727426     A.U. after   15 cycles
 SCF Done:  E(RB3LYP) =  -987.065487911     A.U. after   12 cycles
 SCF Done:  E(RB3LYP) =  -987.065964754     A.U. after   12 cycles
 SCF Done:  E(RB3LYP) =  -987.066074724     A.U. after   12 cycles
 SCF Done:  E(RB3LYP) =  -987.066139000     A.U. after   11 cycles
 SCF Done:  E(RB3LYP) =  -987.066169465     A.U. after   11 cycles
 SCF Done:  E(RB3LYP) =  -987.066174418     A.U. after   10 cycles
 SCF Done:  E(RB3LYP) =  -987.066176227     A.U. after    9 cycles
 SCF Done:  E(RB3LYP) =  -987.066176467     A.U. after    8 cycles
 Optimization completed.
    -- Stationary point found.
 Normal termination of Gaussian 16 at Thu Dec 10 16:02:31 2020.

 --------------------------------------------------------------------
 #N Geom=AllCheck Guess=TCheck SCRF=Check GenChk RB3LYP/6-31G(d) Freq
 --------------------------------------------------------------------

 Structure from the checkpoint file:  "JID_5438.chk"
 -------------------------------
 CID_154503964_JID_5438_neutraal
 -------------------------------
 Charge =  0 Multiplicity = 1

 SCF Done:  E(RB3LYP) =  -987.066176467     A.U. after    1 cycles

  Exact polarizability: 238.073   9.347 161.308  -3.495   5.860  67.356
 Approx polarizability: 385.405  22.418 292.634 -14.414  16.856 107.566

                      1                      2                      3
                      A                      A                      A
 Frequencies --     37.9433                58.5474               113.5067
 Red. masses --      3.1808                 4.4219                 5.9052
 Frc consts  --      0.0027                 0.0089                 0.0448
 IR Inten    --      2.1571                 2.3449                 0.1073

                      4                      5                      6
                      A                      A                      A
 Frequencies --    139.3622               155.0136               188.2775
 Red. masses --      4.2316                 2.8550                 1.3463
 Frc consts  --      0.0484                 0.0404                 0.0281
 IR Inten    --      0.6371                 0.4811                 0.3880

                      7                      8                      9
                      A                      A                      A
 Frequencies --    261.9928               284.5571               317.7764
 Red. masses --      4.3948                 6.3873                 5.7810
 Frc consts  --      0.1777                 0.3047                 0.3440
 IR Inten    --      4.8201                 1.0963                 2.5445

                     10                     11                     12
                      A                      A                      A
 Frequencies --    353.6957               419.0369               436.8015
 Red. masses --      4.9670                 4.3687                 7.7584
 Frc consts  --      0.3661                 0.4520                 0.8722
 IR Inten    --      2.6311                 1.4548                 0.8605

                     13                     14                     15
                      A                      A                      A
 Frequencies --    447.9437               483.8167               526.1693
 Red. masses --      7.7547                 2.9869                 7.0054
 Frc consts  --      0.9168                 0.4119                 1.1427
 IR Inten    --      3.9718                 2.7740                16.3373

                     16                     17                     18
                      A                      A                      A
 Frequencies --    562.3275               598.0191               627.5824
 Red. masses --      3.7916                 6.4398                 6.9106
 Frc consts  --      0.7064                 1.3569                 1.6036
 IR Inten    --      0.6188                 3.8817                 2.0091

                     19                     20                     21
                      A                      A                      A
 Frequencies --    629.8477               695.3978               752.2375
 Red. masses --      7.4437                 5.4737                 4.1148
 Frc consts  --      1.7398                 1.5595                 1.3719
 IR Inten    --      6.9184                 4.0831                 9.5256

                     22                     23                     24
                      A                      A                      A
 Frequencies --    756.1246               770.3642               795.4423
 Red. masses --      6.7897                 1.3384                 3.6083
 Frc consts  --      2.2871                 0.4680                 1.3451
 IR Inten    --      5.1163                31.3354                11.5240

                     25                     26                     27
                      A                      A                      A
 Frequencies --    813.4003               852.1596               859.1167
 Red. masses --      7.2244                 1.4031                 5.3861
 Frc consts  --      2.8162                 0.6003                 2.3422
 IR Inten    --     32.4154                 2.8383                21.0776

                     28                     29                     30
                      A                      A                      A
 Frequencies --    877.3942               921.3282               927.4353
 Red. masses --      1.5471                 5.5732                 1.4713
 Frc consts  --      0.7017                 2.7873                 0.7456
 IR Inten    --      5.1462                 7.1227                17.8176

                     31                     32                     33
                      A                      A                      A
 Frequencies --    964.9014               992.6929               997.3805
 Red. masses --      1.3452                 1.1960                 1.2768
 Frc consts  --      0.7379                 0.6944                 0.7483
 IR Inten    --      3.8079                 6.7960                 0.1273

                     34                     35                     36
                      A                      A                      A
 Frequencies --   1000.9655              1037.9466              1046.5518
 Red. masses --      1.3830                 4.0199                 2.3375
 Frc consts  --      0.8164                 2.5516                 1.5084
 IR Inten    --     43.9268                 7.5247                 8.0575

                     37                     38                     39
                      A                      A                      A
 Frequencies --   1095.2976              1155.3085              1183.7550
 Red. masses --      8.8516                 1.8089                 1.1960
 Frc consts  --      6.2566                 1.4225                 0.9874
 IR Inten    --     32.2837                 8.3626                 2.3070

                     40                     41                     42
                      A                      A                      A
 Frequencies --   1192.9164              1245.1164              1275.1918
 Red. masses --      1.4735                 2.3994                 1.6241
 Frc consts  --      1.2354                 2.1917                 1.5560
 IR Inten    --     10.7575                21.1784                 7.4445

                     43                     44                     45
                      A                      A                      A
 Frequencies --   1307.1116              1339.1651              1370.5285
 Red. masses --      3.1400                 4.4336                 3.3983
 Frc consts  --      3.1609                 4.6846                 3.7609
 IR Inten    --      5.6551                17.7230                29.9964

                     46                     47                     48
                      A                      A                      A
 Frequencies --   1376.2993              1393.9547              1418.9062
 Red. masses --      1.1767                 2.4710                 6.5299
 Frc consts  --      1.3132                 2.8289                 7.7458
 IR Inten    --      3.7890                30.7400                30.3137

                     49                     50                     51
                      A                      A                      A
 Frequencies --   1458.4536              1487.6281              1505.7000
 Red. masses --      3.3467                 1.0522                 3.6943
 Frc consts  --      4.1942                 1.3720                 4.9347
 IR Inten    --      1.2920                10.3683                 9.1377

                     52                     53                     54
                      A                      A                      A
 Frequencies --   1512.8144              1546.4937              1559.0986
 Red. masses --      1.0555                 4.4160                 3.9659
 Frc consts  --      1.4232                 6.2227                 5.6798
 IR Inten    --     11.1034                 7.3259                30.8531

                     55                     56                     57
                      A                      A                      A
 Frequencies --   1626.4979              1673.5603              1683.9053
 Red. masses --      8.7417                 7.6563                 6.0085
 Frc consts  --     13.6256                12.6343                10.0381
 IR Inten    --     15.4745               123.7765                 4.6890

                     58                     59                     60
                      A                      A                      A
 Frequencies --   3066.7700              3154.7609              3170.1987
 Red. masses --      1.0292                 1.1038                 1.1095
 Frc consts  --      5.7030                 6.4725                 6.5697
 IR Inten    --     16.3640                 6.6893                 4.6967

                     61                     62                     63
                      A                      A                      A
 Frequencies --   3181.0182              3191.9744              3194.3387
 Red. masses --      1.0872                 1.0911                 1.0890
 Frc consts  --      6.4820                 6.5499                 6.5471
 IR Inten    --      3.0787                 5.5733                17.3198

                     64                     65                     66
                      A                      A                      A
 Frequencies --   3209.9716              3222.1808              3252.1622
 Red. masses --      1.0941                 1.0955                 1.0957
 Frc consts  --      6.6420                 6.7016                 6.8277
 IR Inten    --     27.5719                14.1007                 9.8119

 - Thermochemistry -
 -------------------
 Temperature   298.150 Kelvin.  Pressure   1.00000 Atm.
 Atom     1 has atomic number  6 and mass  12.00000

 Molecular mass:   215.05172 amu.
 Principal axes and moments of inertia in atomic units:
                           1         2         3
     Eigenvalues --  1489.668275070.309556292.56635
           X            0.99993  -0.00686   0.00962
           Y            0.00697   0.99991  -0.01142
           Z           -0.00954   0.01149   0.99989
 This molecule is an asymmetric top.
 Rotational symmetry number  1.
 Warning -- assumption of classical behavior for rotation
           may cause significant error
 Rotational temperatures (Kelvin)      0.05814     0.01708     0.01376
 Rotational constants (GHZ):           1.21151     0.35594     0.28681
 Zero-point vibrational energy     477035.7 (Joules/Mol)
                                  114.01426 (Kcal/Mol)
 Warning -- explicit consideration of  17 degrees of freedom as
           vibrations may cause significant error
 Vibrational temperatures:     54.59    84.24   163.31   200.51   223.03
          (Kelvin)            270.89   376.95   409.41   457.21   508.89
                              602.90   628.46   644.49   696.10   757.04
                              809.06   860.42   902.95   906.21  1000.52
                             1082.30  1087.89  1108.38  1144.46  1170.30
                             1226.07  1236.08  1262.37  1325.59  1334.37
                             1388.28  1428.26  1435.01  1440.17  1493.37
                             1505.75  1575.89  1662.23  1703.16  1716.34
                             1791.44  1834.72  1880.64  1926.76  1971.88
                             1980.19  2005.59  2041.49  2098.39  2140.37
                             2166.37  2176.60  2225.06  2243.20  2340.17
                             2407.88  2422.76  4412.40  4539.00  4561.21
                             4576.78  4592.54  4595.94  4618.43  4636.00
                             4679.14

 Zero-point correction=                           0.181693 (Hartree/Particle)
 Thermal correction to Energy=                    0.193598
 Thermal correction to Enthalpy=                  0.194542
 Thermal correction to Gibbs Free Energy=         0.142553
 Sum of electronic and zero-point Energies=           -986.884483
 Sum of electronic and thermal Energies=              -986.872579
 Sum of electronic and thermal Enthalpies=            -986.871635
 Sum of electronic and thermal Free Energies=         -986.923624

                     E (Thermal)             CV                S
                      KCal/Mol        Cal/Mol-Kelvin    Cal/Mol-Kelvin
 Total                  121.484             46.591            109.421
 Electronic               0.000              0.000              0.000
 Translational            0.889              2.981             42.000
 Rotational               0.889              2.981             32.230
 Vibrational            119.707             40.629             35.190
 Vibration     1          0.594              1.982              5.364
 Vibration     2          0.596              1.974              4.506
 Vibration     3          0.607              1.938              3.208
 Vibration     4          0.615              1.914              2.813
 Vibration     5          0.620              1.897              2.610
 Vibration     6          0.633              1.856              2.245
 Vibration     7          0.669              1.742              1.648
 Vibration     8          0.683              1.702              1.506
 Vibration     9          0.704              1.640              1.322
 Vibration    10          0.730              1.568              1.150
 Vibration    11          0.782              1.429              0.895
 Vibration    12          0.797              1.390              0.837
 Vibration    13          0.807              1.365              0.802
 Vibration    14          0.840              1.286              0.700
 Vibration    15          0.881              1.192              0.596
 Vibration    16          0.918              1.113              0.519
 Vibration    17          0.956              1.036              0.453

                           ! Non-Optimized Parameters !
 Normal termination of Gaussian 16 at Thu Dec 10 16:09:47 2020.

 ----------------------------------------------------------------------
 # B3LYP/6-311++G(d,p) empiricaldispersion=gd3bj scf=xqc pop=npa geom=c
 heck
 ----------------------------------------------------------------------

 ---------------------------------------
 CID_154503964_JID_5438_Energie_neutraal
 ---------------------------------------
 Structure from the checkpoint file:  "JID_5438.chk"
 Charge =  0 Multiplicity = 1

 SCF Done:  E(RB3LYP) =  -987.238375953     A.U. after   16 cycles
 Normal termination of Gaussian 16 at Thu Dec 10 16:12:34 2020.

 ----------------------------------------------------------------------
 # B3LYP/6-311++G(d,p) empiricaldispersion=gd3bj scf=xqc pop=npa geom=c
 heck
 ----------------------------------------------------------------------

 -------------------------------------
 CID_154503964_JID_5438_Energie_kation
 -------------------------------------
 Structure from the checkpoint file:  "JID_5438.chk"
 Charge =  1 Multiplicity = 2

 SCF Done:  E(UB3LYP) =  -986.951399257     A.U. after   26 cycles
 Normal termination of Gaussian 16 at Thu Dec 10 16:18:54 2020.
 Gaussian 16:  ES64L-G16RevA.03 25-Dec-2016

 ----------------------------------------------------------------------
 # B3LYP/6-311++G(d,p) empiricaldispersion=gd3bj scf=xqc pop=npa geom=c
 heck
 ----------------------------------------------------------------------

 ------------------------------------
 CID_154503964_JID_5438_Energie_anion
 ------------------------------------
 Structure from the checkpoint file:  "JID_5438.chk"
 Charge = -1 Multiplicity = 2

                         Standard orientation:
 ---------------------------------------------------------------------
 Center     Atomic      Atomic             Coordinates (Angstroms)
 Number     Number       Type             X           Y           Z
 ---------------------------------------------------------------------
      1          6           0        3.237461   -1.631749    1.181426
      2         16           0        3.114585   -0.994205   -0.525047
      3          7           0        2.038549    0.307617   -0.275492
      4          6           0        0.658314    0.250519   -0.183839
      5          7           0       -0.091401   -0.825919   -0.258303
      6          6           0       -1.427183   -0.602600   -0.128044
      7          6           0       -2.305706   -1.718338   -0.202535
      8          6           0       -3.663286   -1.553243   -0.077138
      9          6           0       -4.222589   -0.264133    0.131203
     10          6           0       -3.407249    0.836697    0.209962
     11          6           0       -1.994530    0.710553    0.084838
     12          6           0       -1.130041    1.823036    0.168950
     13          6           0        0.226895    1.598620    0.035847
     14          6           0        1.442958    2.360383    0.066596
     15          7           0        2.498773    1.599168   -0.106734
     16          1           0        3.929442   -2.479082    1.142019
     17          1           0        2.260805   -1.977574    1.526766
     18          1           0        3.639169   -0.866318    1.849135
     19          1           0       -1.859411   -2.694071   -0.363867
     20          1           0       -4.321078   -2.415577   -0.138142
     21          1           0       -5.298677   -0.155032    0.227565
     22          1           0       -3.826552    1.827051    0.369545
     23          1           0       -1.536261    2.817224    0.337616
     24          1           0        1.567490    3.426127    0.210220
 ---------------------------------------------------------------------

 SCF Done:  E(UB3LYP) =  -987.264957278     A.U. after   23 cycles

 The electronic state is 2-A.
 Alpha  occ. eigenvalues --  -88.75913 -14.25170 -14.18543 -14.14334 -10.09000
 Alpha  occ. eigenvalues --  -10.08865 -10.06061 -10.05219 -10.03742 -10.03178
 Alpha  occ. eigenvalues --  -10.02853 -10.02721 -10.02699 -10.01987 -10.01907
 Alpha  occ. eigenvalues --   -7.84251  -5.80814  -5.80291  -5.79470  -0.90312
 Alpha  occ. eigenvalues --   -0.79308  -0.72470  -0.70052  -0.65734  -0.64107
 Alpha  occ. eigenvalues --   -0.60839  -0.59361  -0.54112  -0.51648  -0.47900
 Alpha  occ. eigenvalues --   -0.45517  -0.43123  -0.39468  -0.38810  -0.36125
 Alpha  occ. eigenvalues --   -0.33716  -0.32613  -0.32084  -0.31540  -0.29849
 Alpha  occ. eigenvalues --   -0.29276  -0.28775  -0.28279  -0.25836  -0.25326
 Alpha  occ. eigenvalues --   -0.23133  -0.21984  -0.21170  -0.19427  -0.17360
 Alpha  occ. eigenvalues --   -0.15746  -0.13073  -0.12311  -0.11622  -0.10445
 Alpha  occ. eigenvalues --   -0.07952   0.03112
 Alpha virt. eigenvalues --    0.07898   0.08854   0.09785   0.10572   0.10993
 Alpha virt. eigenvalues --    0.11585   0.12178   0.12384   0.12918   0.12965
 Alpha virt. eigenvalues --    0.13756   0.14254   0.14881   0.15217   0.16460

  Beta  occ. eigenvalues --  -88.75914 -14.25196 -14.18110 -14.13986 -10.09009
  Beta  occ. eigenvalues --  -10.08867 -10.06039 -10.05166 -10.03861 -10.03206
  Beta  occ. eigenvalues --  -10.02701 -10.02677 -10.02462 -10.01881 -10.01382
  Beta  occ. eigenvalues --   -7.84252  -5.80815  -5.80291  -5.79471  -0.90000
  Beta  occ. eigenvalues --   -0.78840  -0.72257  -0.69764  -0.65129  -0.63940
  Beta  occ. eigenvalues --   -0.60576  -0.58981  -0.53975  -0.51034  -0.47788
  Beta  occ. eigenvalues --   -0.45208  -0.42906  -0.39222  -0.38560  -0.35948
  Beta  occ. eigenvalues --   -0.33510  -0.32543  -0.31868  -0.31332  -0.29689
  Beta  occ. eigenvalues --   -0.29057  -0.28628  -0.28064  -0.25475  -0.24790
  Beta  occ. eigenvalues --   -0.22707  -0.21851  -0.20997  -0.18152  -0.15927
  Beta  occ. eigenvalues --   -0.15215  -0.12755  -0.11764  -0.11257  -0.09455
  Beta  occ. eigenvalues --   -0.06290
  Beta virt. eigenvalues --    0.07905   0.08836   0.09080   0.09784   0.10557
  Beta virt. eigenvalues --    0.11000   0.11585   0.12269   0.12558   0.12952
  Beta virt. eigenvalues --    0.13256   0.14270   0.14385   0.15211   0.15631

 Mulliken charges and spin densities:
               1          2
     1  C   -0.591934  -0.005368
     2  S    0.051528   0.002324
     3  N    0.275992  -0.029038
     4  C   -0.877123   0.003960
     5  N   -0.092256   0.162738
     6  C   -0.739718   0.024470
     7  C   -0.345840   0.048440
     8  C   -0.153062   0.131750
     9  C   -0.355642  -0.010892
    10  C   -0.003117   0.162039
    11  C    0.949752  -0.102209
    12  C   -0.514033   0.418683
    13  C    0.821974   0.001650
    14  C   -0.391086   0.042975
    15  N   -0.153776   0.207511
    16  H    0.131574  -0.000847
    17  H    0.195251   0.001662
    18  H    0.168957   0.002972
    19  H    0.122896  -0.006651
    20  H    0.109406  -0.010027
    21  H    0.100621   0.001403
    22  H    0.088849  -0.013377
    23  H    0.083795  -0.028673
    24  H    0.116994  -0.005495
 Sum of Mulliken charges =  -1.00000   1.00000

 Dipole moment (field-independent basis, Debye):
    X=              1.3059    Y=             -0.8912    Z=              1.6201  Tot=              2.2637
 Quadrupole moment (field-independent basis, Debye-Ang):
   XX=           -134.4306   YY=           -105.5870   ZZ=           -103.7667
   XY=            -10.8007   XZ=              4.2137   YZ=             -1.2875

 Summary of Natural Population Analysis:

                                       Natural Population
                Natural  -----------------------------------------------
    Atom  No    Charge         Core      Valence    Rydberg      Total
 -----------------------------------------------------------------------
      C    1   -0.35752      0.99962     2.35307    0.00483     3.35752
      S    2    0.20587      4.99960     2.77125    0.02328     7.79413
      N    3   -0.22152      0.99961     2.70234    0.01957     3.72152
      C    4    0.19728      0.99947     1.78658    0.01667     2.80272
      N    5   -0.21427      0.99964     2.70230    0.01234     3.71427
      C    6    0.09356      0.99949     1.89446    0.01249     2.90644
      C    7   -0.09007      0.99953     2.08069    0.00985     3.09007
      C    8   -0.08073      0.99957     2.07158    0.00957     3.08073
      C    9   -0.15111      0.99961     2.13384    0.01765     3.15111
      C   10   -0.00350      0.99955     1.99851    0.00545     3.00350
      C   11   -0.09051      0.99953     2.07591    0.01507     3.09051
      C   12    0.03598      0.99951     1.95586    0.00865     2.96402
      C   13   -0.07801      0.99949     2.06983    0.00870     3.07801
      C   14   -0.00079      0.99962     1.98642    0.01475     3.00079
      N   15   -0.07971      0.99971     2.56744    0.01256     3.57971
      H   16    0.09711      0.00000     0.40172    0.00117     0.40289
      H   17    0.10929      0.00000     0.38925    0.00146     0.39071
      H   18    0.10250      0.00000     0.39616    0.00135     0.39750
      H   19    0.09554      0.00000     0.40290    0.00155     0.40446
      H   20    0.08714      0.00000     0.41162    0.00124     0.41286
      H   21    0.09024      0.00000     0.40885    0.00091     0.40976
      H   22    0.08194      0.00000     0.41627    0.00179     0.41806
      H   23    0.08391      0.00000     0.41457    0.00152     0.41609
      H   24    0.08814      0.00000     0.41077    0.00109     0.41186
 =======================================================================
   * Total *    0.00076     18.99354    36.80220    0.20350    55.99924

 Normal termination of Gaussian 16 at Thu Dec 10 16:26:55 2020.
