 Gaussian 16, Revision A.03,

 -----------------------------------------------------------
 # opt freq B3LYP/6-31G(d) empiricaldispersion=gd3bj scf=xqc
 -----------------------------------------------------------

 -----------------------------
 CID_58526105_JID_704_neutraal
 -----------------------------
 Symbolic Z-matrix:
 Charge =  0 Multiplicity = 1

 SCF Done:  E(RB3LYP) =  -518.020336387     A.U. after   13 cycles
 SCF Done:  E(RB3LYP) =  -518.021926391     A.U. after   11 cycles
 SCF Done:  E(RB3LYP) =  -518.022479247     A.U. after   11 cycles
 SCF Done:  E(RB3LYP) =  -518.022967484     A.U. after   11 cycles
 SCF Done:  E(RB3LYP) =  -518.023114445     A.U. after   10 cycles
 SCF Done:  E(RB3LYP) =  -518.023167398     A.U. after   11 cycles
 SCF Done:  E(RB3LYP) =  -518.023184842     A.U. after   10 cycles
 SCF Done:  E(RB3LYP) =  -518.023192109     A.U. after    9 cycles
 SCF Done:  E(RB3LYP) =  -518.023199307     A.U. after    9 cycles
 SCF Done:  E(RB3LYP) =  -518.023206630     A.U. after   10 cycles
 SCF Done:  E(RB3LYP) =  -518.023265685     A.U. after    9 cycles
 SCF Done:  E(RB3LYP) =  -518.023267512     A.U. after    8 cycles
 SCF Done:  E(RB3LYP) =  -518.023270622     A.U. after    9 cycles
 SCF Done:  E(RB3LYP) =  -518.023271286     A.U. after    9 cycles
 SCF Done:  E(RB3LYP) =  -518.023271416     A.U. after    8 cycles
 SCF Done:  E(RB3LYP) =  -518.023271409     A.U. after    6 cycles
 Optimization completed.
    -- Stationary point found.
 Normal termination of Gaussian 16 at Tue Dec  8 12:43:35 2020.

 --------------------------------------------------------------------
 #N Geom=AllCheck Guess=TCheck SCRF=Check GenChk RB3LYP/6-31G(d) Freq
 --------------------------------------------------------------------

 Structure from the checkpoint file:  "JID_704.chk"
 -----------------------------
 CID_58526105_JID_704_neutraal
 -----------------------------
 Charge =  0 Multiplicity = 1

 SCF Done:  E(RB3LYP) =  -518.023271409     A.U. after    1 cycles

  Exact polarizability:  92.986  -2.285  83.141  -1.042   4.192  73.291
 Approx polarizability: 110.894  -2.064 114.844  -0.084   6.894 104.572

                      1                      2                      3
                      A                      A                      A
 Frequencies --     29.4865                54.2355                86.8370
 Red. masses --      3.9485                 3.4989                 3.1381
 Frc consts  --      0.0020                 0.0061                 0.0139
 IR Inten    --      0.3467                 3.1160                 1.2862

                      4                      5                      6
                      A                      A                      A
 Frequencies --     98.1526               160.4703               176.2861
 Red. masses --      2.1580                 2.4154                 2.3808
 Frc consts  --      0.0122                 0.0366                 0.0436
 IR Inten    --      1.4963                 4.3556                28.4603

                      7                      8                      9
                      A                      A                      A
 Frequencies --    217.1635               232.9646               242.7291
 Red. masses --      2.9668                 1.4063                 1.4035
 Frc consts  --      0.0824                 0.0450                 0.0487
 IR Inten    --      9.6193                44.6362                 4.5515

                     10                     11                     12
                      A                      A                      A
 Frequencies --    252.8723               282.2695               312.6464
 Red. masses --      1.2568                 2.8241                 2.1816
 Frc consts  --      0.0474                 0.1326                 0.1256
 IR Inten    --      0.3469                 1.2986                 4.6754

                     13                     14                     15
                      A                      A                      A
 Frequencies --    327.8041               382.4178               420.6268
 Red. masses --      2.7974                 3.6212                 2.0665
 Frc consts  --      0.1771                 0.3120                 0.2154
 IR Inten    --      4.0129                 2.0141                 4.1604

                     16                     17                     18
                      A                      A                      A
 Frequencies --    481.5618               546.0792               713.0128
 Red. masses --      3.5459                 2.1286                 2.6310
 Frc consts  --      0.4845                 0.3740                 0.7881
 IR Inten    --     20.4355                 8.6898                 6.3332

                     19                     20                     21
                      A                      A                      A
 Frequencies --    768.5007               837.6753               874.9188
 Red. masses --      4.0727                 2.7511                 2.8705
 Frc consts  --      1.4172                 1.1374                 1.2946
 IR Inten    --     13.6161                 2.1782                21.8661

                     22                     23                     24
                      A                      A                      A
 Frequencies --    901.7754               944.5983               967.1066
 Red. masses --      3.3096                 1.8561                 2.4380
 Frc consts  --      1.5857                 0.9758                 1.3435
 IR Inten    --      7.2928                 8.8715                30.5799

                     25                     26                     27
                      A                      A                      A
 Frequencies --    999.3146              1058.1174              1092.4488
 Red. masses --      2.1927                 2.6521                 1.8728
 Frc consts  --      1.2901                 1.7495                 1.3169
 IR Inten    --     24.7550                69.1234                16.8506

                     28                     29                     30
                      A                      A                      A
 Frequencies --   1119.5365              1141.7959              1164.6192
 Red. masses --      1.9811                 2.3720                 3.4387
 Frc consts  --      1.4629                 1.8220                 2.7480
 IR Inten    --     13.3663               100.6989                64.1595

                     31                     32                     33
                      A                      A                      A
 Frequencies --   1175.1232              1194.8126              1196.8931
 Red. masses --      3.0593                 1.3600                 2.1353
 Frc consts  --      2.4890                 1.1439                 1.8022
 IR Inten    --     29.6737                11.7393                45.1484

                     34                     35                     36
                      A                      A                      A
 Frequencies --   1241.0446              1259.9305              1278.1123
 Red. masses --      1.7106                 1.4301                 1.1299
 Frc consts  --      1.5523                 1.3375                 1.0875
 IR Inten    --     19.6612                66.3055                 6.6897

                     37                     38                     39
                      A                      A                      A
 Frequencies --   1332.3609              1352.8339              1364.3589
 Red. masses --      1.1607                 1.1448                 1.1292
 Frc consts  --      1.2140                 1.2344                 1.2385
 IR Inten    --     17.3306                 6.6627                 1.8457

                     40                     41                     42
                      A                      A                      A
 Frequencies --   1376.8678              1397.0900              1407.2061
 Red. masses --      1.4471                 1.2742                 1.2264
 Frc consts  --      1.6164                 1.4653                 1.4309
 IR Inten    --      6.9282                14.9954                29.8004

                     43                     44                     45
                      A                      A                      A
 Frequencies --   1427.0977              1441.7823              1450.0938
 Red. masses --      1.2885                 1.3496                 1.3211
 Frc consts  --      1.5461                 1.6529                 1.6367
 IR Inten    --      4.4147                16.6487                 5.9011

                     46                     47                     48
                      A                      A                      A
 Frequencies --   1500.0043              1510.1838              1510.7864
 Red. masses --      1.1531                 1.0615                 1.0839
 Frc consts  --      1.5287                 1.4264                 1.4576
 IR Inten    --      6.8409                 4.9738                 4.8618

                     49                     50                     51
                      A                      A                      A
 Frequencies --   1514.8383              1522.7530              1527.5618
 Red. masses --      1.0476                 1.0773                 1.0680
 Frc consts  --      1.4164                 1.4717                 1.4683
 IR Inten    --      4.8625                 3.1572                12.5715

                     52                     53                     54
                      A                      A                      A
 Frequencies --   1549.2415              1551.9985              1664.7881
 Red. masses --      1.0830                 1.0594                 1.0672
 Frc consts  --      1.5315                 1.5035                 1.7426
 IR Inten    --      2.1906                 4.1643                33.9099

                     55                     56                     57
                      A                      A                      A
 Frequencies --   2971.7958              2993.8833              3015.2789
 Red. masses --      1.0581                 1.0397                 1.0994
 Frc consts  --      5.5060                 5.4905                 5.8895
 IR Inten    --     41.7483                88.8514                49.3899

                     58                     59                     60
                      A                      A                      A
 Frequencies --   3029.7151              3037.7105              3063.2977
 Red. masses --      1.0826                 1.1052                 1.0513
 Frc consts  --      5.8552                 6.0085                 5.8125
 IR Inten    --     18.3459                56.9366                58.5948

                     61                     62                     63
                      A                      A                      A
 Frequencies --   3067.1765              3074.0225              3112.7265
 Red. masses --      1.0465                 1.0593                 1.1080
 Frc consts  --      5.8005                 5.8975                 6.3251
 IR Inten    --     46.8938                13.5665                13.1454

                     64                     65                     66
                      A                      A                      A
 Frequencies --   3116.1798              3132.4805              3140.7094
 Red. masses --      1.1069                 1.1018                 1.0969
 Frc consts  --      6.3328                 6.3699                 6.3751
 IR Inten    --     42.6933                24.3552                27.6522

                     67                     68                     69
                      A                      A                      A
 Frequencies --   3168.5305              3418.7696              3527.6995
 Red. masses --      1.0987                 1.0488                 1.0951
 Frc consts  --      6.4988                 7.2227                 8.0294
 IR Inten    --     11.7237                 3.9686                 0.1857

 - Thermochemistry -
 -------------------
 Temperature   298.150 Kelvin.  Pressure   1.00000 Atm.
 Atom     1 has atomic number  6 and mass  12.00000

 Molecular mass:   149.10519 amu.
 Principal axes and moments of inertia in atomic units:
                           1         2         3
     Eigenvalues --   756.416592583.486712872.02637
           X            0.99997  -0.00176  -0.00686
           Y            0.00188   0.99986   0.01689
           Z            0.00683  -0.01691   0.99983
 This molecule is an asymmetric top.
 Rotational symmetry number  1.
 Warning -- assumption of classical behavior for rotation
           may cause significant error
 Rotational temperatures (Kelvin)      0.11451     0.03353     0.03016
 Rotational constants (GHZ):           2.38591     0.69857     0.62839
 Zero-point vibrational energy     583214.0 (Joules/Mol)
                                  139.39149 (Kcal/Mol)
 Warning -- explicit consideration of  17 degrees of freedom as
           vibrations may cause significant error
 Vibrational temperatures:     42.42    78.03   124.94   141.22   230.88
          (Kelvin)            253.64   312.45   335.18   349.23   363.83
                              406.12   449.83   471.64   550.21   605.19
                              692.86   785.69  1025.87  1105.70  1205.23
                             1258.81  1297.45  1359.07  1391.45  1437.79
                             1522.39  1571.79  1610.76  1642.79  1675.63
                             1690.74  1719.07  1722.06  1785.59  1812.76
                             1838.92  1916.97  1946.43  1963.01  1981.01
                             2010.10  2024.66  2053.28  2074.40  2086.36
                             2158.17  2172.82  2173.68  2179.51  2190.90
                             2197.82  2229.01  2232.98  2395.26  4275.75
                             4307.53  4338.31  4359.08  4370.59  4407.40
                             4412.98  4422.83  4478.52  4483.49  4506.94
                             4518.78  4558.81  4918.85  5075.57

 Zero-point correction=                           0.222134 (Hartree/Particle)
 Thermal correction to Energy=                    0.234519
 Thermal correction to Enthalpy=                  0.235463
 Thermal correction to Gibbs Free Energy=         0.183001
 Sum of electronic and zero-point Energies=           -517.801137
 Sum of electronic and thermal Energies=              -517.788753
 Sum of electronic and thermal Enthalpies=            -517.787808
 Sum of electronic and thermal Free Energies=         -517.840270

                     E (Thermal)             CV                S
                      KCal/Mol        Cal/Mol-Kelvin    Cal/Mol-Kelvin
 Total                  147.163             43.508            110.414
 Electronic               0.000              0.000              0.000
 Translational            0.889              2.981             40.909
 Rotational               0.889              2.981             30.108
 Vibrational            145.385             37.547             39.398
 Vibration     1          0.593              1.984              5.864
 Vibration     2          0.596              1.976              4.657
 Vibration     3          0.601              1.958              3.730
 Vibration     4          0.604              1.950              3.491
 Vibration     5          0.622              1.891              2.544
 Vibration     6          0.628              1.872              2.367
 Vibration     7          0.646              1.815              1.983
 Vibration     8          0.654              1.791              1.856
 Vibration     9          0.659              1.775              1.783
 Vibration    10          0.664              1.758              1.710
 Vibration    11          0.681              1.706              1.520
 Vibration    12          0.701              1.650              1.348
 Vibration    13          0.711              1.620              1.271
 Vibration    14          0.752              1.508              1.030
 Vibration    15          0.783              1.425              0.890
 Vibration    16          0.838              1.291              0.706
 Vibration    17          0.901              1.148              0.552

 Optimization completed.
    -- Stationary point found.
 Normal termination of Gaussian 16 at Tue Dec  8 12:51:13 2020.

 ----------------------------------------------------------------------
 # B3LYP/6-311++G(d,p) empiricaldispersion=gd3bj scf=xqc pop=npa geom=c
 heck
 ----------------------------------------------------------------------

 -------------------------------------
 CID_58526105_JID_704_Energie_neutraal
 -------------------------------------
 Structure from the checkpoint file:  "JID_704.chk"
 Charge =  0 Multiplicity = 1

 SCF Done:  E(RB3LYP) =  -518.188282731     A.U. after   13 cycles
 Normal termination of Gaussian 16 at Tue Dec  8 13:04:04 2020.

 ----------------------------------------------------------------------
 # B3LYP/6-311++G(d,p) empiricaldispersion=gd3bj scf=xqc pop=npa geom=c
 heck
 ----------------------------------------------------------------------

 -----------------------------------
 CID_58526105_JID_704_Energie_kation
 -----------------------------------
 Structure from the checkpoint file:  "JID_704.chk"
 Charge =  1 Multiplicity = 2

 SCF Done:  E(UB3LYP) =  -517.878425748     A.U. after   21 cycles
 Normal termination of Gaussian 16 at Tue Dec  8 13:09:28 2020.
 Gaussian 16:  ES64L-G16RevA.03 25-Dec-2016

 ----------------------------------------------------------------------
 # B3LYP/6-311++G(d,p) empiricaldispersion=gd3bj scf=xqc pop=npa geom=c
 heck
 ----------------------------------------------------------------------

 ----------------------------------
 CID_58526105_JID_704_Energie_anion
 ----------------------------------
 Structure from the checkpoint file:  "JID_704.chk"
 Charge = -1 Multiplicity = 2

                         Standard orientation:
 ---------------------------------------------------------------------
 Center     Atomic      Atomic             Coordinates (Angstroms)
 Number     Number       Type             X           Y           Z
 ---------------------------------------------------------------------
      1          6           0        1.074360    1.568996   -0.882424
      2          6           0        1.509761    0.953024    0.447811
      3          6           0        0.486380    0.057853    1.164320
      4          8           0        0.248908   -1.224893    0.582028
      5          6           0       -0.620437   -1.291816   -0.538157
      6          6           0       -2.074704   -0.962130   -0.234899
      7          8           0       -2.253127    0.444442   -0.176763
      8          6           0       -3.585798    0.809465    0.111596
      9          8           0        2.787988    0.312413    0.368996
     10          7           0        2.770960   -0.716925   -0.654115
     11          1           0        1.147742    0.833712   -1.684804
     12          1           0        1.731262    2.407779   -1.135997
     13          1           0        0.042616    1.929071   -0.822637
     14          1           0        1.703058    1.768766    1.159335
     15          1           0        0.894938   -0.174179    2.153271
     16          1           0       -0.452022    0.608769    1.293139
     17          1           0       -0.272945   -0.664062   -1.365351
     18          1           0       -0.569476   -2.335736   -0.865983
     19          1           0       -2.713483   -1.385853   -1.029818
     20          1           0       -2.369520   -1.431201    0.718114
     21          1           0       -4.281810    0.433951   -0.655618
     22          1           0       -3.910185    0.423800    1.091068
     23          1           0       -3.626706    1.901328    0.126061
     24          1           0        3.766973   -0.802369   -0.859756
     25          1           0        2.505325   -1.563355   -0.145780
 ---------------------------------------------------------------------

 SCF Done:  E(UB3LYP) =  -518.171476008     A.U. after   27 cycles

 The electronic state is 2-A.
 Alpha  occ. eigenvalues --  -19.04291 -19.02348 -19.02008 -14.24038 -10.11829
 Alpha  occ. eigenvalues --  -10.11095 -10.11038 -10.10573 -10.10372 -10.05157
 Alpha  occ. eigenvalues --   -0.95798  -0.93965  -0.92269  -0.72839  -0.66347
 Alpha  occ. eigenvalues --   -0.63757  -0.59598  -0.55554  -0.50710  -0.46897
 Alpha  occ. eigenvalues --   -0.41974  -0.40032  -0.39386  -0.38086  -0.37132
 Alpha  occ. eigenvalues --   -0.35553  -0.34093  -0.33684  -0.32800  -0.29630
 Alpha  occ. eigenvalues --   -0.29466  -0.27666  -0.27297  -0.26516  -0.24184
 Alpha  occ. eigenvalues --   -0.22780  -0.20611  -0.20074  -0.16368  -0.14923
 Alpha  occ. eigenvalues --   -0.13683   0.04721
 Alpha virt. eigenvalues --    0.06615   0.07479   0.08479   0.08802   0.09894
 Alpha virt. eigenvalues --    0.10207   0.11075   0.11450   0.12039   0.12629
 Alpha virt. eigenvalues --    0.13638   0.13838   0.14657   0.15123   0.16126

  Beta  occ. eigenvalues --  -19.04284 -19.02335 -19.02006 -14.24005 -10.11824
  Beta  occ. eigenvalues --  -10.11066 -10.11021 -10.10562 -10.10317 -10.05145
  Beta  occ. eigenvalues --   -0.95774  -0.93946  -0.92258  -0.72781  -0.66307
  Beta  occ. eigenvalues --   -0.63725  -0.59552  -0.55473  -0.50642  -0.46859
  Beta  occ. eigenvalues --   -0.41945  -0.39971  -0.39349  -0.38038  -0.37099
  Beta  occ. eigenvalues --   -0.35515  -0.34058  -0.33654  -0.32770  -0.29602
  Beta  occ. eigenvalues --   -0.29418  -0.27623  -0.27274  -0.26501  -0.24154
  Beta  occ. eigenvalues --   -0.22714  -0.20592  -0.20042  -0.16342  -0.14898
  Beta  occ. eigenvalues --   -0.13665
  Beta virt. eigenvalues --    0.06941   0.07813   0.08211   0.09013   0.09363
  Beta virt. eigenvalues --    0.10679   0.10875   0.11344   0.11822   0.12545
  Beta virt. eigenvalues --    0.13062   0.14039   0.14108   0.14974   0.15418

 Mulliken charges and spin densities:
               1          2
     1  C    0.203581  -0.805439
     2  C   -0.408648   0.575492
     3  C    0.318198  -0.856058
     4  O   -0.127315   0.020623
     5  C   -0.364104   0.128479
     6  C    0.808178  -1.119280
     7  O   -0.250389   0.109283
     8  C    1.315520  -1.585434
     9  O   -0.127676   0.045205
    10  N   -0.139476  -0.306459
    11  H    0.088976   0.090852
    12  H    0.070069   0.069568
    13  H    0.042349   0.106982
    14  H   -0.122301   0.311933
    15  H   -0.158585   0.333366
    16  H    0.061439   0.096392
    17  H    0.261440  -0.094224
    18  H   -0.738503   0.912562
    19  H   -0.313092   0.443605
    20  H    0.053535   0.105508
    21  H   -0.547756   0.683046
    22  H   -0.493490   0.630074
    23  H   -0.435447   0.570505
    24  H   -0.070728   0.342390
    25  H    0.074225   0.191029
 Sum of Mulliken charges =  -1.00000   1.00000

 Dipole moment (field-independent basis, Debye):
    X=              4.8824    Y=              0.7856    Z=              0.2479  Tot=              4.9514
 Quadrupole moment (field-independent basis, Debye-Ang):
   XX=           -138.9820   YY=            -99.6038   ZZ=            -93.5151
   XY=              3.2124   XZ=             -0.7569   YZ=             -2.7814

 Summary of Natural Population Analysis:

                                       Natural Population
                Natural  -----------------------------------------------
    Atom  No    Charge         Core      Valence    Rydberg      Total
 -----------------------------------------------------------------------
      C    1   -0.30646      0.99963     2.30137    0.00546     3.30646
      C    2    0.05275      0.99957     1.93243    0.01525     2.94725
      C    3   -0.02493      0.99952     2.01168    0.01372     3.02493
      O    4   -0.30721      0.99989     3.29666    0.01066     4.30721
      C    5   -0.01916      0.99955     2.00573    0.01388     3.01916
      C    6   -0.02290      0.99959     2.01140    0.01191     3.02290
      O    7   -0.30328      0.99988     3.29326    0.01014     4.30328
      C    8   -0.09667      0.99962     2.08769    0.00936     3.09667
      O    9   -0.24253      0.99989     3.23073    0.01191     4.24253
      N   10   -0.25966      0.99976     2.74792    0.01198     3.75966
      H   11    0.10884      0.00000     0.38941    0.00175     0.39116
      H   12    0.09704      0.00000     0.40190    0.00106     0.40296
      H   13    0.10810      0.00000     0.39047    0.00142     0.39190
      H   14    0.09213      0.00000     0.40617    0.00171     0.40787
      H   15    0.08988      0.00000     0.40867    0.00145     0.41012
      H   16    0.09485      0.00000     0.40320    0.00194     0.40515
      H   17    0.08674      0.00000     0.41105    0.00220     0.41326
      H   18    0.09245      0.00000     0.40593    0.00162     0.40755
      H   19    0.08450      0.00000     0.41337    0.00214     0.41550
      H   20    0.08284      0.00000     0.41541    0.00175     0.41716
      H   21    0.08065      0.00000     0.41661    0.00274     0.41935
      H   22    0.07969      0.00000     0.41789    0.00242     0.42031
      H   23    0.09111      0.00000     0.40729    0.00161     0.40889
      H   24    0.16792      0.00000     0.32977    0.00230     0.33208
      H   25    0.17332      0.00000     0.32429    0.00240     0.32668
 =======================================================================
   * Total *    0.00000      9.99691    30.86032    0.14277    41.00000

 Normal termination of Gaussian 16 at Tue Dec  8 13:17:20 2020.
