 Gaussian 16, Revision A.03,

 -----------------------------------------------------------
 # opt freq B3LYP/6-31G(d) empiricaldispersion=gd3bj scf=xqc
 -----------------------------------------------------------

 -----------------------------
 CID_53675575_JID_476_neutraal
 -----------------------------
 Symbolic Z-matrix:
 Charge =  0 Multiplicity = 1

 SCF Done:  E(RB3LYP) =  -479.795840390     A.U. after   14 cycles
 SCF Done:  E(RB3LYP) =  -479.798191782     A.U. after   13 cycles
 SCF Done:  E(RB3LYP) =  -479.799057982     A.U. after   13 cycles
 SCF Done:  E(RB3LYP) =  -479.800502025     A.U. after   15 cycles
 SCF Done:  E(RB3LYP) =  -479.802548642     A.U. after   12 cycles
 SCF Done:  E(RB3LYP) =  -479.804229739     A.U. after   13 cycles
 SCF Done:  E(RB3LYP) =  -479.804676324     A.U. after   15 cycles
 SCF Done:  E(RB3LYP) =  -479.805531190     A.U. after   12 cycles
 SCF Done:  E(RB3LYP) =  -479.805709659     A.U. after   12 cycles
 SCF Done:  E(RB3LYP) =  -479.805766942     A.U. after   12 cycles
 SCF Done:  E(RB3LYP) =  -479.805905259     A.U. after    8 cycles
 SCF Done:  E(RB3LYP) =  -479.805905746     A.U. after    9 cycles
 SCF Done:  E(RB3LYP) =  -479.805905266     A.U. after    9 cycles
 SCF Done:  E(RB3LYP) =  -479.805905247     A.U. after    7 cycles
 SCF Done:  E(RB3LYP) =  -479.805905707     A.U. after    9 cycles
 SCF Done:  E(RB3LYP) =  -479.805905176     A.U. after    9 cycles
 Optimization completed.
    -- Stationary point found.
 Normal termination of Gaussian 16 at Tue Dec  8 10:48:45 2020.

 --------------------------------------------------------------------
 #N Geom=AllCheck Guess=TCheck SCRF=Check GenChk RB3LYP/6-31G(d) Freq
 --------------------------------------------------------------------

 Structure from the checkpoint file:  "JID_476.chk"
 -----------------------------
 CID_53675575_JID_476_neutraal
 -----------------------------
 Charge =  0 Multiplicity = 1

 SCF Done:  E(RB3LYP) =  -479.805905176     A.U. after    1 cycles

  Exact polarizability: 105.852   5.278  83.113   9.926   1.161  71.543
 Approx polarizability: 140.984  16.765 125.652  20.890   6.648 101.792

                      1                      2                      3
                      A                      A                      A
 Frequencies --     25.2347                43.8551                59.5449
 Red. masses --      3.6753                 4.8425                 4.0813
 Frc consts  --      0.0014                 0.0055                 0.0085
 IR Inten    --      0.0740                 0.7282                 2.8424

                      4                      5                      6
                      A                      A                      A
 Frequencies --     88.3829               106.2439               159.2522
 Red. masses --      1.6942                 1.2455                 2.6031
 Frc consts  --      0.0078                 0.0083                 0.0389
 IR Inten    --      0.0938                 0.1761                 0.6544

                      7                      8                      9
                      A                      A                      A
 Frequencies --    209.3900               268.6415               276.5288
 Red. masses --      1.8750                 2.1197                 2.2558
 Frc consts  --      0.0484                 0.0901                 0.1016
 IR Inten    --      2.1330                 2.7969                 2.6210

                     10                     11                     12
                      A                      A                      A
 Frequencies --    326.5753               373.9985               412.9099
 Red. masses --      2.5301                 2.1451                 4.9619
 Frc consts  --      0.1590                 0.1768                 0.4984
 IR Inten    --      1.4771                 1.9827                 5.8705

                     13                     14                     15
                      A                      A                      A
 Frequencies --    441.2693               489.8436               554.7189
 Red. masses --      2.6059                 3.5748                 3.0943
 Frc consts  --      0.2990                 0.5054                 0.5610
 IR Inten    --      0.3016                 1.7435                12.2364

                     16                     17                     18
                      A                      A                      A
 Frequencies --    636.4835               642.7746               757.4919
 Red. masses --      1.4016                 2.7561                 1.4943
 Frc consts  --      0.3345                 0.6709                 0.5052
 IR Inten    --     81.9277                50.3217                20.1608

                     19                     20                     21
                      A                      A                      A
 Frequencies --    762.0273               772.1676               826.1150
 Red. masses --      2.5536                 3.3270                 2.5251
 Frc consts  --      0.8737                 1.1688                 1.0153
 IR Inten    --     22.8396                16.8184                 5.5495

                     22                     23                     24
                      A                      A                      A
 Frequencies --    875.5617               944.2101               987.7784
 Red. masses --      1.5375                 1.8704                 2.1219
 Frc consts  --      0.6945                 0.9825                 1.2198
 IR Inten    --      5.0544                 2.4828                 3.5698

                     25                     26                     27
                      A                      A                      A
 Frequencies --    992.8795              1058.1139              1060.3296
 Red. masses --      1.5064                 2.0120                 1.6851
 Frc consts  --      0.8749                 1.3272                 1.1163
 IR Inten    --      1.2149                10.0994                 1.9074

                     28                     29                     30
                      A                      A                      A
 Frequencies --   1109.5087              1129.8231              1146.2646
 Red. masses --      2.5336                 1.8840                 2.2014
 Frc consts  --      1.8376                 1.4170                 1.7042
 IR Inten    --     20.2100                13.3269                56.5297

                     31                     32                     33
                      A                      A                      A
 Frequencies --   1170.9293              1244.4651              1258.7172
 Red. masses --      2.7725                 1.4968                 1.4479
 Frc consts  --      2.2397                 1.3658                 1.3516
 IR Inten    --    155.6122                33.8870                13.6639

                     34                     35                     36
                      A                      A                      A
 Frequencies --   1281.5649              1333.1393              1384.2713
 Red. masses --      1.3412                 1.1551                 1.3385
 Frc consts  --      1.2978                 1.2095                 1.5112
 IR Inten    --      0.4408                 0.4973                16.5322

                     37                     38                     39
                      A                      A                      A
 Frequencies --   1404.6393              1413.4138              1416.7868
 Red. masses --      1.5138                 1.6707                 1.4591
 Frc consts  --      1.7597                 1.9665                 1.7257
 IR Inten    --      6.3724                49.2810                 5.1285

                     40                     41                     42
                      A                      A                      A
 Frequencies --   1428.7362              1442.8088              1502.1510
 Red. masses --      1.5252                 1.2718                 1.0797
 Frc consts  --      1.8343                 1.5599                 1.4355
 IR Inten    --     13.2232                 4.5256                 3.7759

                     43                     44                     45
                      A                      A                      A
 Frequencies --   1507.5459              1512.8100              1521.0685
 Red. masses --      1.0890                 1.0873                 1.0626
 Frc consts  --      1.4582                 1.4661                 1.4485
 IR Inten    --     11.9393                12.2124                 4.2856

                     46                     47                     48
                      A                      A                      A
 Frequencies --   1528.0250              1534.7260              1540.0833
 Red. masses --      1.0477                 1.0663                 1.0570
 Frc consts  --      1.4412                 1.4797                 1.4771
 IR Inten    --      4.2383                 4.0035                 9.0776

                     49                     50                     51
                      A                      A                      A
 Frequencies --   1736.4302              1814.5402              3023.3909
 Red. masses --     11.1506                10.0531                 1.0566
 Frc consts  --     19.8090                19.5021                 5.6904
 IR Inten    --     21.7133               271.0085                16.3659

                     52                     53                     54
                      A                      A                      A
 Frequencies --   3039.5137              3045.5831              3046.8251
 Red. masses --      1.0601                 1.0411                 1.0625
 Frc consts  --      5.7703                 5.6896                 5.8112
 IR Inten    --     28.6119                32.4451                20.7012

                     55                     56                     57
                      A                      A                      A
 Frequencies --   3057.2220              3064.7456              3078.8738
 Red. masses --      1.0778                 1.0641                 1.0996
 Frc consts  --      5.9355                 5.8889                 6.1413
 IR Inten    --     14.0405                21.3199                12.8804

                     58                     59                     60
                      A                      A                      A
 Frequencies --   3093.9181              3110.5898              3115.3137
 Red. masses --      1.1009                 1.1018                 1.1011
 Frc consts  --      6.2092                 6.2813                 6.2961
 IR Inten    --     46.1388                62.9418                60.0873

                     61                     62                     63
                      A                      A                      A
 Frequencies --   3116.3167              3182.7086              3691.8767
 Red. masses --      1.1004                 1.0982                 1.0640
 Frc consts  --      6.2960                 6.5541                 8.5446
 IR Inten    --      3.3179                 1.7577                57.6740

 - Thermochemistry -
 -------------------
 Temperature   298.150 Kelvin.  Pressure   1.00000 Atm.
 Atom     1 has atomic number  6 and mass  12.00000

 Molecular mass:   143.09463 amu.
 Principal axes and moments of inertia in atomic units:
                           1         2         3
     Eigenvalues --   843.275772643.395942798.01694
           X            0.99993   0.00169  -0.01160
           Y           -0.00194   0.99975  -0.02209
           Z            0.01156   0.02211   0.99969
 This molecule is an asymmetric top.
 Rotational symmetry number  1.
 Warning -- assumption of classical behavior for rotation
           may cause significant error
 Rotational temperatures (Kelvin)      0.10271     0.03277     0.03096
 Rotational constants (GHZ):           2.14016     0.68274     0.64501
 Zero-point vibrational energy     521462.1 (Joules/Mol)
                                  124.63242 (Kcal/Mol)
 Warning -- explicit consideration of  15 degrees of freedom as
           vibrations may cause significant error
 Vibrational temperatures:     36.31    63.10    85.67   127.16   152.86
          (Kelvin)            229.13   301.27   386.52   397.86   469.87
                              538.10   594.09   634.89   704.78   798.12
                              915.76   924.81  1089.86  1096.39  1110.98
                             1188.60  1259.74  1358.51  1421.19  1428.53
                             1522.39  1525.58  1596.34  1625.56  1649.22
                             1684.71  1790.51  1811.01  1843.89  1918.09
                             1991.66  2020.96  2033.59  2038.44  2055.63
                             2075.88  2161.26  2169.02  2176.60  2188.48
                             2198.49  2208.13  2215.84  2498.34  2610.72
                             4349.99  4373.18  4381.91  4383.70  4398.66
                             4409.49  4429.81  4451.46  4475.44  4482.24
                             4483.68  4579.21  5311.79

 Zero-point correction=                           0.198614 (Hartree/Particle)
 Thermal correction to Energy=                    0.210342
 Thermal correction to Enthalpy=                  0.211287
 Thermal correction to Gibbs Free Energy=         0.159201
 Sum of electronic and zero-point Energies=           -479.607291
 Sum of electronic and thermal Energies=              -479.595563
 Sum of electronic and thermal Enthalpies=            -479.594618
 Sum of electronic and thermal Free Energies=         -479.646705

                     E (Thermal)             CV                S
                      KCal/Mol        Cal/Mol-Kelvin    Cal/Mol-Kelvin
 Total                  131.992             41.150            109.624
 Electronic               0.000              0.000              0.000
 Translational            0.889              2.981             40.786
 Rotational               0.889              2.981             30.212
 Vibrational            130.214             35.189             38.626
 Vibration     1          0.593              1.985              6.173
 Vibration     2          0.595              1.980              5.077
 Vibration     3          0.597              1.974              4.472
 Vibration     4          0.601              1.957              3.696
 Vibration     5          0.605              1.944              3.336
 Vibration     6          0.621              1.892              2.559
 Vibration     7          0.642              1.826              2.049
 Vibration     8          0.673              1.731              1.605
 Vibration     9          0.678              1.717              1.555
 Vibration    10          0.710              1.622              1.277
 Vibration    11          0.745              1.525              1.063
 Vibration    12          0.777              1.442              0.916
 Vibration    13          0.801              1.380              0.823
 Vibration    14          0.846              1.273              0.684
 Vibration    15          0.910              1.129              0.534

 Optimization completed.
    -- Stationary point found.
 Normal termination of Gaussian 16 at Tue Dec  8 10:54:54 2020.

 ----------------------------------------------------------------------
 # B3LYP/6-311++G(d,p) empiricaldispersion=gd3bj scf=xqc pop=npa geom=c
 heck
 ----------------------------------------------------------------------

 -------------------------------------
 CID_53675575_JID_476_Energie_neutraal
 -------------------------------------
 Structure from the checkpoint file:  "JID_476.chk"
 Charge =  0 Multiplicity = 1

 SCF Done:  E(RB3LYP) =  -479.953576631     A.U. after   13 cycles
 Normal termination of Gaussian 16 at Tue Dec  8 10:57:26 2020.

 ----------------------------------------------------------------------
 # B3LYP/6-311++G(d,p) empiricaldispersion=gd3bj scf=xqc pop=npa geom=c
 heck
 ----------------------------------------------------------------------

 -----------------------------------
 CID_53675575_JID_476_Energie_kation
 -----------------------------------
 Structure from the checkpoint file:  "JID_476.chk"
 Charge =  1 Multiplicity = 2

 SCF Done:  E(UB3LYP) =  -479.614935622     A.U. after   21 cycles
 Normal termination of Gaussian 16 at Tue Dec  8 11:01:43 2020.
 Gaussian 16:  ES64L-G16RevA.03 25-Dec-2016

 ----------------------------------------------------------------------
 # B3LYP/6-311++G(d,p) empiricaldispersion=gd3bj scf=xqc pop=npa geom=c
 heck
 ----------------------------------------------------------------------

 ----------------------------------
 CID_53675575_JID_476_Energie_anion
 ----------------------------------
 Structure from the checkpoint file:  "JID_476.chk"
 Charge = -1 Multiplicity = 2

                         Standard orientation:
 ---------------------------------------------------------------------
 Center     Atomic      Atomic             Coordinates (Angstroms)
 Number     Number       Type             X           Y           Z
 ---------------------------------------------------------------------
      1          6           0       -2.792945    0.728182    1.311728
      2          6           0       -2.505216   -0.674389    0.767548
      3          6           0       -2.355754   -0.738371   -0.758254
      4          6           0       -1.171679    0.076063   -1.297501
      5          7           0        0.068848   -0.437393   -0.742733
      6          6           0        0.974865    0.359693   -0.334625
      7          6           0        0.963526    1.872968   -0.358782
      8          6           0        2.227739   -0.263246    0.241523
      9          8           0        3.174580    0.384860    0.643278
     10          8           0        2.200336   -1.609185    0.275559
     11          1           0       -1.963108    1.418232    1.120493
     12          1           0       -2.952326    0.704736    2.395290
     13          1           0       -3.691639    1.156819    0.850810
     14          1           0       -1.589773   -1.068602    1.225961
     15          1           0       -3.317023   -1.349692    1.066468
     16          1           0       -2.220630   -1.782427   -1.063593
     17          1           0       -3.273047   -0.373056   -1.239981
     18          1           0       -1.114117   -0.061822   -2.386391
     19          1           0       -1.326059    1.148713   -1.117482
     20          1           0        0.140984    2.265989    0.249659
     21          1           0        1.903605    2.260275    0.033213
     22          1           0        0.823147    2.244275   -1.379582
     23          1           0        3.055503   -1.872490    0.663730
 ---------------------------------------------------------------------

 SCF Done:  E(UB3LYP) =  -479.955667072     A.U. after   29 cycles

 The electronic state is 2-A.
 Alpha  occ. eigenvalues --  -19.00766 -18.93721 -14.12105 -10.11652 -10.04704
 Alpha  occ. eigenvalues --  -10.04311 -10.03988 -10.03859 -10.03276 -10.02412
 Alpha  occ. eigenvalues --   -0.94651  -0.85216  -0.75975  -0.66546  -0.60579
 Alpha  occ. eigenvalues --   -0.57062  -0.52842  -0.48807  -0.43623  -0.39112
 Alpha  occ. eigenvalues --   -0.35299  -0.34138  -0.32740  -0.31424  -0.30072
 Alpha  occ. eigenvalues --   -0.28761  -0.27291  -0.27179  -0.26664  -0.25820
 Alpha  occ. eigenvalues --   -0.25012  -0.22146  -0.20978  -0.20655  -0.19688
 Alpha  occ. eigenvalues --   -0.16987  -0.13879  -0.12820  -0.08381   0.05406
 Alpha virt. eigenvalues --    0.07849   0.09547   0.09716   0.10186   0.11079
 Alpha virt. eigenvalues --    0.11785   0.12756   0.13270   0.13949   0.14888
 Alpha virt. eigenvalues --    0.15156   0.15916   0.16896   0.18026   0.18678

  Beta  occ. eigenvalues --  -19.00712 -18.93376 -14.11515 -10.11395 -10.04738
  Beta  occ. eigenvalues --  -10.04298 -10.03979 -10.03677 -10.03238 -10.02435
  Beta  occ. eigenvalues --   -0.94349  -0.84720  -0.75089  -0.66457  -0.60335
  Beta  occ. eigenvalues --   -0.56859  -0.52578  -0.48406  -0.43500  -0.38664
  Beta  occ. eigenvalues --   -0.35099  -0.33919  -0.32401  -0.31287  -0.29093
  Beta  occ. eigenvalues --   -0.28517  -0.27063  -0.26683  -0.26411  -0.25667
  Beta  occ. eigenvalues --   -0.24963  -0.21916  -0.20823  -0.20501  -0.19574
  Beta  occ. eigenvalues --   -0.15720  -0.12469  -0.11586  -0.07753
  Beta virt. eigenvalues --    0.07978   0.09683   0.09833   0.10188   0.11136
  Beta virt. eigenvalues --    0.11909   0.12409   0.12862   0.13509   0.13914
  Beta virt. eigenvalues --    0.14834   0.15254   0.15900   0.16844   0.18030

 Mulliken charges and spin densities:
               1          2
     1  C    0.103280  -0.666658
     2  C   -0.785046   0.668771
     3  C    0.697732  -1.001031
     4  C   -0.325307   0.117190
     5  N   -0.011552   0.283487
     6  C    0.130143   0.117512
     7  C   -0.540642  -0.126033
     8  C   -0.131707   0.175616
     9  O   -0.436776   0.110375
    10  O   -0.204585   0.011647
    11  H    0.161749  -0.004848
    12  H    0.012307   0.097010
    13  H   -0.069453   0.186311
    14  H    0.126770   0.009760
    15  H   -0.052668   0.187718
    16  H    0.154806  -0.022116
    17  H   -0.420910   0.528104
    18  H   -0.161554   0.339922
    19  H    0.178965  -0.114051
    20  H    0.032018   0.084175
    21  H    0.175249   0.000654
    22  H    0.115328   0.018135
    23  H    0.251853  -0.001650
 Sum of Mulliken charges =  -1.00000   1.00000

 Dipole moment (field-independent basis, Debye):
    X=             -0.2254    Y=              0.2430    Z=              1.2805  Tot=              1.3227
 Quadrupole moment (field-independent basis, Debye-Ang):
   XX=           -109.6252   YY=            -75.7398   ZZ=            -78.7302
   XY=             -5.3078   XZ=             -5.7288   YZ=             -3.9914

 Summary of Natural Population Analysis:

                                       Natural Population
                Natural  -----------------------------------------------
    Atom  No    Charge         Core      Valence    Rydberg      Total
 -----------------------------------------------------------------------
      C    1   -0.28825      0.99967     2.28313    0.00544     3.28825
      C    2   -0.19502      0.99964     2.18590    0.00948     3.19502
      C    3   -0.18681      0.99963     2.17623    0.01096     3.18681
      C    4   -0.11122      0.99962     2.09838    0.01322     3.11122
      N    5   -0.13881      0.99963     2.62864    0.01054     3.63881
      C    6    0.10441      0.99954     1.88283    0.01321     2.89559
      C    7   -0.32418      0.99964     2.31924    0.00530     3.32418
      C    8    0.41456      0.99969     1.55957    0.02618     2.58544
      O    9   -0.30742      0.99987     3.30111    0.00644     4.30742
      O   10   -0.33937      0.99987     3.33273    0.00676     4.33937
      H   11    0.09878      0.00000     0.40021    0.00100     0.40122
      H   12    0.09294      0.00000     0.40635    0.00071     0.40706
      H   13    0.09191      0.00000     0.40709    0.00100     0.40809
      H   14    0.10445      0.00000     0.39429    0.00126     0.39555
      H   15    0.08834      0.00000     0.41073    0.00092     0.41166
      H   16    0.09672      0.00000     0.40203    0.00124     0.40328
      H   17    0.08911      0.00000     0.40893    0.00196     0.41089
      H   18    0.09946      0.00000     0.39872    0.00182     0.40054
      H   19    0.07711      0.00000     0.42131    0.00158     0.42289
      H   20    0.09802      0.00000     0.40041    0.00157     0.40198
      H   21    0.11394      0.00000     0.38485    0.00122     0.38606
      H   22    0.09782      0.00000     0.40122    0.00096     0.40218
      H   23    0.22349      0.00000     0.27157    0.00494     0.27651
 =======================================================================
   * Total *    0.00000      9.99679    28.87548    0.12773    39.00000

 Normal termination of Gaussian 16 at Tue Dec  8 11:07:47 2020.
