 Gaussian 16, Revision A.03,

 -----------------------------------------------------------
 # opt freq B3LYP/6-31G(d) empiricaldispersion=gd3bj scf=xqc
 -----------------------------------------------------------

 ------------------------------
 CID_79071743_JID_8843_neutraal
 ------------------------------
 Symbolic Z-matrix:
 Charge =  0 Multiplicity = 1

 SCF Done:  E(RB3LYP) =  -841.446889713     A.U. after   15 cycles
 SCF Done:  E(RB3LYP) =  -841.451160244     A.U. after   12 cycles
 SCF Done:  E(RB3LYP) =  -841.451757349     A.U. after   12 cycles
 SCF Done:  E(RB3LYP) =  -841.452245691     A.U. after   11 cycles
 SCF Done:  E(RB3LYP) =  -841.452195090     A.U. after   12 cycles
 SCF Done:  E(RB3LYP) =  -841.452355068     A.U. after   11 cycles
 SCF Done:  E(RB3LYP) =  -841.452432198     A.U. after   10 cycles
 SCF Done:  E(RB3LYP) =  -841.452457645     A.U. after   11 cycles
 SCF Done:  E(RB3LYP) =  -841.452473650     A.U. after   11 cycles
 SCF Done:  E(RB3LYP) =  -841.452493054     A.U. after   11 cycles
 SCF Done:  E(RB3LYP) =  -841.454018301     A.U. after    9 cycles
 SCF Done:  E(RB3LYP) =  -841.454018510     A.U. after    7 cycles
 SCF Done:  E(RB3LYP) =  -841.454019618     A.U. after   10 cycles
 SCF Done:  E(RB3LYP) =  -841.454020467     A.U. after    8 cycles
 SCF Done:  E(RB3LYP) =  -841.454020523     A.U. after    7 cycles
 Optimization completed.
    -- Stationary point found.
 Normal termination of Gaussian 16 at Fri Dec 11 22:52:24 2020.

 --------------------------------------------------------------------
 #N Geom=AllCheck Guess=TCheck SCRF=Check GenChk RB3LYP/6-31G(d) Freq
 --------------------------------------------------------------------

 Structure from the checkpoint file:  "JID_8843.chk"
 ------------------------------
 CID_79071743_JID_8843_neutraal
 ------------------------------
 Charge =  0 Multiplicity = 1

 SCF Done:  E(RB3LYP) =  -841.454020523     A.U. after    1 cycles

  Exact polarizability: 239.548  -9.645 142.985 -14.740 -17.192 106.439
 Approx polarizability: 320.868 -17.584 235.654 -27.163 -39.583 164.468

                      1                      2                      3
                      A                      A                      A
 Frequencies --     16.4998                26.2649                50.7710
 Red. masses --      4.9903                 4.3914                 4.7026
 Frc consts  --      0.0008                 0.0018                 0.0071
 IR Inten    --      0.2415                 0.4135                 0.7695

                      4                      5                      6
                      A                      A                      A
 Frequencies --     77.4374                81.1013               121.9730
 Red. masses --      5.1457                 5.8501                 4.1315
 Frc consts  --      0.0182                 0.0227                 0.0362
 IR Inten    --      0.0903                 1.2965                 1.0160

                      7                      8                      9
                      A                      A                      A
 Frequencies --    136.3256               178.1139               188.6102
 Red. masses --      3.1027                 2.2475                 2.0112
 Frc consts  --      0.0340                 0.0420                 0.0422
 IR Inten    --      0.2765                 1.0640                 0.4561

                     10                     11                     12
                      A                      A                      A
 Frequencies --    199.6935               248.7794               261.5831
 Red. masses --      4.4506                 2.3565                 2.4419
 Frc consts  --      0.1046                 0.0859                 0.0984
 IR Inten    --      2.6022                 0.7197                 1.4164

                     13                     14                     15
                      A                      A                      A
 Frequencies --    283.9555               330.2927               354.7262
 Red. masses --      3.8116                 3.3734                 3.6622
 Frc consts  --      0.1811                 0.2168                 0.2715
 IR Inten    --      0.2497                 2.1261                 5.5070

                     16                     17                     18
                      A                      A                      A
 Frequencies --    399.2902               420.3739               423.6228
 Red. masses --      4.2098                 2.1897                 2.8578
 Frc consts  --      0.3954                 0.2280                 0.3022
 IR Inten    --     14.5257                21.5829                 0.4226

                     19                     20                     21
                      A                      A                      A
 Frequencies --    432.2942               454.5040               470.4454
 Red. masses --      2.2111                 1.9093                 4.1696
 Frc consts  --      0.2435                 0.2324                 0.5437
 IR Inten    --     31.1484               152.1468                 6.8619

                     22                     23                     24
                      A                      A                      A
 Frequencies --    504.6204               511.0098               537.9802
 Red. masses --      4.2492                 2.7412                 2.1055
 Frc consts  --      0.6375                 0.4218                 0.3590
 IR Inten    --     20.2692                19.2335                46.2426

                     25                     26                     27
                      A                      A                      A
 Frequencies --    571.3243               601.6138               630.3181
 Red. masses --      2.5685                 1.2294                 4.3814
 Frc consts  --      0.4940                 0.2622                 1.0256
 IR Inten    --     15.2323                57.0717                31.2151

                     28                     29                     30
                      A                      A                      A
 Frequencies --    653.6851               713.0970               718.2927
 Red. masses --      6.7479                 3.0128                 2.4981
 Frc consts  --      1.6989                 0.9026                 0.7594
 IR Inten    --      0.7703                25.9331                23.0582

                     31                     32                     33
                      A                      A                      A
 Frequencies --    753.6326               775.7961               784.3957
 Red. masses --      4.3250                 5.1812                 3.3401
 Frc consts  --      1.4473                 1.8373                 1.2108
 IR Inten    --     12.2685                60.3009                 0.9367

                     34                     35                     36
                      A                      A                      A
 Frequencies --    820.5369               828.5904               846.0656
 Red. masses --      1.3642                 2.6902                 1.8918
 Frc consts  --      0.5412                 1.0882                 0.7979
 IR Inten    --      2.7451                14.2156                22.6689

                     37                     38                     39
                      A                      A                      A
 Frequencies --    865.4767               873.3733               902.0469
 Red. masses --      3.2797                 3.4988                 1.8167
 Frc consts  --      1.4474                 1.5724                 0.8709
 IR Inten    --      6.1238                12.0879                 1.1844

                     40                     41                     42
                      A                      A                      A
 Frequencies --    964.1433               967.3902               982.6677
 Red. masses --      1.3363                 2.2654                 1.3071
 Frc consts  --      0.7319                 1.2491                 0.7437
 IR Inten    --      0.8158                 8.9343                 0.4794

                     43                     44                     45
                      A                      A                      A
 Frequencies --   1029.7138              1040.8041              1067.2814
 Red. masses --      2.9846                 2.3999                 1.9860
 Frc consts  --      1.8645                 1.5317                 1.3329
 IR Inten    --      0.9942                33.8711                 4.8609

                     46                     47                     48
                      A                      A                      A
 Frequencies --   1084.1188              1104.8709              1110.6953
 Red. masses --      1.8844                 2.2033                 2.3351
 Frc consts  --      1.3049                 1.5847                 1.6972
 IR Inten    --      2.8137                14.9661               146.9426

                     49                     50                     51
                      A                      A                      A
 Frequencies --   1111.6568              1132.3623              1147.2953
 Red. masses --      3.3087                 3.7401                 2.6855
 Frc consts  --      2.4091                 2.8256                 2.0827
 IR Inten    --     69.1989               107.4379                44.1843

                     52                     53                     54
                      A                      A                      A
 Frequencies --   1163.9143              1168.1851              1190.8917
 Red. masses --      1.7950                 1.4278                 2.0187
 Frc consts  --      1.4327                 1.1480                 1.6868
 IR Inten    --     23.0555                12.2717                43.4640

                     55                     56                     57
                      A                      A                      A
 Frequencies --   1202.0318              1236.2301              1249.9690
 Red. masses --      1.3417                 1.3944                 1.3362
 Frc consts  --      1.1422                 1.2556                 1.2300
 IR Inten    --    310.7298                87.7877                11.2115

                     58                     59                     60
                      A                      A                      A
 Frequencies --   1262.0235              1294.7020              1304.2362
 Red. masses --      1.5777                 1.2630                 1.7076
 Frc consts  --      1.4805                 1.2474                 1.7114
 IR Inten    --      3.7664                 4.1240                86.4054

                     61                     62                     63
                      A                      A                      A
 Frequencies --   1330.6806              1350.8548              1364.5000
 Red. masses --      1.5339                 1.4134                 1.4225
 Frc consts  --      1.6003                 1.5196                 1.5604
 IR Inten    --     21.7030                13.1981                19.2512

                     64                     65                     66
                      A                      A                      A
 Frequencies --   1381.7908              1385.9433              1387.0993
 Red. masses --      1.4114                 2.5619                 1.7066
 Frc consts  --      1.5878                 2.8994                 1.9347
 IR Inten    --      0.8333               112.7837                33.2484

                     67                     68                     69
                      A                      A                      A
 Frequencies --   1399.4609              1406.4733              1418.5036
 Red. masses --      2.6965                 1.5142                 1.3965
 Frc consts  --      3.1115                 1.7648                 1.6556
 IR Inten    --    165.4210                 0.2166                16.3575

                     70                     71                     72
                      A                      A                      A
 Frequencies --   1423.7500              1439.6068              1469.7975
 Red. masses --      1.3601                 1.3926                 2.7847
 Frc consts  --      1.6243                 1.7005                 3.5444
 IR Inten    --     24.4198                11.5743                 4.1648

                     73                     74                     75
                      A                      A                      A
 Frequencies --   1481.0032              1493.8904              1505.3961
 Red. masses --      1.1202                 1.0882                 1.0882
 Frc consts  --      1.4476                 1.4308                 1.4529
 IR Inten    --      1.8988                 2.0450                14.4665

                     76                     77                     78
                      A                      A                      A
 Frequencies --   1514.0283              1532.2640              1538.9727
 Red. masses --      1.1083                 1.1977                 1.0770
 Frc consts  --      1.4968                 1.6568                 1.5029
 IR Inten    --      8.2157                 6.0958                32.2144

                     79                     80                     81
                      A                      A                      A
 Frequencies --   1543.8359              1559.3047              1579.9400
 Red. masses --      1.5436                 1.0754                 2.8794
 Frc consts  --      2.1677                 1.5406                 4.2348
 IR Inten    --     70.3990                15.1067               124.4160

                     82                     83                     84
                      A                      A                      A
 Frequencies --   1631.5145              1674.9908              1812.0034
 Red. masses --      4.3553                 5.7300                 9.4296
 Frc consts  --      6.8304                 9.4718                18.2414
 IR Inten    --      5.1017               391.3668               382.8515

                     85                     86                     87
                      A                      A                      A
 Frequencies --   2970.2051              3003.7964              3013.6682
 Red. masses --      1.0589                 1.0740                 1.0704
 Frc consts  --      5.5042                 5.7095                 5.7279
 IR Inten    --     75.6309                47.8943                52.3315

                     88                     89                     90
                      A                      A                      A
 Frequencies --   3023.0381              3034.4003              3039.7891
 Red. masses --      1.0774                 1.0650                 1.0733
 Frc consts  --      5.8010                 5.7773                 5.8435
 IR Inten    --     17.8901                47.0585                79.7030

                     91                     92                     93
                      A                      A                      A
 Frequencies --   3068.6313              3092.8994              3108.4321
 Red. masses --      1.0755                 1.1014                 1.0953
 Frc consts  --      5.9668                 6.2075                 6.2354
 IR Inten    --     51.8502                33.8147                60.0103

                     94                     95                     96
                      A                      A                      A
 Frequencies --   3112.1737              3126.1923              3132.1656
 Red. masses --      1.0966                 1.1005                 1.0879
 Frc consts  --      6.2578                 6.3368                 6.2882
 IR Inten    --     20.5617                31.2966                21.6795

                     97                     98                     99
                      A                      A                      A
 Frequencies --   3176.9912              3217.9617              3225.5911
 Red. masses --      1.0893                 1.0870                 1.0923
 Frc consts  --      6.4778                 6.6321                 6.6958
 IR Inten    --     16.3173                11.3836                 3.3515

                    100                    101                    102
                      A                      A                      A
 Frequencies --   3233.6812              3576.8925              3704.4943
 Red. masses --      1.0938                 1.0753                 1.0641
 Frc consts  --      6.7389                 8.1055                 8.6042
 IR Inten    --      7.3812                17.1674                78.7470

 - Thermochemistry -
 -------------------
 Temperature   298.150 Kelvin.  Pressure   1.00000 Atm.
 Atom     1 has atomic number  6 and mass  12.00000

 Molecular mass:   250.13174 amu.
 Principal axes and moments of inertia in atomic units:
                           1         2         3
     Eigenvalues --  1564.71533********************
           X            0.99999   0.00474   0.00271
           Y           -0.00462   0.99920  -0.03980
           Z           -0.00290   0.03979   0.99920
 This molecule is an asymmetric top.
 Rotational symmetry number  1.
 Warning -- assumption of classical behavior for rotation
           may cause significant error
 Rotational temperatures (Kelvin)      0.05535     0.00724     0.00709
 Rotational constants (GHZ):           1.15340     0.15084     0.14767
 Zero-point vibrational energy     803593.3 (Joules/Mol)
                                  192.06340 (Kcal/Mol)
 Warning -- explicit consideration of  26 degrees of freedom as
           vibrations may cause significant error
 Vibrational temperatures:     23.74    37.79    73.05   111.42   116.69
          (Kelvin)            175.49   196.14   256.27   271.37   287.31
                              357.94   376.36   408.55   475.22   510.37
                              574.49   604.82   609.50   621.97   653.93
                              676.87   726.04   735.23   774.03   822.01
                              865.59   906.89   940.51  1025.99  1033.46
                             1084.31  1116.20  1128.57  1180.57  1192.16
                             1217.30  1245.23  1256.59  1297.84  1387.19
                             1391.86  1413.84  1481.53  1497.49  1535.58
                             1559.81  1589.66  1598.04  1599.43  1629.22
                             1650.70  1674.61  1680.76  1713.43  1729.46
                             1778.66  1798.43  1815.77  1862.79  1876.51
                             1914.55  1943.58  1963.21  1988.09  1994.06
                             1995.73  2013.51  2023.60  2040.91  2048.46
                             2071.27  2114.71  2130.83  2149.38  2165.93
                             2178.35  2204.59  2214.24  2221.24  2243.49
                             2273.18  2347.39  2409.94  2607.07  4273.46
                             4321.79  4336.00  4349.48  4365.83  4373.58
                             4415.08  4449.99  4472.34  4477.72  4497.89
                             4506.49  4570.98  4629.93  4640.91  4652.55
                             5146.35  5329.94

 Zero-point correction=                           0.306073 (Hartree/Particle)
 Thermal correction to Energy=                    0.322727
 Thermal correction to Enthalpy=                  0.323671
 Thermal correction to Gibbs Free Energy=         0.259802
 Sum of electronic and zero-point Energies=           -841.147948
 Sum of electronic and thermal Energies=              -841.131294
 Sum of electronic and thermal Enthalpies=            -841.130350
 Sum of electronic and thermal Free Energies=         -841.194218

                     E (Thermal)             CV                S
                      KCal/Mol        Cal/Mol-Kelvin    Cal/Mol-Kelvin
 Total                  202.514             64.286            134.423
 Electronic               0.000              0.000              0.000
 Translational            0.889              2.981             42.451
 Rotational               0.889              2.981             33.792
 Vibrational            200.737             58.324             58.181
 Vibration     1          0.593              1.986              7.016
 Vibration     2          0.593              1.985              6.093
 Vibration     3          0.595              1.977              4.787
 Vibration     4          0.599              1.964              3.955
 Vibration     5          0.600              1.962              3.864
 Vibration     6          0.609              1.931              3.069
 Vibration     7          0.614              1.917              2.855
 Vibration     8          0.629              1.869              2.348
 Vibration     9          0.633              1.856              2.241
 Vibration    10          0.638              1.840              2.136
 Vibration    11          0.662              1.765              1.739
 Vibration    12          0.669              1.743              1.651
 Vibration    13          0.682              1.703              1.510
 Vibration    14          0.713              1.615              1.259
 Vibration    15          0.731              1.566              1.145
 Vibration    16          0.765              1.472              0.965
 Vibration    17          0.783              1.426              0.891
 Vibration    18          0.786              1.419              0.880
 Vibration    19          0.793              1.400              0.851
 Vibration    20          0.813              1.351              0.782
 Vibration    21          0.827              1.316              0.736
 Vibration    22          0.860              1.240              0.647
 Vibration    23          0.866              1.226              0.631
 Vibration    24          0.893              1.166              0.570
 Vibration    25          0.927              1.093              0.502
 Vibration    26          0.960              1.028              0.447

 Optimization completed.
    -- Stationary point found.
 Normal termination of Gaussian 16 at Fri Dec 11 23:06:55 2020.

 ----------------------------------------------------------------------
 # B3LYP/6-311++G(d,p) empiricaldispersion=gd3bj scf=xqc pop=npa geom=c
 heck
 ----------------------------------------------------------------------

 --------------------------------------
 CID_79071743_JID_8843_Energie_neutraal
 --------------------------------------
 Structure from the checkpoint file:  "JID_8843.chk"
 Charge =  0 Multiplicity = 1

 SCF Done:  E(RB3LYP) =  -841.698750947     A.U. after   15 cycles
 Normal termination of Gaussian 16 at Fri Dec 11 23:13:45 2020.

 ----------------------------------------------------------------------
 # B3LYP/6-311++G(d,p) empiricaldispersion=gd3bj scf=xqc pop=npa geom=c
 heck
 ----------------------------------------------------------------------

 ------------------------------------
 CID_79071743_JID_8843_Energie_kation
 ------------------------------------
 Structure from the checkpoint file:  "JID_8843.chk"
 Charge =  1 Multiplicity = 2

 SCF Done:  E(UB3LYP) =  -841.426364310     A.U. after   23 cycles
 Normal termination of Gaussian 16 at Fri Dec 11 23:28:40 2020.
 Gaussian 16:  ES64L-G16RevA.03 25-Dec-2016

 ----------------------------------------------------------------------
 # B3LYP/6-311++G(d,p) empiricaldispersion=gd3bj scf=xqc pop=npa geom=c
 heck
 ----------------------------------------------------------------------

 -----------------------------------
 CID_79071743_JID_8843_Energie_anion
 -----------------------------------
 Structure from the checkpoint file:  "JID_8843.chk"
 Charge = -1 Multiplicity = 2

                         Standard orientation:
 ---------------------------------------------------------------------
 Center     Atomic      Atomic             Coordinates (Angstroms)
 Number     Number       Type             X           Y           Z
 ---------------------------------------------------------------------
      1          6           0       -2.607189   -1.433293   -1.634557
      2          7           0       -3.668187   -0.489585   -1.316434
      3          6           0       -4.677022   -0.987436   -0.384954
      4          6           0       -4.229496   -0.870734    1.071770
      5          8           0       -3.883419    0.479615    1.390320
      6          6           0       -2.884866    1.041786    0.538467
      7          6           0       -3.258899    0.860892   -0.945197
      8          6           0       -1.496377    0.510791    0.930752
      9          7           0       -0.466615    1.156668    0.139180
     10          6           0        0.855710    0.755690    0.139509
     11          6           0        1.825071    1.584974   -0.467789
     12          6           0        3.149665    1.196872   -0.527264
     13          6           0        3.562962   -0.031400    0.014846
     14          6           0        2.606727   -0.854147    0.623649
     15          6           0        1.273735   -0.470848    0.693550
     16          6           0        4.986910   -0.395169   -0.077185
     17          8           0        5.856735    0.284820   -0.590820
     18          8           0        5.269191   -1.606269    0.481288
     19          1           0       -3.042635   -2.295172   -2.154025
     20          1           0       -2.034802   -1.823369   -0.774689
     21          1           0       -1.893330   -0.954236   -2.311424
     22          1           0       -5.589452   -0.389607   -0.516540
     23          1           0       -4.917704   -2.027794   -0.632940
     24          1           0       -3.384528   -1.546693    1.272778
     25          1           0       -5.038469   -1.134070    1.759691
     26          1           0       -2.908557    2.116884    0.766400
     27          1           0       -2.426896    1.172661   -1.583644
     28          1           0       -4.108267    1.528166   -1.146843
     29          1           0       -1.358435    0.662487    2.012995
     30          1           0       -1.445941   -0.563702    0.747117
     31          1           0       -0.600546    2.150337   -0.002252
     32          1           0        1.514803    2.534295   -0.898449
     33          1           0        3.893763    1.833355   -0.994217
     34          1           0        2.915060   -1.800266    1.054223
     35          1           0        0.559807   -1.120146    1.186364
     36          1           0        6.228114   -1.725907    0.356359
 ---------------------------------------------------------------------

 SCF Done:  E(UB3LYP) =  -841.695387628     A.U. after   33 cycles
 SCF Done:  E(UB3LYP) =  -841.695387629     a.u. after    2 cycles

 The electronic state is 2-A.
 Alpha  occ. eigenvalues --  -19.05022 -19.03733 -18.97899 -14.22808 -14.21603
 Alpha  occ. eigenvalues --  -10.16585 -10.13593 -10.12566 -10.11019 -10.10376
 Alpha  occ. eigenvalues --  -10.10315 -10.10312 -10.09820 -10.06299 -10.06239
 Alpha  occ. eigenvalues --  -10.06193 -10.06081 -10.05432  -0.98548  -0.95188
 Alpha  occ. eigenvalues --   -0.89103  -0.84369  -0.83280  -0.74129  -0.69576
 Alpha  occ. eigenvalues --   -0.65142  -0.64029  -0.63371  -0.60562  -0.56727
 Alpha  occ. eigenvalues --   -0.54351  -0.53336  -0.50678  -0.47226  -0.45914
 Alpha  occ. eigenvalues --   -0.43474  -0.41601  -0.40792  -0.39492  -0.38725
 Alpha  occ. eigenvalues --   -0.38312  -0.37055  -0.36676  -0.34652  -0.34101
 Alpha  occ. eigenvalues --   -0.33626  -0.33244  -0.33176  -0.31603  -0.31441
 Alpha  occ. eigenvalues --   -0.30075  -0.29704  -0.29521  -0.27887  -0.27430
 Alpha  occ. eigenvalues --   -0.26742  -0.26094  -0.25902  -0.23283  -0.22699
 Alpha  occ. eigenvalues --   -0.21195  -0.19606  -0.18551  -0.16062  -0.15064
 Alpha  occ. eigenvalues --   -0.11634  -0.10502   0.03991
 Alpha virt. eigenvalues --    0.05396   0.06246   0.07454   0.07667   0.08012
 Alpha virt. eigenvalues --    0.08730   0.09079   0.09515   0.09858   0.10157
 Alpha virt. eigenvalues --    0.10915   0.11162   0.12008   0.12138   0.12919

  Beta  occ. eigenvalues --  -19.04984 -19.03731 -18.97719 -14.22764 -14.21604
  Beta  occ. eigenvalues --  -10.16380 -10.13588 -10.12548 -10.11012 -10.10352
  Beta  occ. eigenvalues --  -10.10294 -10.10075 -10.09802 -10.06331 -10.06170
  Beta  occ. eigenvalues --  -10.06163 -10.06038 -10.05375  -0.98349  -0.95179
  Beta  occ. eigenvalues --   -0.88835  -0.84209  -0.83265  -0.73952  -0.69509
  Beta  occ. eigenvalues --   -0.64957  -0.63897  -0.63293  -0.60451  -0.56676
  Beta  occ. eigenvalues --   -0.54263  -0.53002  -0.50594  -0.47103  -0.45862
  Beta  occ. eigenvalues --   -0.43387  -0.41544  -0.40672  -0.39438  -0.38675
  Beta  occ. eigenvalues --   -0.38282  -0.36954  -0.36505  -0.34574  -0.34013
  Beta  occ. eigenvalues --   -0.33547  -0.33192  -0.32337  -0.31565  -0.31368
  Beta  occ. eigenvalues --   -0.30006  -0.29610  -0.29402  -0.27846  -0.27287
  Beta  occ. eigenvalues --   -0.26563  -0.25950  -0.25713  -0.23211  -0.22682
  Beta  occ. eigenvalues --   -0.20553  -0.18939  -0.18504  -0.15890  -0.14675
  Beta  occ. eigenvalues --   -0.11603  -0.09933
  Beta virt. eigenvalues --    0.05994   0.06777   0.07547   0.07928   0.08021
  Beta virt. eigenvalues --    0.08127   0.08916   0.09315   0.09776   0.10035
  Beta virt. eigenvalues --    0.10308   0.10985   0.11181   0.12137   0.12294

 Mulliken charges and spin densities:
               1          2
     1  C    0.047125  -0.389700
     2  N   -0.073189   0.098821
     3  C    0.263633  -0.609336
     4  C    0.253398  -0.440651
     5  O   -0.042441  -0.016140
     6  C   -0.877806   0.845048
     7  C    0.413183  -1.035462
     8  C    0.400118  -0.627020
     9  N   -0.018956   0.064680
    10  C    0.400360  -0.484507
    11  C   -0.526192   0.033719
    12  C   -0.599179   0.102501
    13  C    0.607400  -0.031903
    14  C   -0.653882   0.420654
    15  C   -0.200405   0.104505
    16  C    0.070607   0.144946
    17  O   -0.401916   0.063558
    18  O   -0.228522   0.008776
    19  H   -0.175394   0.330757
    20  H    0.021688   0.095880
    21  H    0.105159   0.046467
    22  H    0.033676   0.137375
    23  H   -0.340562   0.483705
    24  H    0.052332   0.087469
    25  H   -0.541291   0.728473
    26  H   -0.169130   0.372627
    27  H    0.073845   0.090561
    28  H   -0.190496   0.362808
    29  H    0.095921   0.112762
    30  H    0.359381  -0.345990
    31  H    0.299983  -0.058423
    32  H   -0.036927   0.141618
    33  H    0.183800  -0.012165
    34  H    0.179442   0.002539
    35  H   -0.054335   0.169153
    36  H    0.269573   0.001895
 Sum of Mulliken charges =  -1.00000   1.00000

 Dipole moment (field-independent basis, Debye):
    X=              0.1251    Y=              0.9543    Z=              0.6787  Tot=              1.1777
 Quadrupole moment (field-independent basis, Debye-Ang):
   XX=           -230.1007   YY=           -131.7925   ZZ=           -135.2284
   XY=            -13.9172   XZ=              7.8375   YZ=             -1.5347

 Summary of Natural Population Analysis:

                                       Natural Population
                Natural  -----------------------------------------------
    Atom  No    Charge         Core      Valence    Rydberg      Total
 -----------------------------------------------------------------------
      C    1   -0.17380      0.99963     2.16711    0.00706     3.17380
      N    2   -0.28119      0.99974     2.76697    0.01448     3.78119
      C    3   -0.09797      0.99961     2.08667    0.01169     3.09797
      C    4   -0.02150      0.99957     2.00927    0.01266     3.02150
      O    5   -0.30377      0.99989     3.29365    0.01023     4.30377
      C    6    0.05827      0.99954     1.92689    0.01530     2.94173
      C    7   -0.09800      0.99958     2.08611    0.01231     3.09800
      C    8   -0.09935      0.99959     2.08938    0.01038     3.09935
      N    9   -0.30460      0.99967     2.79600    0.00893     3.80460
      C   10    0.13748      0.99951     1.85290    0.01011     2.86252
      C   11   -0.14372      0.99954     2.13536    0.00882     3.14372
      C   12   -0.05079      0.99955     2.04232    0.00892     3.05079
      C   13   -0.10329      0.99945     2.09157    0.01228     3.10329
      C   14   -0.04250      0.99956     2.03428    0.00867     3.04250
      C   15   -0.15561      0.99954     2.14851    0.00756     3.15561
      C   16    0.41917      0.99965     1.55768    0.02350     2.58083
      O   17   -0.31493      0.99987     3.30846    0.00660     4.31493
      O   18   -0.35395      0.99988     3.34856    0.00551     4.35395
      H   19    0.09360      0.00000     0.40521    0.00119     0.40640
      H   20    0.07845      0.00000     0.41988    0.00167     0.42155
      H   21    0.09891      0.00000     0.40010    0.00099     0.40109
      H   22    0.09505      0.00000     0.40363    0.00132     0.40495
      H   23    0.10001      0.00000     0.39847    0.00151     0.39999
      H   24    0.07783      0.00000     0.42078    0.00139     0.42217
      H   25    0.09361      0.00000     0.40486    0.00154     0.40639
      H   26    0.08836      0.00000     0.41002    0.00162     0.41164
      H   27    0.10516      0.00000     0.39357    0.00128     0.39484
      H   28    0.09622      0.00000     0.40257    0.00121     0.40378
      H   29    0.09196      0.00000     0.40660    0.00144     0.40804
      H   30    0.09384      0.00000     0.40251    0.00366     0.40616
      H   31    0.18004      0.00000     0.31717    0.00280     0.31996
      H   32    0.09480      0.00000     0.40422    0.00098     0.40520
      H   33    0.10679      0.00000     0.39218    0.00103     0.39321
      H   34    0.10319      0.00000     0.39552    0.00129     0.39681
      H   35    0.09862      0.00000     0.39993    0.00145     0.40138
      H   36    0.23363      0.00000     0.26357    0.00280     0.26637
 =======================================================================
   * Total *    0.00000     17.99336    48.78246    0.22418    67.00000

 Normal termination of Gaussian 16 at Sat Dec 12 00:12:45 2020.
