 Gaussian 16, Revision A.03,

 -----------------------------------------------------------
 # opt freq B3LYP/6-31G(d) empiricaldispersion=gd3bj scf=xqc
 -----------------------------------------------------------

 ------------------------------
 CID_61626229_JID_6931_neutraal
 ------------------------------
 Symbolic Z-matrix:
 Charge =  0 Multiplicity = 1

 SCF Done:  E(RB3LYP) =  -1017.56490771     A.U. after   15 cycles
 SCF Done:  E(RB3LYP) =  -1017.57275876     A.U. after   12 cycles
 SCF Done:  E(RB3LYP) =  -1017.57115447     A.U. after   12 cycles
 SCF Done:  E(RB3LYP) =  -1017.57407088     A.U. after   12 cycles
 SCF Done:  E(RB3LYP) =  -1017.57234851     A.U. after   11 cycles
 SCF Done:  E(RB3LYP) =  -1017.57355746     A.U. after   12 cycles
 SCF Done:  E(RB3LYP) =  -1017.57463770     A.U. after   10 cycles
 SCF Done:  E(RB3LYP) =  -1017.57464162     A.U. after   12 cycles
 SCF Done:  E(RB3LYP) =  -1017.57503805     A.U. after   11 cycles
 SCF Done:  E(RB3LYP) =  -1017.57556950     A.U. after   12 cycles
 SCF Done:  E(RB3LYP) =  -1017.58151692     A.U. after   10 cycles
 SCF Done:  E(RB3LYP) =  -1017.58151795     A.U. after    9 cycles
 SCF Done:  E(RB3LYP) =  -1017.58151797     A.U. after    7 cycles
 SCF Done:  E(RB3LYP) =  -1017.58151794     A.U. after    7 cycles
 SCF Done:  E(RB3LYP) =  -1017.58151791     A.U. after    7 cycles
 Optimization completed.
    -- Stationary point found.
 Normal termination of Gaussian 16 at Fri Dec 11 01:44:18 2020.

 --------------------------------------------------------------------
 #N Geom=AllCheck Guess=TCheck SCRF=Check GenChk RB3LYP/6-31G(d) Freq
 --------------------------------------------------------------------

 Structure from the checkpoint file:  "JID_6931.chk"
 ------------------------------
 CID_61626229_JID_6931_neutraal
 ------------------------------
 Charge =  0 Multiplicity = 1

 SCF Done:  E(RB3LYP) =  -1017.58151791     A.U. after    1 cycles

  Exact polarizability: 184.765  -0.548 162.393  -2.426 -13.730 141.994
 Approx polarizability: 269.376   0.576 238.579  -6.538 -33.168 218.921

                      1                      2                      3
                      A                      A                      A
 Frequencies --     19.5118                50.0709                60.5606
 Red. masses --      3.2124                 3.0758                 2.9851
 Frc consts  --      0.0007                 0.0045                 0.0065
 IR Inten    --      0.7997                 0.0762                 0.4638

                      4                      5                      6
                      A                      A                      A
 Frequencies --     76.3830                86.7236                97.4746
 Red. masses --      2.0748                 1.8365                 2.0112
 Frc consts  --      0.0071                 0.0081                 0.0113
 IR Inten    --      0.1652                 0.3867                 0.0818

                      7                      8                      9
                      A                      A                      A
 Frequencies --    109.4448               133.5452               144.8583
 Red. masses --      1.9239                 3.0030                 2.6922
 Frc consts  --      0.0136                 0.0316                 0.0333
 IR Inten    --      0.0827                 0.3816                 0.5127

                     10                     11                     12
                      A                      A                      A
 Frequencies --    158.6242               182.9299               205.9145
 Red. masses --      3.8349                 2.9580                 2.6759
 Frc consts  --      0.0569                 0.0583                 0.0668
 IR Inten    --      0.7321                 0.6484                 0.2149

                     13                     14                     15
                      A                      A                      A
 Frequencies --    232.4479               242.6822               247.4936
 Red. masses --      1.5224                 2.1347                 1.3365
 Frc consts  --      0.0485                 0.0741                 0.0482
 IR Inten    --      0.1529                 1.0871                 0.3967

                     16                     17                     18
                      A                      A                      A
 Frequencies --    258.9949               271.2485               276.5743
 Red. masses --      1.5457                 1.1169                 1.6073
 Frc consts  --      0.0611                 0.0484                 0.0724
 IR Inten    --      2.6167                48.0893                 8.7339

                     19                     20                     21
                      A                      A                      A
 Frequencies --    320.3436               325.1415               350.6336
 Red. masses --      2.7163                 2.4359                 2.8796
 Frc consts  --      0.1642                 0.1517                 0.2086
 IR Inten    --      5.6180                 1.4505                 3.1079

                     22                     23                     24
                      A                      A                      A
 Frequencies --    396.4564               417.9843               442.0117
 Red. masses --      3.0400                 3.3186                 3.8173
 Frc consts  --      0.2815                 0.3416                 0.4394
 IR Inten    --      6.0045                 4.1895                 2.2243

                     25                     26                     27
                      A                      A                      A
 Frequencies --    478.0793               518.0379               552.2573
 Red. masses --      3.3993                 3.7827                 3.8212
 Frc consts  --      0.4578                 0.5981                 0.6866
 IR Inten    --      4.0923                 2.7569                 8.4115

                     28                     29                     30
                      A                      A                      A
 Frequencies --    571.3636               591.3276               640.3124
 Red. masses --      4.0459                 3.0053                 2.9683
 Frc consts  --      0.7782                 0.6191                 0.7170
 IR Inten    --      4.5785                 3.3170                 5.4757

                     31                     32                     33
                      A                      A                      A
 Frequencies --    693.3656               715.0853               744.4969
 Red. masses --      6.1539                 1.4928                 2.9128
 Frc consts  --      1.7431                 0.4497                 0.9512
 IR Inten    --      3.8756                22.6339                29.4576

                     34                     35                     36
                      A                      A                      A
 Frequencies --    768.4285               789.5861               832.6830
 Red. masses --      1.1297                 1.3149                 4.8998
 Frc consts  --      0.3930                 0.4830                 2.0016
 IR Inten    --      4.3250                 8.0117                 4.3014

                     37                     38                     39
                      A                      A                      A
 Frequencies --    858.4711               877.5603               885.5003
 Red. masses --      2.4354                 2.5728                 1.2865
 Frc consts  --      1.0575                 1.1674                 0.5943
 IR Inten    --     36.3242                13.2309                 0.7119

                     40                     41                     42
                      A                      A                      A
 Frequencies --    903.9199               920.6392               946.6741
 Red. masses --      1.3091                 1.5020                 2.2833
 Frc consts  --      0.6302                 0.7501                 1.2056
 IR Inten    --     17.9503                28.8687                 7.4560

                     43                     44                     45
                      A                      A                      A
 Frequencies --    957.4010               994.5176              1021.4392
 Red. masses --      2.5184                 1.8582                 2.1022
 Frc consts  --      1.3601                 1.0829                 1.2923
 IR Inten    --     24.8508                 4.2433                 5.0010

                     46                     47                     48
                      A                      A                      A
 Frequencies --   1040.7788              1051.9368              1073.0589
 Red. masses --      1.7136                 2.4733                 1.5022
 Frc consts  --      1.0936                 1.6125                 1.0191
 IR Inten    --      9.3864                 5.3635                 0.8558

                     49                     50                     51
                      A                      A                      A
 Frequencies --   1075.8456              1090.2722              1099.1219
 Red. masses --      1.7294                 2.0684                 2.2128
 Frc consts  --      1.1794                 1.4486                 1.5750
 IR Inten    --      2.0790                20.5614                31.2000

                     52                     53                     54
                      A                      A                      A
 Frequencies --   1111.7614              1129.0606              1138.0736
 Red. masses --      1.3461                 2.3043                 1.6049
 Frc consts  --      0.9803                 1.7307                 1.2248
 IR Inten    --      3.4470                27.8119                 5.0030

                     55                     56                     57
                      A                      A                      A
 Frequencies --   1163.1798              1184.9895              1190.6351
 Red. masses --      2.0046                 1.7770                 3.0998
 Frc consts  --      1.5980                 1.4702                 2.5890
 IR Inten    --      5.2440                10.4305                13.8655

                     58                     59                     60
                      A                      A                      A
 Frequencies --   1210.3334              1246.9664              1261.2482
 Red. masses --      2.0256                 1.6800                 1.8598
 Frc consts  --      1.7483                 1.5391                 1.7431
 IR Inten    --      3.8318                 7.1531                 3.5067

                     61                     62                     63
                      A                      A                      A
 Frequencies --   1271.2119              1303.3316              1307.9487
 Red. masses --      1.5895                 1.2590                 1.2299
 Frc consts  --      1.5134                 1.2601                 1.2396
 IR Inten    --      5.2310                 5.1924                 1.3821

                     64                     65                     66
                      A                      A                      A
 Frequencies --   1343.9802              1357.4418              1362.9066
 Red. masses --      1.2098                 1.3465                 1.1364
 Frc consts  --      1.2875                 1.4619                 1.2437
 IR Inten    --      3.7835                 1.2334                 4.0608

                     67                     68                     69
                      A                      A                      A
 Frequencies --   1384.7427              1400.1258              1411.0554
 Red. masses --      1.5359                 1.3058                 1.5120
 Frc consts  --      1.7352                 1.5083                 1.7738
 IR Inten    --      1.9400                 3.4469                 5.7974

                     70                     71                     72
                      A                      A                      A
 Frequencies --   1417.3135              1431.4258              1438.4618
 Red. masses --      2.2140                 1.3240                 1.2824
 Frc consts  --      2.6203                 1.5984                 1.5634
 IR Inten    --      0.9361                 5.4960                 1.2962

                     73                     74                     75
                      A                      A                      A
 Frequencies --   1443.1747              1445.5274              1449.4664
 Red. masses --      1.2682                 1.4480                 1.3208
 Frc consts  --      1.5563                 1.7827                 1.6350
 IR Inten    --      3.1321                15.2617                 3.7811

                     76                     77                     78
                      A                      A                      A
 Frequencies --   1487.5718              1490.8117              1508.7116
 Red. masses --      3.8039                 1.2398                 1.0852
 Frc consts  --      4.9595                 1.6235                 1.4553
 IR Inten    --      3.6254                 2.6742                 3.2573

                     79                     80                     81
                      A                      A                      A
 Frequencies --   1516.6663              1520.9069              1521.5368
 Red. masses --      1.0673                 1.0806                 1.0577
 Frc consts  --      1.4465                 1.4728                 1.4427
 IR Inten    --     13.5617                 4.1227                 1.3692

                     82                     83                     84
                      A                      A                      A
 Frequencies --   1528.4397              1529.4859              1530.4829
 Red. masses --      1.0455                 1.0642                 1.0524
 Frc consts  --      1.4390                 1.4667                 1.4524
 IR Inten    --      5.0022                 2.7743                 3.3666

                     85                     86                     87
                      A                      A                      A
 Frequencies --   1531.8168              1540.5605              1546.2356
 Red. masses --      1.1073                 1.0710                 1.0633
 Frc consts  --      1.5309                 1.4976                 1.4978
 IR Inten    --     12.3468                 3.2281                 5.6265

                     88                     89                     90
                      A                      A                      A
 Frequencies --   1548.4107              1602.8610              1686.6644
 Red. masses --      1.0602                 5.7264                 1.0903
 Frc consts  --      1.4976                 8.6681                 1.8275
 IR Inten    --      5.3753                 1.4955                40.5579

                     91                     92                     93
                      A                      A                      A
 Frequencies --   2956.2347              2966.7158              2987.7529
 Red. masses --      1.0604                 1.0701                 1.0806
 Frc consts  --      5.4598                 5.5490                 5.6835
 IR Inten    --     37.1021                73.6415                68.4951

                     94                     95                     96
                      A                      A                      A
 Frequencies --   3026.0800              3044.0169              3052.5469
 Red. masses --      1.0736                 1.0368                 1.0370
 Frc consts  --      5.7924                 5.6605                 5.6934
 IR Inten    --     48.3065                28.0124                24.8343

                     97                     98                     99
                      A                      A                      A
 Frequencies --   3054.1882              3057.3686              3064.6015
 Red. masses --      1.0867                 1.0363                 1.0635
 Frc consts  --      5.9725                 5.7072                 5.8848
 IR Inten    --     29.2054                28.4816                26.3528

                    100                    101                    102
                      A                      A                      A
 Frequencies --   3079.5914              3096.6744              3099.0565
 Red. masses --      1.0728                 1.0970                 1.0864
 Frc consts  --      5.9946                 6.1980                 6.1476
 IR Inten    --     38.5567                 4.8679                 8.6297

                    103                    104                    105
                      A                      A                      A
 Frequencies --   3110.1754              3113.4622              3117.9406
 Red. masses --      1.1004                 1.0907                 1.1014
 Frc consts  --      6.2713                 6.2292                 6.3084
 IR Inten    --     17.4784                 9.5143                 6.1881

                    106                    107                    108
                      A                      A                      A
 Frequencies --   3118.3711              3121.6839              3123.2259
 Red. masses --      1.1004                 1.1019                 1.1022
 Frc consts  --      6.3046                 6.3267                 6.3344
 IR Inten    --     82.8377                37.5265                77.1276

                    109                    110                    111
                      A                      A                      A
 Frequencies --   3127.8040              3140.6520              3211.7752
 Red. masses --      1.1015                 1.1017                 1.0910
 Frc consts  --      6.3492                 6.4026                 6.6307
 IR Inten    --     13.3825                32.6741                11.3740

                    112                    113                    114
                      A                      A                      A
 Frequencies --   3269.0832              3465.1310              3549.5819
 Red. masses --      1.0966                 1.0497                 1.0920
 Frc consts  --      6.9049                 7.4262                 8.1067
 IR Inten    --      1.4461                 2.0362                 0.1249

 - Thermochemistry -
 -------------------
 Temperature   298.150 Kelvin.  Pressure   1.00000 Atm.
 Atom     1 has atomic number  6 and mass  12.00000

 Molecular mass:   240.16602 amu.
 Principal axes and moments of inertia in atomic units:
                           1         2         3
     Eigenvalues --  3489.065774330.844055561.26652
           X            0.99835   0.05495  -0.01643
           Y           -0.05500   0.99848  -0.00275
           Z            0.01625   0.00365   0.99986
 This molecule is an asymmetric top.
 Rotational symmetry number  1.
 Warning -- assumption of classical behavior for rotation
           may cause significant error
 Rotational temperatures (Kelvin)      0.02482     0.02000     0.01557
 Rotational constants (GHZ):           0.51726     0.41672     0.32452
 Zero-point vibrational energy     940560.6 (Joules/Mol)
                                  224.79938 (Kcal/Mol)
 Warning -- explicit consideration of  29 degrees of freedom as
           vibrations may cause significant error
 Vibrational temperatures:     28.07    72.04    87.13   109.90   124.78
          (Kelvin)            140.24   157.47   192.14   208.42   228.22
                              263.20   296.27   334.44   349.17   356.09
                              372.64   390.27   397.93   460.90   467.81
                              504.48   570.41   601.39   635.96   687.85
                              745.34   794.58   822.06   850.79   921.27
                              997.60  1028.85  1071.17  1105.60  1136.04
                             1198.05  1235.15  1262.61  1274.04  1300.54
                             1324.59  1362.05  1377.49  1430.89  1469.62
                             1497.45  1513.50  1543.89  1547.90  1568.66
                             1581.39  1599.58  1624.47  1637.43  1673.56
                             1704.94  1713.06  1741.40  1794.11  1814.65
                             1828.99  1875.20  1881.85  1933.69  1953.06
                             1960.92  1992.34  2014.47  2030.19  2039.20
                             2059.50  2069.63  2076.41  2079.79  2085.46
                             2140.28  2144.95  2170.70  2182.14  2188.25
                             2189.15  2199.08  2200.59  2202.02  2203.94
                             2216.52  2224.69  2227.82  2306.16  2426.73
                             4253.36  4268.44  4298.71  4353.85  4379.66
                             4391.93  4394.30  4398.87  4409.28  4430.85
                             4455.42  4458.85  4474.85  4479.58  4486.02
                             4486.64  4491.41  4493.63  4500.21  4518.70
                             4621.03  4703.48  4985.55  5107.06

 Zero-point correction=                           0.358241 (Hartree/Particle)
 Thermal correction to Energy=                    0.377251
 Thermal correction to Enthalpy=                  0.378195
 Thermal correction to Gibbs Free Energy=         0.310763
 Sum of electronic and zero-point Energies=          -1017.223277
 Sum of electronic and thermal Energies=             -1017.204267
 Sum of electronic and thermal Enthalpies=           -1017.203323
 Sum of electronic and thermal Free Energies=        -1017.270755

                     E (Thermal)             CV                S
                      KCal/Mol        Cal/Mol-Kelvin    Cal/Mol-Kelvin
 Total                  236.728             70.550            141.922
 Electronic               0.000              0.000              0.000
 Translational            0.889              2.981             42.330
 Rotational               0.889              2.981             32.796
 Vibrational            234.951             64.589             66.796
 Vibration     1          0.593              1.986              6.683
 Vibration     2          0.595              1.978              4.815
 Vibration     3          0.597              1.973              4.439
 Vibration     4          0.599              1.965              3.982
 Vibration     5          0.601              1.958              3.733
 Vibration     6          0.603              1.951              3.504
 Vibration     7          0.606              1.942              3.279
 Vibration     8          0.613              1.920              2.894
 Vibration     9          0.616              1.908              2.739
 Vibration    10          0.621              1.893              2.566
 Vibration    11          0.630              1.863              2.298
 Vibration    12          0.640              1.831              2.080
 Vibration    13          0.653              1.791              1.860
 Vibration    14          0.659              1.775              1.783
 Vibration    15          0.661              1.767              1.748
 Vibration    16          0.668              1.748              1.669
 Vibration    17          0.675              1.726              1.588
 Vibration    18          0.678              1.717              1.555
 Vibration    19          0.706              1.635              1.308
 Vibration    20          0.709              1.625              1.284
 Vibration    21          0.728              1.574              1.163
 Vibration    22          0.763              1.478              0.976
 Vibration    23          0.781              1.431              0.899
 Vibration    24          0.802              1.379              0.820
 Vibration    25          0.835              1.299              0.715
 Vibration    26          0.873              1.210              0.615
 Vibration    27          0.908              1.135              0.540
 Vibration    28          0.928              1.093              0.502
 Vibration    29          0.949              1.050              0.465

                           ! Non-Optimized Parameters !
 Normal termination of Gaussian 16 at Fri Dec 11 02:00:54 2020.

 ----------------------------------------------------------------------
 # B3LYP/6-311++G(d,p) empiricaldispersion=gd3bj scf=xqc pop=npa geom=c
 heck
 ----------------------------------------------------------------------

 --------------------------------------
 CID_61626229_JID_6931_Energie_neutraal
 --------------------------------------
 Structure from the checkpoint file:  "JID_6931.chk"
 Charge =  0 Multiplicity = 1

 SCF Done:  E(RB3LYP) =  -1017.78501218     A.U. after   15 cycles
 Normal termination of Gaussian 16 at Fri Dec 11 02:08:53 2020.

 ----------------------------------------------------------------------
 # B3LYP/6-311++G(d,p) empiricaldispersion=gd3bj scf=xqc pop=npa geom=c
 heck
 ----------------------------------------------------------------------

 ------------------------------------
 CID_61626229_JID_6931_Energie_kation
 ------------------------------------
 Structure from the checkpoint file:  "JID_6931.chk"
 Charge =  1 Multiplicity = 2

 SCF Done:  E(UB3LYP) =  -1017.50681170     A.U. after   27 cycles
 Normal termination of Gaussian 16 at Fri Dec 11 02:28:12 2020.
 Gaussian 16:  ES64L-G16RevA.03 25-Dec-2016

 ----------------------------------------------------------------------
 # B3LYP/6-311++G(d,p) empiricaldispersion=gd3bj scf=xqc pop=npa geom=c
 heck
 ----------------------------------------------------------------------

 -----------------------------------
 CID_61626229_JID_6931_Energie_anion
 -----------------------------------
 Structure from the checkpoint file:  "JID_6931.chk"
 Charge = -1 Multiplicity = 2

                         Standard orientation:
 ---------------------------------------------------------------------
 Center     Atomic      Atomic             Coordinates (Angstroms)
 Number     Number       Type             X           Y           Z
 ---------------------------------------------------------------------
      1          6           0        2.149905    3.546781   -0.068183
      2          6           0        1.969408    2.029215   -0.160346
      3          6           0        1.234293    1.489180    1.066810
      4          7           0        1.126629    0.029717    1.170598
      5          6           0        0.720978   -0.323472    2.529056
      6          6           0        0.285014   -0.681546    0.180672
      7          6           0       -1.105650   -0.117559   -0.022956
      8          6           0       -2.286767   -0.604417    0.494875
      9          6           0       -3.424615    0.166043    0.086848
     10          6           0       -3.111639    1.208163   -0.737380
     11         16           0       -1.406956    1.283512   -1.036409
     12          6           0       -2.401462   -1.830268    1.366359
     13          6           0        0.995449   -0.983911   -1.161057
     14          6           0        2.415425   -1.535595   -0.969605
     15          6           0        2.500831   -2.790049   -0.097139
     16          7           0        0.169743   -1.989951   -1.850105
     17          1           0        1.179515    4.053601   -0.005458
     18          1           0        2.674971    3.937803   -0.946154
     19          1           0        2.729172    3.825653    0.820494
     20          1           0        1.420492    1.796871   -1.077701
     21          1           0        2.944345    1.534460   -0.241108
     22          1           0        1.798661    1.810842    1.950986
     23          1           0        0.246559    1.978499    1.143789
     24          1           0       -0.276673    0.066105    2.804373
     25          1           0        0.706708   -1.412023    2.641576
     26          1           0        1.447467    0.079964    3.242127
     27          1           0        0.126105   -1.672315    0.612875
     28          1           0       -4.438139   -0.067325    0.396682
     29          1           0       -3.775831    1.936622   -1.182098
     30          1           0       -2.044565   -1.644442    2.385990
     31          1           0       -3.444510   -2.153720    1.436446
     32          1           0       -1.821147   -2.666033    0.961413
     33          1           0        1.077525   -0.055565   -1.747659
     34          1           0        2.821303   -1.754154   -1.968306
     35          1           0        3.040428   -0.747148   -0.541797
     36          1           0        1.791398   -3.549885   -0.437928
     37          1           0        3.509393   -3.216967   -0.130828
     38          1           0        2.279794   -2.552931    0.948618
     39          1           0       -0.764712   -1.612215   -2.000856
     40          1           0        0.561424   -2.165640   -2.774112
 ---------------------------------------------------------------------

 SCF Done:  E(UB3LYP) =  -1017.76989932     A.U. after   33 cycles
 SCF Done:  E(UB3LYP) =  -1017.76989932     a.u. after    1 cycles

 The electronic state is 2-A.
 Alpha  occ. eigenvalues --  -88.77840 -14.21399 -14.19495 -10.11345 -10.10315
 Alpha  occ. eigenvalues --  -10.10239 -10.10234 -10.09558 -10.09446 -10.08988
 Alpha  occ. eigenvalues --  -10.08015 -10.07781 -10.07243 -10.06918 -10.06622
 Alpha  occ. eigenvalues --  -10.05740  -7.86466  -5.82745  -5.82375  -5.82075
 Alpha  occ. eigenvalues --   -0.83657  -0.79337  -0.78294  -0.69236  -0.67516
 Alpha  occ. eigenvalues --   -0.67266  -0.65590  -0.60853  -0.60038  -0.57903
 Alpha  occ. eigenvalues --   -0.55608  -0.52652  -0.49610  -0.48033  -0.45266
 Alpha  occ. eigenvalues --   -0.43238  -0.40409  -0.40121  -0.39161  -0.37122
 Alpha  occ. eigenvalues --   -0.36121  -0.35301  -0.34334  -0.34005  -0.33432
 Alpha  occ. eigenvalues --   -0.32558  -0.31303  -0.31271  -0.30043  -0.29930
 Alpha  occ. eigenvalues --   -0.28873  -0.28183  -0.27668  -0.27353  -0.26731
 Alpha  occ. eigenvalues --   -0.25933  -0.25482  -0.24484  -0.24184  -0.23654
 Alpha  occ. eigenvalues --   -0.23549  -0.22563  -0.15512  -0.15302  -0.13961
 Alpha  occ. eigenvalues --   -0.12370   0.04188
 Alpha virt. eigenvalues --    0.05981   0.06287   0.06422   0.06996   0.07500
 Alpha virt. eigenvalues --    0.08136   0.08427   0.08925   0.09535   0.10051
 Alpha virt. eigenvalues --    0.10417   0.10861   0.11380   0.11586   0.11835

  Beta  occ. eigenvalues --  -88.77836 -14.21395 -14.19472 -10.11343 -10.10296
  Beta  occ. eigenvalues --  -10.10230 -10.10229 -10.09547 -10.09429 -10.08988
  Beta  occ. eigenvalues --  -10.08000 -10.07760 -10.07234 -10.06895 -10.06611
  Beta  occ. eigenvalues --  -10.05728  -7.86462  -5.82742  -5.82371  -5.82071
  Beta  occ. eigenvalues --   -0.83644  -0.79308  -0.78272  -0.69215  -0.67491
  Beta  occ. eigenvalues --   -0.67238  -0.65567  -0.60825  -0.60005  -0.57864
  Beta  occ. eigenvalues --   -0.55573  -0.52613  -0.49569  -0.47993  -0.45229
  Beta  occ. eigenvalues --   -0.43214  -0.40390  -0.40081  -0.39133  -0.37097
  Beta  occ. eigenvalues --   -0.36096  -0.35276  -0.34305  -0.33979  -0.33404
  Beta  occ. eigenvalues --   -0.32537  -0.31282  -0.31242  -0.30014  -0.29906
  Beta  occ. eigenvalues --   -0.28847  -0.28156  -0.27643  -0.27326  -0.26703
  Beta  occ. eigenvalues --   -0.25911  -0.25457  -0.24459  -0.24160  -0.23635
  Beta  occ. eigenvalues --   -0.23532  -0.22543  -0.15490  -0.15276  -0.13923
  Beta  occ. eigenvalues --   -0.12350
  Beta virt. eigenvalues --    0.06046   0.06703   0.06803   0.07001   0.07252
  Beta virt. eigenvalues --    0.08004   0.08534   0.08749   0.09175   0.09769
  Beta virt. eigenvalues --    0.10422   0.10740   0.11157   0.11612   0.11696

 Mulliken charges and spin densities:
               1          2
     1  C    0.543315  -1.307542
     2  C   -0.665041   0.813378
     3  C   -0.455480  -0.171358
     4  N    0.190538   0.159597
     5  C    0.308070  -0.519143
     6  C   -0.586803   0.016574
     7  C   -0.098578   0.551103
     8  C   -1.392133   1.459246
     9  C    0.408623  -0.360373
    10  C   -0.219641   0.024868
    11  S    1.359132  -1.826261
    12  C    1.939318  -2.625255
    13  C    0.020012  -0.004038
    14  C   -0.553768   0.151377
    15  C   -0.062556  -0.535873
    16  N   -0.398786   0.105463
    17  H   -0.024068   0.162292
    18  H   -0.256381   0.402785
    19  H   -0.151222   0.279998
    20  H    0.332723  -0.257061
    21  H   -0.021573   0.178795
    22  H    0.025443   0.084633
    23  H    0.092553   0.067725
    24  H    0.017979   0.118131
    25  H   -0.001701   0.139029
    26  H   -0.074772   0.219723
    27  H    0.573654  -0.515648
    28  H   -0.548215   0.702240
    29  H   -0.693151   0.936009
    30  H    0.073207   0.096385
    31  H   -0.218376   0.389051
    32  H   -0.033844   0.202042
    33  H   -0.240522   0.474249
    34  H   -0.224375   0.370785
    35  H    0.021211   0.081179
    36  H    0.138728   0.026553
    37  H   -0.185474   0.332835
    38  H   -0.020513   0.145125
    39  H    0.134031   0.136988
    40  H   -0.051563   0.294394
 Sum of Mulliken charges =  -1.00000   1.00000

 Dipole moment (field-independent basis, Debye):
    X=              1.3042    Y=             -0.5510    Z=              1.2575  Tot=              1.8937
 Quadrupole moment (field-independent basis, Debye-Ang):
   XX=           -183.9094   YY=           -168.2656   ZZ=           -151.1224
   XY=             -0.1325   XZ=              0.5298   YZ=             -0.5622

 Summary of Natural Population Analysis:

                                       Natural Population
                Natural  -----------------------------------------------
    Atom  No    Charge         Core      Valence    Rydberg      Total
 -----------------------------------------------------------------------
      C    1   -0.28210      0.99967     2.27844    0.00399     3.28210
      C    2   -0.19867      0.99963     2.19095    0.00810     3.19867
      C    3   -0.08588      0.99959     2.07515    0.01113     3.08588
      N    4   -0.28021      0.99971     2.76745    0.01304     3.78021
      C    5   -0.17447      0.99964     2.16655    0.00829     3.17447
      C    6   -0.02771      0.99948     2.01117    0.01705     3.02771
      C    7   -0.10711      0.99939     2.09300    0.01472     3.10711
      C    8   -0.04180      0.99941     2.03106    0.01133     3.04180
      C    9   -0.12213      0.99948     2.11180    0.01085     3.12213
      C   10   -0.18920      0.99954     2.17841    0.01125     3.18920
      S   11    0.20615      4.99940     2.77455    0.01990     7.79385
      C   12   -0.29347      0.99963     2.28824    0.00560     3.29347
      C   13   -0.01156      0.99957     1.99931    0.01268     3.01156
      C   14   -0.19040      0.99961     2.18171    0.00907     3.19040
      C   15   -0.28998      0.99966     2.28567    0.00465     3.28998
      N   16   -0.42765      0.99976     2.91808    0.00981     3.92765
      H   17    0.09764      0.00000     0.40128    0.00108     0.40236
      H   18    0.09971      0.00000     0.39935    0.00094     0.40029
      H   19    0.09480      0.00000     0.40408    0.00112     0.40520
      H   20    0.09488      0.00000     0.40287    0.00225     0.40512
      H   21    0.09672      0.00000     0.40172    0.00156     0.40328
      H   22    0.09347      0.00000     0.40513    0.00140     0.40653
      H   23    0.08576      0.00000     0.41259    0.00165     0.41424
      H   24    0.08392      0.00000     0.41485    0.00123     0.41608
      H   25    0.09395      0.00000     0.40510    0.00095     0.40605
      H   26    0.09492      0.00000     0.40418    0.00090     0.40508
      H   27    0.11229      0.00000     0.38444    0.00327     0.38771
      H   28    0.10727      0.00000     0.39132    0.00142     0.39273
      H   29    0.11147      0.00000     0.38706    0.00147     0.38853
      H   30    0.10518      0.00000     0.39376    0.00106     0.39482
      H   31    0.10448      0.00000     0.39462    0.00090     0.39552
      H   32    0.10736      0.00000     0.39161    0.00102     0.39264
      H   33    0.08328      0.00000     0.41350    0.00322     0.41672
      H   34    0.09256      0.00000     0.40636    0.00108     0.40744
      H   35    0.10336      0.00000     0.39478    0.00186     0.39664
      H   36    0.10348      0.00000     0.39518    0.00134     0.39652
      H   37    0.09595      0.00000     0.40325    0.00081     0.40405
      H   38    0.09724      0.00000     0.40162    0.00114     0.40276
      H   39    0.18087      0.00000     0.31738    0.00175     0.31913
      H   40    0.17562      0.00000     0.32267    0.00171     0.32438
 =======================================================================
   * Total *   -0.00000     19.99316    45.80024    0.20661    66.00000

 Normal termination of Gaussian 16 at Fri Dec 11 02:51:49 2020.
