 Gaussian 16, Revision A.03,

 -----------------------------------------------------------
 # opt freq B3LYP/6-31G(d) empiricaldispersion=gd3bj scf=xqc
 -----------------------------------------------------------

 -----------------------------
 CID_10606882_JID_902_neutraal
 -----------------------------
 Symbolic Z-matrix:
 Charge =  0 Multiplicity = 1

 SCF Done:  E(RB3LYP) =  -497.007186408     A.U. after   14 cycles
 SCF Done:  E(RB3LYP) =  -497.012960117     A.U. after   13 cycles
 SCF Done:  E(RB3LYP) =  -497.013472760     A.U. after   13 cycles
 SCF Done:  E(RB3LYP) =  -497.014918301     A.U. after   13 cycles
 SCF Done:  E(RB3LYP) =  -497.015282358     A.U. after   12 cycles
 SCF Done:  E(RB3LYP) =  -497.015601794     A.U. after   11 cycles
 SCF Done:  E(RB3LYP) =  -497.015610283     A.U. after    9 cycles
 SCF Done:  E(RB3LYP) =  -497.015611687     A.U. after    8 cycles
 SCF Done:  E(RB3LYP) =  -497.015611987     A.U. after    8 cycles
 SCF Done:  E(RB3LYP) =  -497.015612059     A.U. after    7 cycles
 Optimization completed.
    -- Stationary point found.
 Normal termination of Gaussian 16 at Tue Dec  8 13:28:55 2020.

 --------------------------------------------------------------------
 #N Geom=AllCheck Guess=TCheck SCRF=Check GenChk RB3LYP/6-31G(d) Freq
 --------------------------------------------------------------------

 Structure from the checkpoint file:  "JID_902.chk"
 -----------------------------
 CID_10606882_JID_902_neutraal
 -----------------------------
 Charge =  0 Multiplicity = 1

 SCF Done:  E(RB3LYP) =  -497.015612059     A.U. after    1 cycles

  Exact polarizability:  93.890   3.619  85.743   0.227  -1.314  72.580
 Approx polarizability: 113.284   0.684 114.276   3.702  -7.718 114.577

                      1                      2                      3
                      A                      A                      A
 Frequencies --     43.3613                55.3858                89.2160
 Red. masses --      3.0672                 3.3456                 3.6104
 Frc consts  --      0.0034                 0.0060                 0.0169
 IR Inten    --      0.1583                 1.5225                 1.3808

                      4                      5                      6
                      A                      A                      A
 Frequencies --    106.7248               116.8492               183.1871
 Red. masses --      3.2725                 2.9643                 1.9987
 Frc consts  --      0.0220                 0.0238                 0.0395
 IR Inten    --      1.6406                 1.0034                 0.1270

                      7                      8                      9
                      A                      A                      A
 Frequencies --    222.9570               238.3725               259.5823
 Red. masses --      1.1716                 1.3911                 1.1011
 Frc consts  --      0.0343                 0.0466                 0.0437
 IR Inten    --      1.0730                 1.2822                 0.3170

                     10                     11                     12
                      A                      A                      A
 Frequencies --    272.9301               320.0260               348.5073
 Red. masses --      2.6400                 2.0485                 2.6363
 Frc consts  --      0.1159                 0.1236                 0.1887
 IR Inten    --      2.2886                 9.7669                 5.1997

                     13                     14                     15
                      A                      A                      A
 Frequencies --    397.3465               441.1397               447.7907
 Red. masses --      3.2810                 3.4498                 2.6834
 Frc consts  --      0.3052                 0.3955                 0.3170
 IR Inten    --      2.9155                 1.8084                 3.6253

                     16                     17                     18
                      A                      A                      A
 Frequencies --    539.4002               630.7037               725.5987
 Red. masses --      3.8762                 3.6669                 3.6678
 Frc consts  --      0.6645                 0.8594                 1.1377
 IR Inten    --     15.1716                14.1635                 9.3137

                     19                     20                     21
                      A                      A                      A
 Frequencies --    771.6584               802.4051               868.8247
 Red. masses --      2.6921                 1.3513                 2.5291
 Frc consts  --      0.9445                 0.5126                 1.1248
 IR Inten    --     28.6823                11.1670                15.3125

                     22                     23                     24
                      A                      A                      A
 Frequencies --    928.8793               938.0078              1009.0871
 Red. masses --      1.3774                 2.5204                 2.3430
 Frc consts  --      0.7002                 1.3066                 1.4057
 IR Inten    --     38.9821                 8.8831                12.8733

                     25                     26                     27
                      A                      A                      A
 Frequencies --   1031.8831              1068.2913              1111.2213
 Red. masses --      2.1138                 3.9126                 2.1800
 Frc consts  --      1.3261                 2.6308                 1.5860
 IR Inten    --     15.5793                71.6027                 4.9970

                     28                     29                     30
                      A                      A                      A
 Frequencies --   1133.9056              1141.9534              1161.3271
 Red. masses --      1.9673                 2.0106                 1.5749
 Frc consts  --      1.4903                 1.5448                 1.2514
 IR Inten    --     29.9758                31.7071                 7.7293

                     31                     32                     33
                      A                      A                      A
 Frequencies --   1184.1631              1210.0563              1213.7809
 Red. masses --      1.6633                 1.7493                 1.7201
 Frc consts  --      1.3742                 1.5091                 1.4931
 IR Inten    --      1.9608                 1.9294                32.5467

                     34                     35                     36
                      A                      A                      A
 Frequencies --   1263.9061              1296.3047              1319.4994
 Red. masses --      2.0801                 2.8132                 1.6307
 Frc consts  --      1.9578                 2.7852                 1.6728
 IR Inten    --    126.3440                 4.6255               151.2851

                     37                     38                     39
                      A                      A                      A
 Frequencies --   1343.8968              1399.9877              1422.0608
 Red. masses --      1.1936                 1.5492                 1.3643
 Frc consts  --      1.2701                 1.7890                 1.6255
 IR Inten    --     41.1890                15.4030                12.8328

                     40                     41                     42
                      A                      A                      A
 Frequencies --   1444.7247              1463.5043              1475.1982
 Red. masses --      1.3368                 1.1902                 1.1557
 Frc consts  --      1.6440                 1.5020                 1.4819
 IR Inten    --      9.3039                 1.2206                 1.4370

                     43                     44                     45
                      A                      A                      A
 Frequencies --   1499.0670              1509.0444              1514.3803
 Red. masses --      1.1067                 1.0801                 1.0521
 Frc consts  --      1.4652                 1.4492                 1.4216
 IR Inten    --      0.3645                 7.0181                 3.8122

                     46                     47                     48
                      A                      A                      A
 Frequencies --   1518.9120              1520.3211              1527.8717
 Red. masses --      1.0572                 1.0802                 1.0588
 Frc consts  --      1.4371                 1.4711                 1.4563
 IR Inten    --     14.0564                 4.9620                 1.9390

                     49                     50                     51
                      A                      A                      A
 Frequencies --   1532.0655              1534.8929              1553.4057
 Red. masses --      1.0918                 1.0627                 1.0880
 Frc consts  --      1.5099                 1.4751                 1.5469
 IR Inten    --      5.9323                 6.4460                 9.7958

                     52                     53                     54
                      A                      A                      A
 Frequencies --   1826.9124              2937.7907              2984.9233
 Red. masses --     11.0320                 1.0612                 1.0574
 Frc consts  --     21.6940                 5.3963                 5.5506
 IR Inten    --    209.0776                83.0778                89.0127

                     55                     56                     57
                      A                      A                      A
 Frequencies --   2989.8355              3061.5879              3067.8820
 Red. masses --      1.0686                 1.0368                 1.0916
 Frc consts  --      5.6282                 5.7259                 6.0535
 IR Inten    --     49.8877                15.7160                15.8598

                     58                     59                     60
                      A                      A                      A
 Frequencies --   3090.4828              3092.5652              3093.5248
 Red. masses --      1.0707                 1.0587                 1.0776
 Frc consts  --      6.0251                 5.9659                 6.0758
 IR Inten    --     34.2104                32.3419                37.7598

                     61                     62                     63
                      A                      A                      A
 Frequencies --   3127.1270              3134.3419              3139.7258
 Red. masses --      1.1018                 1.1039                 1.1047
 Frc consts  --      6.3481                 6.3895                 6.4161
 IR Inten    --     29.5041                23.8774                11.8416

                     64                     65                     66
                      A                      A                      A
 Frequencies --   3149.4826              3159.9270              3366.4018
 Red. masses --      1.1018                 1.1062                 1.0738
 Frc consts  --      6.4390                 6.5076                 7.1700
 IR Inten    --     16.5228                27.4840                16.6755

 - Thermochemistry -
 -------------------
 Temperature   298.150 Kelvin.  Pressure   1.00000 Atm.
 Atom     1 has atomic number  6 and mass  12.00000

 Molecular mass:   146.10553 amu.
 Principal axes and moments of inertia in atomic units:
                           1         2         3
     Eigenvalues --   931.426431991.482612511.93351
           X            0.99954   0.03033  -0.00131
           Y           -0.03029   0.99929   0.02257
           Z            0.00199  -0.02252   0.99974
 This molecule is an asymmetric top.
 Rotational symmetry number  1.
 Warning -- assumption of classical behavior for rotation
           may cause significant error
 Rotational temperatures (Kelvin)      0.09299     0.04349     0.03448
 Rotational constants (GHZ):           1.93761     0.90623     0.71847
 Zero-point vibrational energy     552531.6 (Joules/Mol)
                                  132.05823 (Kcal/Mol)
 Warning -- explicit consideration of  16 degrees of freedom as
           vibrations may cause significant error
 Vibrational temperatures:     62.39    79.69   128.36   153.55   168.12
          (Kelvin)            263.57   320.79   342.96   373.48   392.69
                              460.45   501.42   571.69   634.70   644.27
                              776.08   907.44  1043.97  1110.24  1154.48
                             1250.04  1336.45  1349.58  1451.85  1484.65
                             1537.03  1598.80  1631.44  1643.02  1670.89
                             1703.75  1741.00  1746.36  1818.48  1865.09
                             1898.47  1933.57  2014.27  2046.03  2078.64
                             2105.66  2122.48  2156.82  2171.18  2178.86
                             2185.38  2187.40  2198.27  2204.30  2208.37
                             2235.00  2628.52  4226.83  4294.64  4301.71
                             4404.94  4414.00  4446.52  4449.51  4450.89
                             4499.24  4509.62  4517.37  4531.40  4546.43
                             4843.50

 Zero-point correction=                           0.210448 (Hartree/Particle)
 Thermal correction to Energy=                    0.222399
 Thermal correction to Enthalpy=                  0.223343
 Thermal correction to Gibbs Free Energy=         0.172049
 Sum of electronic and zero-point Energies=           -496.805164
 Sum of electronic and thermal Energies=              -496.793213
 Sum of electronic and thermal Enthalpies=            -496.792269
 Sum of electronic and thermal Free Energies=         -496.843563

                     E (Thermal)             CV                S
                      KCal/Mol        Cal/Mol-Kelvin    Cal/Mol-Kelvin
 Total                  139.557             42.143            107.957
 Electronic               0.000              0.000              0.000
 Translational            0.889              2.981             40.848
 Rotational               0.889              2.981             29.923
 Vibrational            137.780             36.181             37.186
 Vibration     1          0.595              1.980              5.099
 Vibration     2          0.596              1.975              4.615
 Vibration     3          0.602              1.957              3.677
 Vibration     4          0.606              1.944              3.328
 Vibration     5          0.608              1.935              3.152
 Vibration     6          0.631              1.863              2.296
 Vibration     7          0.649              1.806              1.935
 Vibration     8          0.656              1.782              1.815
 Vibration     9          0.668              1.747              1.665
 Vibration    10          0.676              1.723              1.578
 Vibration    11          0.706              1.635              1.310
 Vibration    12          0.726              1.578              1.173
 Vibration    13          0.764              1.476              0.972
 Vibration    14          0.801              1.380              0.823
 Vibration    15          0.807              1.366              0.802
 Vibration    16          0.894              1.163              0.567

 Optimization completed.
    -- Stationary point found.
 Normal termination of Gaussian 16 at Tue Dec  8 13:33:07 2020.

 ----------------------------------------------------------------------
 # B3LYP/6-311++G(d,p) empiricaldispersion=gd3bj scf=xqc pop=npa geom=c
 heck
 ----------------------------------------------------------------------

 -------------------------------------
 CID_10606882_JID_902_Energie_neutraal
 -------------------------------------
 Structure from the checkpoint file:  "JID_902.chk"
 Charge =  0 Multiplicity = 1

 SCF Done:  E(RB3LYP) =  -497.167177677     A.U. after   13 cycles
 Normal termination of Gaussian 16 at Tue Dec  8 13:36:16 2020.

 ----------------------------------------------------------------------
 # B3LYP/6-311++G(d,p) empiricaldispersion=gd3bj scf=xqc pop=npa geom=c
 heck
 ----------------------------------------------------------------------

 -----------------------------------
 CID_10606882_JID_902_Energie_kation
 -----------------------------------
 Structure from the checkpoint file:  "JID_902.chk"
 Charge =  1 Multiplicity = 2

 SCF Done:  E(UB3LYP) =  -496.846969328     A.U. after   33 cycles
 SCF Done:  E(UB3LYP) =  -496.846969328     a.u. after    1 cycles
 Normal termination of Gaussian 16 at Tue Dec  8 13:41:54 2020.
 Gaussian 16:  ES64L-G16RevA.03 25-Dec-2016

 ----------------------------------------------------------------------
 # B3LYP/6-311++G(d,p) empiricaldispersion=gd3bj scf=xqc pop=npa geom=c
 heck
 ----------------------------------------------------------------------

 ----------------------------------
 CID_10606882_JID_902_Energie_anion
 ----------------------------------
 Structure from the checkpoint file:  "JID_902.chk"
 Charge = -1 Multiplicity = 2

                         Standard orientation:
 ---------------------------------------------------------------------
 Center     Atomic      Atomic             Coordinates (Angstroms)
 Number     Number       Type             X           Y           Z
 ---------------------------------------------------------------------
      1          6           0        2.672522    1.277819    0.237557
      2          6           0        2.501783    0.119893   -0.732968
      3          8           0        1.114809   -0.274697   -0.823329
      4          6           0        0.671925   -1.092128    0.150613
      5          8           0        1.374396   -1.583458    1.007372
      6          6           0       -0.813850   -1.386287    0.013264
      7          7           0       -1.572734   -0.187083   -0.296010
      8          6           0       -2.996580   -0.453528   -0.443077
      9          7           0       -1.285577    0.792326    0.701310
     10          6           0       -1.335447    2.138759    0.148427
     11          1           0        2.053525    2.129036   -0.063046
     12          1           0        3.720206    1.599087    0.257380
     13          1           0        2.382872    0.973087    1.246384
     14          1           0        2.769251    0.405432   -1.753095
     15          1           0        3.098104   -0.743532   -0.428156
     16          1           0       -0.956855   -2.109472   -0.800388
     17          1           0       -1.125473   -1.871461    0.953792
     18          1           0       -3.452739   -0.868668    0.477478
     19          1           0       -3.516624    0.473621   -0.700982
     20          1           0       -3.156158   -1.168709   -1.256550
     21          1           0       -1.941572    0.698719    1.484450
     22          1           0       -2.300298    2.411827   -0.311619
     23          1           0       -1.125402    2.849552    0.954824
     24          1           0       -0.556427    2.222848   -0.612812
 ---------------------------------------------------------------------

 SCF Done:  E(UB3LYP) =  -497.150510354     A.U. after   31 cycles

 The electronic state is 2-A.
 Alpha  occ. eigenvalues --  -19.06239 -19.00928 -14.23112 -14.22093 -10.19940
 Alpha  occ. eigenvalues --  -10.12661 -10.10390 -10.08290 -10.07840 -10.06383
 Alpha  occ. eigenvalues --   -1.00473  -0.91877  -0.88261  -0.72748  -0.67563
 Alpha  occ. eigenvalues --   -0.62803  -0.57414  -0.55142  -0.51264  -0.45706
 Alpha  occ. eigenvalues --   -0.42643  -0.39316  -0.38382  -0.37912  -0.36597
 Alpha  occ. eigenvalues --   -0.34851  -0.33340  -0.32130  -0.30623  -0.29753
 Alpha  occ. eigenvalues --   -0.29016  -0.28766  -0.28084  -0.26795  -0.26101
 Alpha  occ. eigenvalues --   -0.24097  -0.20410  -0.17900  -0.13808  -0.13137
 Alpha  occ. eigenvalues --    0.04711
 Alpha virt. eigenvalues --    0.06391   0.07568   0.08622   0.09123   0.09347
 Alpha virt. eigenvalues --    0.10149   0.10398   0.11280   0.11889   0.12353
 Alpha virt. eigenvalues --    0.13187   0.13382   0.14029   0.15234   0.15999

  Beta  occ. eigenvalues --  -19.06236 -19.00925 -14.23097 -14.22072 -10.19937
  Beta  occ. eigenvalues --  -10.12644 -10.10374 -10.08233 -10.07805 -10.06355
  Beta  occ. eigenvalues --   -1.00466  -0.91870  -0.88228  -0.72713  -0.67531
  Beta  occ. eigenvalues --   -0.62754  -0.57329  -0.55086  -0.51173  -0.45670
  Beta  occ. eigenvalues --   -0.42613  -0.39285  -0.38339  -0.37843  -0.36563
  Beta  occ. eigenvalues --   -0.34813  -0.33305  -0.32084  -0.30582  -0.29713
  Beta  occ. eigenvalues --   -0.28958  -0.28726  -0.28051  -0.26762  -0.26065
  Beta  occ. eigenvalues --   -0.24078  -0.20397  -0.17892  -0.13777  -0.13054
  Beta virt. eigenvalues --    0.07053   0.07685   0.08272   0.09204   0.09794
  Beta virt. eigenvalues --    0.09976   0.10606   0.10655   0.11737   0.12468
  Beta virt. eigenvalues --    0.12588   0.13627   0.13892   0.14357   0.15339

 Mulliken charges and spin densities:
               1          2
     1  C    0.175274  -0.585507
     2  C    0.177679  -0.323465
     3  O   -0.034729   0.024743
     4  C   -0.796295   0.696874
     5  O   -0.251840   0.006967
     6  C    0.731202  -1.112057
     7  N   -0.169838   0.192937
     8  C    1.659935  -1.923587
     9  N   -0.630701   0.335857
    10  C    0.713002  -1.061400
    11  H    0.102112   0.036470
    12  H   -0.522003   0.662532
    13  H    0.081067   0.106037
    14  H   -0.365246   0.536706
    15  H    0.110630   0.041847
    16  H   -0.090809   0.276088
    17  H    0.123599   0.045078
    18  H   -0.518580   0.644263
    19  H   -0.419147   0.563661
    20  H   -0.508412   0.653187
    21  H    0.018254   0.193766
    22  H   -0.089062   0.212423
    23  H   -0.456385   0.576641
    24  H   -0.039709   0.199939
 Sum of Mulliken charges =  -1.00000   1.00000

 Dipole moment (field-independent basis, Debye):
    X=              3.5096    Y=             -1.5756    Z=              0.2995  Tot=              3.8587
 Quadrupole moment (field-independent basis, Debye-Ang):
   XX=           -134.5032   YY=           -101.0470   ZZ=            -94.5082
   XY=             -4.1061   XZ=             -3.0612   YZ=              0.8987

 Summary of Natural Population Analysis:

                                       Natural Population
                Natural  -----------------------------------------------
    Atom  No    Charge         Core      Valence    Rydberg      Total
 -----------------------------------------------------------------------
      C    1   -0.29904      0.99966     2.29419    0.00519     3.29904
      C    2   -0.01718      0.99958     2.00568    0.01193     3.01718
      O    3   -0.27696      0.99986     3.26739    0.00971     4.27696
      C    4    0.41489      0.99970     1.55997    0.02544     2.58511
      O    5   -0.31168      0.99987     3.30635    0.00546     4.31168
      C    6   -0.12558      0.99957     2.11357    0.01244     3.12558
      N    7   -0.18376      0.99972     2.66896    0.01509     3.68376
      C    8   -0.18482      0.99964     2.17606    0.00911     3.18482
      N    9   -0.24751      0.99975     2.73393    0.01383     3.74751
      C   10   -0.17745      0.99966     2.16824    0.00955     3.17745
      H   11    0.10201      0.00000     0.39681    0.00118     0.39799
      H   12    0.10075      0.00000     0.39780    0.00146     0.39925
      H   13    0.10663      0.00000     0.39235    0.00103     0.39337
      H   14    0.09004      0.00000     0.40864    0.00132     0.40996
      H   15    0.09271      0.00000     0.40608    0.00122     0.40729
      H   16    0.10743      0.00000     0.39127    0.00130     0.39257
      H   17    0.09298      0.00000     0.40572    0.00130     0.40702
      H   18    0.08107      0.00000     0.41609    0.00284     0.41893
      H   19    0.10147      0.00000     0.39632    0.00221     0.39853
      H   20    0.09955      0.00000     0.39837    0.00208     0.40045
      H   21    0.16197      0.00000     0.33437    0.00366     0.33803
      H   22    0.08231      0.00000     0.41585    0.00184     0.41769
      H   23    0.09297      0.00000     0.40597    0.00107     0.40703
      H   24    0.09721      0.00000     0.40074    0.00205     0.40279
 =======================================================================
   * Total *    0.00000      9.99700    29.86071    0.14230    40.00000

 Normal termination of Gaussian 16 at Tue Dec  8 13:46:54 2020.
