 Gaussian 16, Revision A.03,

 -----------------------------------------------------------
 # opt freq B3LYP/6-31G(d) empiricaldispersion=gd3bj scf=xqc
 -----------------------------------------------------------

 ------------------------------
 CID_11207104_JID_7916_neutraal
 ------------------------------
 Symbolic Z-matrix:
 Charge =  0 Multiplicity = 1

 SCF Done:  E(RB3LYP) =  -763.537412360     A.U. after   15 cycles
 SCF Done:  E(RB3LYP) =  -763.543416032     A.U. after   12 cycles
 SCF Done:  E(RB3LYP) =  -763.544168532     A.U. after   12 cycles
 SCF Done:  E(RB3LYP) =  -763.544409463     A.U. after   11 cycles
 SCF Done:  E(RB3LYP) =  -763.544526794     A.U. after   10 cycles
 SCF Done:  E(RB3LYP) =  -763.544613085     A.U. after   11 cycles
 SCF Done:  E(RB3LYP) =  -763.544652527     A.U. after   10 cycles
 SCF Done:  E(RB3LYP) =  -763.544664060     A.U. after    9 cycles
 SCF Done:  E(RB3LYP) =  -763.544669534     A.U. after    9 cycles
 SCF Done:  E(RB3LYP) =  -763.544673645     A.U. after    9 cycles
 SCF Done:  E(RB3LYP) =  -763.544674603     A.U. after    8 cycles
 SCF Done:  E(RB3LYP) =  -763.544674737     A.U. after    7 cycles
 SCF Done:  E(RB3LYP) =  -763.544674752     A.U. after    6 cycles
 Optimization completed.
    -- Stationary point found.
 Normal termination of Gaussian 16 at Fri Dec 11 13:01:24 2020.

 --------------------------------------------------------------------
 #N Geom=AllCheck Guess=TCheck SCRF=Check GenChk RB3LYP/6-31G(d) Freq
 --------------------------------------------------------------------

 Structure from the checkpoint file:  "JID_7916.chk"
 ------------------------------
 CID_11207104_JID_7916_neutraal
 ------------------------------
 Charge =  0 Multiplicity = 1

 SCF Done:  E(RB3LYP) =  -763.544674752     A.U. after    1 cycles

  Exact polarizability: 194.818   4.060 150.787   3.678  -0.002 110.810
 Approx polarizability: 257.449  19.910 261.141   4.443   0.779 162.245

                      1                      2                      3
                      A                      A                      A
 Frequencies --     15.3413                26.6114                78.7284
 Red. masses --      3.9011                 2.9975                 4.4307
 Frc consts  --      0.0005                 0.0013                 0.0162
 IR Inten    --      0.1380                 0.9488                 1.9584

                      4                      5                      6
                      A                      A                      A
 Frequencies --     87.3122               102.6818               136.0001
 Red. masses --      4.9490                 3.6889                 3.3171
 Frc consts  --      0.0222                 0.0229                 0.0361
 IR Inten    --      0.3262                 1.0793                 0.9118

                      7                      8                      9
                      A                      A                      A
 Frequencies --    195.3734               198.6510               215.9542
 Red. masses --      2.5123                 3.1802                 2.9909
 Frc consts  --      0.0565                 0.0739                 0.0822
 IR Inten    --      1.0453                 2.3745                 6.7402

                     10                     11                     12
                      A                      A                      A
 Frequencies --    229.5626               239.6126               256.6500
 Red. masses --      1.1853                 1.1974                 1.0683
 Frc consts  --      0.0368                 0.0405                 0.0415
 IR Inten    --      5.5260                 1.0397                12.2547

                     13                     14                     15
                      A                      A                      A
 Frequencies --    273.4757               276.3644               294.1195
 Red. masses --      2.2359                 1.2232                 1.5049
 Frc consts  --      0.0985                 0.0550                 0.0767
 IR Inten    --      2.8678                 2.0832                 0.2287

                     16                     17                     18
                      A                      A                      A
 Frequencies --    304.3585               311.2743               324.5770
 Red. masses --      1.6090                 2.6077                 2.2353
 Frc consts  --      0.0878                 0.1489                 0.1387
 IR Inten    --      1.1274                 2.7330                 5.5496

                     19                     20                     21
                      A                      A                      A
 Frequencies --    333.6933               348.3422               357.3128
 Red. masses --      2.6146                 2.4202                 1.2701
 Frc consts  --      0.1715                 0.1730                 0.0955
 IR Inten    --      2.7266                 9.4798               109.1749

                     22                     23                     24
                      A                      A                      A
 Frequencies --    383.6701               403.4049               439.9890
 Red. masses --      2.6328                 2.7008                 4.1806
 Frc consts  --      0.2283                 0.2590                 0.4768
 IR Inten    --      9.7635                11.9369                 2.0993

                     25                     26                     27
                      A                      A                      A
 Frequencies --    472.2771               540.2001               551.1182
 Red. masses --      3.9307                 4.2854                 2.8189
 Frc consts  --      0.5166                 0.7368                 0.5044
 IR Inten    --      1.9376                 5.3506                 4.7040

                     28                     29                     30
                      A                      A                      A
 Frequencies --    577.7376               594.7513               626.9648
 Red. masses --      3.1071                 1.9468                 4.1393
 Frc consts  --      0.6110                 0.4057                 0.9587
 IR Inten    --     20.6981                57.3416                 3.0582

                     31                     32                     33
                      A                      A                      A
 Frequencies --    701.8534               728.3371               747.5262
 Red. masses --      9.4068                 6.4198                 4.2267
 Frc consts  --      2.7301                 2.0065                 1.3916
 IR Inten    --      0.6864                13.3404                35.8472

                     34                     35                     36
                      A                      A                      A
 Frequencies --    778.0952               820.7014               828.1382
 Red. masses --      4.8091                 4.1332                 1.4094
 Frc consts  --      1.7155                 1.6403                 0.5695
 IR Inten    --      8.7963                12.5770                18.0725

                     37                     38                     39
                      A                      A                      A
 Frequencies --    855.4074               858.1617               917.3836
 Red. masses --      3.0264                 2.6007                 1.8440
 Frc consts  --      1.3048                 1.1284                 0.9144
 IR Inten    --      2.4852                14.7941                11.7941

                     40                     41                     42
                      A                      A                      A
 Frequencies --    941.4230               954.2523               955.1612
 Red. masses --      1.7952                 1.4803                 1.6850
 Frc consts  --      0.9374                 0.7942                 0.9058
 IR Inten    --      0.5813                 0.5415                 1.3289

                     43                     44                     45
                      A                      A                      A
 Frequencies --    978.2360               985.9186               999.8459
 Red. masses --      1.2013                 3.2850                 1.6963
 Frc consts  --      0.6773                 1.8814                 0.9991
 IR Inten    --      0.0748                 5.5240                19.8669

                     46                     47                     48
                      A                      A                      A
 Frequencies --   1041.6395              1054.0134              1058.6760
 Red. masses --      1.3133                 3.1984                 1.7381
 Frc consts  --      0.8395                 2.0935                 1.1477
 IR Inten    --      1.2794                16.1733                 5.1931

                     49                     50                     51
                      A                      A                      A
 Frequencies --   1061.8644              1088.7377              1099.6353
 Red. masses --      1.4062                 3.0613                 4.4408
 Frc consts  --      0.9342                 2.1380                 3.1638
 IR Inten    --      2.3709                13.0706                88.8305

                     52                     53                     54
                      A                      A                      A
 Frequencies --   1129.9205              1167.7568              1195.3480
 Red. masses --      2.7341                 2.0002                 2.7293
 Frc consts  --      2.0566                 1.6070                 2.2977
 IR Inten    --      2.0212                 7.3203                16.3733

                     55                     56                     57
                      A                      A                      A
 Frequencies --   1225.4391              1238.3226              1244.0866
 Red. masses --      2.4720                 2.4280                 2.5757
 Frc consts  --      2.1872                 2.1937                 2.3488
 IR Inten    --     18.7795                 3.2418                 1.7569

                     58                     59                     60
                      A                      A                      A
 Frequencies --   1269.1486              1279.0921              1307.6100
 Red. masses --      2.3465                 2.4353                 2.2058
 Frc consts  --      2.2269                 2.3475                 2.2221
 IR Inten    --     19.7105                 9.2630                48.8674

                     61                     62                     63
                      A                      A                      A
 Frequencies --   1317.9127              1365.0772              1409.2054
 Red. masses --      2.9947                 6.5980                 1.2786
 Frc consts  --      3.0646                 7.2440                 1.4960
 IR Inten    --      3.4143                 6.3748                 5.2588

                     64                     65                     66
                      A                      A                      A
 Frequencies --   1422.7803              1424.6027              1426.2836
 Red. masses --      1.4611                 1.2291                 1.7084
 Frc consts  --      1.7426                 1.4697                 2.0476
 IR Inten    --     10.3238                 4.0307                 7.2992

                     67                     68                     69
                      A                      A                      A
 Frequencies --   1427.6686              1435.2422              1440.1040
 Red. masses --      1.2937                 1.4682                 1.9873
 Frc consts  --      1.5536                 1.7819                 2.4283
 IR Inten    --      2.2477                21.0163                26.4179

                     70                     71                     72
                      A                      A                      A
 Frequencies --   1452.9907              1459.8653              1510.1802
 Red. masses --      1.2620                 1.2788                 1.0495
 Frc consts  --      1.5697                 1.6057                 1.4102
 IR Inten    --     15.9910                 0.2296                 0.1845

                     73                     74                     75
                      A                      A                      A
 Frequencies --   1513.8178              1516.2707              1517.6021
 Red. masses --      1.0691                 1.0598                 1.1578
 Frc consts  --      1.4434                 1.4355                 1.5711
 IR Inten    --      2.7565                 0.2838                 1.2376

                     76                     77                     78
                      A                      A                      A
 Frequencies --   1520.9282              1521.3112              1524.1329
 Red. masses --      1.1095                 1.0509                 1.3184
 Frc consts  --      1.5121                 1.4330                 1.8044
 IR Inten    --      8.0780                 0.1446                 1.4865

                     79                     80                     81
                      A                      A                      A
 Frequencies --   1531.4650              1536.9212              1540.3756
 Red. masses --      1.0503                 1.2950                 1.1328
 Frc consts  --      1.4514                 1.8023                 1.5837
 IR Inten    --      7.6031                14.5664                16.3540

                     82                     83                     84
                      A                      A                      A
 Frequencies --   1549.9521              1553.2766              1589.6425
 Red. masses --      1.0827                 1.4363                 7.9222
 Frc consts  --      1.5325                 2.0417                11.7950
 IR Inten    --      4.9007                 8.8094                20.7672

                     85                     86                     87
                      A                      A                      A
 Frequencies --   1644.1950              2997.2757              3042.6418
 Red. masses --      6.9640                 1.0722                 1.0360
 Frc consts  --     11.0921                 5.6753                 5.6508
 IR Inten    --     43.1462                69.6136                16.1858

                     88                     89                     90
                      A                      A                      A
 Frequencies --   3043.3506              3051.8236              3052.4144
 Red. masses --      1.0363                 1.0394                 1.0346
 Frc consts  --      5.6551                 5.7036                 5.6795
 IR Inten    --     30.5045                23.4552                26.3234

                     91                     92                     93
                      A                      A                      A
 Frequencies --   3057.9167              3104.3899              3106.9849
 Red. masses --      1.0357                 1.1012                 1.0996
 Frc consts  --      5.7060                 6.2529                 6.2542
 IR Inten    --     16.0903                39.5542                26.3085

                     94                     95                     96
                      A                      A                      A
 Frequencies --   3119.6022              3123.0119              3124.0438
 Red. masses --      1.0971                 1.1028                 1.1036
 Frc consts  --      6.2908                 6.3371                 6.3458
 IR Inten    --     44.8288                 7.2301                 0.9800

                     97                     98                     99
                      A                      A                      A
 Frequencies --   3127.9611              3128.3600              3129.9732
 Red. masses --      1.1022                 1.1030                 1.1022
 Frc consts  --      6.3538                 6.3599                 6.3620
 IR Inten    --     13.3831                28.3727                68.8998

                    100                    101                    102
                      A                      A                      A
 Frequencies --   3133.7794              3137.6325              3147.9533
 Red. masses --      1.1029                 1.1020                 1.0926
 Frc consts  --      6.3813                 6.3920                 6.3793
 IR Inten    --     25.4046                18.5998                10.3481

                    103                    104                    105
                      A                      A                      A
 Frequencies --   3304.1865              3525.0573              3757.2405
 Red. masses --      1.0965                 1.0758                 1.0662
 Frc consts  --      7.0533                 7.8763                 8.8682
 IR Inten    --      1.7218                 7.9153                11.3634

 - Thermochemistry -
 -------------------
 Temperature   298.150 Kelvin.  Pressure   1.00000 Atm.
 Atom     1 has atomic number  6 and mass  12.00000

 Molecular mass:   236.16371 amu.
 Principal axes and moments of inertia in atomic units:
                           1         2         3
     Eigenvalues --  1869.000916840.499567607.77941
           X            0.99994  -0.00881   0.00594
           Y            0.00886   0.99992  -0.00909
           Z           -0.00585   0.00914   0.99994
 This molecule is an asymmetric top.
 Rotational symmetry number  1.
 Warning -- assumption of classical behavior for rotation
           may cause significant error
 Rotational temperatures (Kelvin)      0.04634     0.01266     0.01138
 Rotational constants (GHZ):           0.96562     0.26383     0.23722
 Zero-point vibrational energy     837836.0 (Joules/Mol)
                                  200.24762 (Kcal/Mol)
 Warning -- explicit consideration of  29 degrees of freedom as
           vibrations may cause significant error
 Vibrational temperatures:     22.07    38.29   113.27   125.62   147.74
          (Kelvin)            195.67   281.10   285.81   310.71   330.29
                              344.75   369.26   393.47   397.63   423.17
                              437.90   447.85   466.99   480.11   501.19
                              514.09   552.02   580.41   633.05   679.50
                              777.23   792.94   831.24   855.71   902.06
                             1009.81  1047.91  1075.52  1119.51  1180.81
                             1191.51  1230.74  1234.70  1319.91  1354.50
                             1372.96  1374.26  1407.46  1418.52  1438.56
                             1498.69  1516.49  1523.20  1527.79  1566.45
                             1582.13  1625.70  1680.14  1719.84  1763.13
                             1781.67  1789.96  1826.02  1840.33  1881.36
                             1896.18  1964.04  2027.53  2047.06  2049.69
                             2052.10  2054.10  2064.99  2071.99  2090.53
                             2100.42  2172.81  2178.05  2181.58  2183.49
                             2188.28  2188.83  2192.89  2203.44  2211.29
                             2216.26  2230.04  2234.82  2287.14  2365.63
                             4312.41  4377.68  4378.70  4390.89  4391.74
                             4399.66  4466.52  4470.26  4488.41  4493.32
                             4494.80  4500.44  4501.01  4503.33  4508.81
                             4514.35  4529.20  4753.99  5071.77  5405.83

 Zero-point correction=                           0.319115 (Hartree/Particle)
 Thermal correction to Energy=                    0.336900
 Thermal correction to Enthalpy=                  0.337844
 Thermal correction to Gibbs Free Energy=         0.273308
 Sum of electronic and zero-point Energies=           -763.225560
 Sum of electronic and thermal Energies=              -763.207775
 Sum of electronic and thermal Enthalpies=            -763.206830
 Sum of electronic and thermal Free Energies=         -763.271367

                     E (Thermal)             CV                S
                      KCal/Mol        Cal/Mol-Kelvin    Cal/Mol-Kelvin
 Total                  211.408             68.343            135.828
 Electronic               0.000              0.000              0.000
 Translational            0.889              2.981             42.280
 Rotational               0.889              2.981             32.942
 Vibrational            209.631             62.381             60.607
 Vibration     1          0.593              1.986              7.161
 Vibration     2          0.593              1.984              6.067
 Vibration     3          0.600              1.963              3.922
 Vibration     4          0.601              1.958              3.719
 Vibration     5          0.605              1.947              3.403
 Vibration     6          0.614              1.917              2.859
 Vibration     7          0.636              1.846              2.176
 Vibration     8          0.637              1.842              2.146
 Vibration     9          0.645              1.817              1.993
 Vibration    10          0.652              1.796              1.882
 Vibration    11          0.657              1.780              1.806
 Vibration    12          0.666              1.752              1.684
 Vibration    13          0.676              1.722              1.574
 Vibration    14          0.678              1.717              1.556
 Vibration    15          0.689              1.685              1.450
 Vibration    16          0.695              1.665              1.393
 Vibration    17          0.700              1.652              1.356
 Vibration    18          0.709              1.626              1.287
 Vibration    19          0.715              1.608              1.242
 Vibration    20          0.726              1.579              1.174
 Vibration    21          0.732              1.560              1.134
 Vibration    22          0.753              1.505              1.025
 Vibration    23          0.769              1.463              0.950
 Vibration    24          0.800              1.383              0.827
 Vibration    25          0.829              1.312              0.731
 Vibration    26          0.895              1.161              0.565
 Vibration    27          0.906              1.137              0.542
 Vibration    28          0.934              1.079              0.490
 Vibration    29          0.952              1.043              0.459

                           ! Non-Optimized Parameters !
 Normal termination of Gaussian 16 at Fri Dec 11 13:14:28 2020.

 ----------------------------------------------------------------------
 # B3LYP/6-311++G(d,p) empiricaldispersion=gd3bj scf=xqc pop=npa geom=c
 heck
 ----------------------------------------------------------------------

 --------------------------------------
 CID_11207104_JID_7916_Energie_neutraal
 --------------------------------------
 Structure from the checkpoint file:  "JID_7916.chk"
 Charge =  0 Multiplicity = 1

 SCF Done:  E(RB3LYP) =  -763.761407707     A.U. after   16 cycles
 Normal termination of Gaussian 16 at Fri Dec 11 13:20:59 2020.

 ----------------------------------------------------------------------
 # B3LYP/6-311++G(d,p) empiricaldispersion=gd3bj scf=xqc pop=npa geom=c
 heck
 ----------------------------------------------------------------------

 ------------------------------------
 CID_11207104_JID_7916_Energie_kation
 ------------------------------------
 Structure from the checkpoint file:  "JID_7916.chk"
 Charge =  1 Multiplicity = 2

 SCF Done:  E(UB3LYP) =  -763.474388864     A.U. after   24 cycles
 Normal termination of Gaussian 16 at Fri Dec 11 13:33:43 2020.
 Gaussian 16:  ES64L-G16RevA.03 25-Dec-2016

 ----------------------------------------------------------------------
 # B3LYP/6-311++G(d,p) empiricaldispersion=gd3bj scf=xqc pop=npa geom=c
 heck
 ----------------------------------------------------------------------

 -----------------------------------
 CID_11207104_JID_7916_Energie_anion
 -----------------------------------
 Structure from the checkpoint file:  "JID_7916.chk"
 Charge = -1 Multiplicity = 2

                         Standard orientation:
 ---------------------------------------------------------------------
 Center     Atomic      Atomic             Coordinates (Angstroms)
 Number     Number       Type             X           Y           Z
 ---------------------------------------------------------------------
      1          6           0       -3.419539   -1.185051   -1.448336
      2          6           0       -3.342732   -0.406175   -0.116658
      3          6           0       -4.471313    0.635313   -0.064646
      4          6           0       -3.508993   -1.389300    1.064362
      5          6           0       -2.005597    0.289284   -0.020468
      6          6           0       -1.682614    1.611555    0.016887
      7          6           0       -0.248287    1.697969    0.131129
      8          7           0        0.766850    2.541906    0.148330
      9          7           0        1.907683    1.759909    0.200229
     10          6           0        1.587355    0.476844    0.173380
     11          7           0        0.213483    0.403776    0.173013
     12          7           0       -0.824150   -0.510039   -0.017041
     13          6           0        2.522902   -0.697289    0.281517
     14          6           0        2.493243   -1.229606    1.730456
     15          6           0        2.113163   -1.811830   -0.699282
     16          6           0        3.963943   -0.228688   -0.035166
     17          8           0        4.181992    0.089683   -1.398714
     18          1           0       -4.381063   -1.705111   -1.526131
     19          1           0       -2.618231   -1.926915   -1.520436
     20          1           0       -3.324842   -0.504235   -2.300337
     21          1           0       -5.442404    0.134078   -0.132277
     22          1           0       -4.445710    1.204660    0.870453
     23          1           0       -4.397294    1.340123   -0.899230
     24          1           0       -2.769135   -2.198724    1.032629
     25          1           0       -3.415945   -0.872119    2.025408
     26          1           0       -4.497413   -1.859304    1.023581
     27          1           0       -2.364167    2.444359   -0.048616
     28          1           0       -0.805336   -1.261576    0.668148
     29          1           0        1.479083   -1.525370    2.025215
     30          1           0        3.140242   -2.108516    1.833713
     31          1           0        2.833228   -0.461184    2.432214
     32          1           0        2.092386   -1.436497   -1.726411
     33          1           0        2.823023   -2.646148   -0.638776
     34          1           0        1.118597   -2.210697   -0.477720
     35          1           0        4.172026    0.684844    0.524279
     36          1           0        4.657959   -1.013995    0.305294
     37          1           0        4.232804   -0.742153   -1.892053
 ---------------------------------------------------------------------

 SCF Done:  E(UB3LYP) =  -763.760453891     A.U. after   33 cycles
 SCF Done:  E(UB3LYP) =  -763.760453890     a.u. after    1 cycles

 The electronic state is 2-A.
 Alpha  occ. eigenvalues --  -19.03605 -14.30638 -14.29498 -14.22011 -14.21517
 Alpha  occ. eigenvalues --  -10.13801 -10.13653 -10.13453 -10.12664 -10.11568
 Alpha  occ. eigenvalues --  -10.11119 -10.09188 -10.07938 -10.07647 -10.07590
 Alpha  occ. eigenvalues --  -10.07472 -10.07309  -0.99471  -0.93854  -0.90294
 Alpha  occ. eigenvalues --   -0.77490  -0.75083  -0.72599  -0.70892  -0.66371
 Alpha  occ. eigenvalues --   -0.60828  -0.60696  -0.60296  -0.59099  -0.55463
 Alpha  occ. eigenvalues --   -0.53703  -0.50591  -0.49439  -0.45782  -0.44295
 Alpha  occ. eigenvalues --   -0.41867  -0.39475  -0.39148  -0.37466  -0.36509
 Alpha  occ. eigenvalues --   -0.36289  -0.35861  -0.35462  -0.34134  -0.33587
 Alpha  occ. eigenvalues --   -0.31645  -0.30910  -0.30311  -0.30154  -0.28578
 Alpha  occ. eigenvalues --   -0.28400  -0.28078  -0.27212  -0.26837  -0.26024
 Alpha  occ. eigenvalues --   -0.25404  -0.24907  -0.24089  -0.21247  -0.20697
 Alpha  occ. eigenvalues --   -0.19064  -0.16837  -0.15569  -0.12429   0.03410
 Alpha virt. eigenvalues --    0.05644   0.06521   0.07428   0.07597   0.07903
 Alpha virt. eigenvalues --    0.08342   0.09074   0.09935   0.09957   0.10233
 Alpha virt. eigenvalues --    0.10718   0.11076   0.11349   0.11946   0.12567

  Beta  occ. eigenvalues --  -19.03596 -14.30635 -14.29438 -14.22011 -14.21516
  Beta  occ. eigenvalues --  -10.13801 -10.13646 -10.13452 -10.12655 -10.11566
  Beta  occ. eigenvalues --  -10.11117 -10.09183 -10.07915 -10.07609 -10.07555
  Beta  occ. eigenvalues --  -10.07442 -10.07247  -0.99450  -0.93836  -0.90266
  Beta  occ. eigenvalues --   -0.77475  -0.75066  -0.72544  -0.70871  -0.66346
  Beta  occ. eigenvalues --   -0.60769  -0.60641  -0.60209  -0.59051  -0.55429
  Beta  occ. eigenvalues --   -0.53654  -0.50567  -0.49356  -0.45722  -0.44251
  Beta  occ. eigenvalues --   -0.41833  -0.39443  -0.39115  -0.37439  -0.36483
  Beta  occ. eigenvalues --   -0.36244  -0.35825  -0.35428  -0.34093  -0.33562
  Beta  occ. eigenvalues --   -0.31607  -0.30871  -0.30272  -0.30108  -0.28547
  Beta  occ. eigenvalues --   -0.28358  -0.28042  -0.27177  -0.26797  -0.25997
  Beta  occ. eigenvalues --   -0.25369  -0.24858  -0.24066  -0.21233  -0.20684
  Beta  occ. eigenvalues --   -0.19050  -0.16808  -0.15564  -0.12409
  Beta virt. eigenvalues --    0.05792   0.06204   0.07187   0.07783   0.07941
  Beta virt. eigenvalues --    0.08358   0.08577   0.09445   0.10148   0.10334
  Beta virt. eigenvalues --    0.10544   0.10899   0.11276   0.11641   0.12180

 Mulliken charges and spin densities:
               1          2
     1  C    0.653243  -1.239906
     2  C   -2.342381   3.066557
     3  C    0.102173  -0.664055
     4  C    0.697864  -1.358106
     5  C    1.597038  -2.343932
     6  C   -1.514922   1.388955
     7  C    1.354408  -1.190685
     8  N   -0.176333   0.016734
     9  N    0.063600  -0.003755
    10  C    0.035224  -0.991421
    11  N    0.294863  -0.315254
    12  N    0.147687   0.178713
    13  C   -0.942266   1.876758
    14  C    0.535177  -1.058109
    15  C    0.473221  -0.997866
    16  C   -0.507401  -0.073326
    17  O   -0.224213   0.001219
    18  H   -0.141724   0.308663
    19  H    0.082490   0.096770
    20  H   -0.024253   0.164307
    21  H   -0.200258   0.366999
    22  H    0.023460   0.116751
    23  H    0.063317   0.068764
    24  H   -0.836675   0.985135
    25  H   -0.130286   0.292687
    26  H   -0.308249   0.477206
    27  H    0.043018   0.149037
    28  H    0.985440  -0.662060
    29  H   -0.623477   0.774173
    30  H   -0.089910   0.253524
    31  H    0.099267   0.058680
    32  H    0.122831   0.028859
    33  H   -0.215503   0.388880
    34  H   -0.523224   0.648800
    35  H    0.209790   0.016062
    36  H    0.031192   0.119339
    37  H    0.185773   0.054902
 Sum of Mulliken charges =  -1.00000   1.00000

 Dipole moment (field-independent basis, Debye):
    X=              1.2504    Y=              1.8746    Z=             -1.7911  Tot=              2.8785
 Quadrupole moment (field-independent basis, Debye-Ang):
   XX=           -174.8127   YY=           -164.6371   ZZ=           -136.0898
   XY=            -19.6115   XZ=              5.0943   YZ=              7.7208

 Summary of Natural Population Analysis:

                                       Natural Population
                Natural  -----------------------------------------------
    Atom  No    Charge         Core      Valence    Rydberg      Total
 -----------------------------------------------------------------------
      C    1   -0.27803      0.99963     2.27108    0.00732     3.27803
      C    2   -0.06680      0.99954     2.05457    0.01269     3.06680
      C    3   -0.28083      0.99964     2.27524    0.00595     3.28083
      C    4   -0.28211      0.99963     2.27465    0.00784     3.28211
      C    5    0.11211      0.99949     1.87331    0.01510     2.88789
      C    6   -0.15251      0.99942     2.14581    0.00728     3.15251
      C    7    0.16775      0.99959     1.81614    0.01652     2.83225
      N    8   -0.17398      0.99968     2.66127    0.01303     3.67398
      N    9   -0.15733      0.99968     2.64622    0.01142     3.65733
      C   10    0.18070      0.99954     1.79975    0.02001     2.81930
      N   11   -0.12175      0.99953     2.61090    0.01133     3.62175
      N   12   -0.20443      0.99967     2.69253    0.01222     3.70443
      C   13   -0.07625      0.99954     2.06461    0.01210     3.07625
      C   14   -0.27893      0.99963     2.27220    0.00710     3.27893
      C   15   -0.28990      0.99963     2.28191    0.00835     3.28990
      C   16   -0.00362      0.99954     1.98972    0.01435     3.00362
      O   17   -0.36216      0.99990     3.35575    0.00651     4.36216
      H   18    0.10073      0.00000     0.39830    0.00097     0.39927
      H   19    0.10658      0.00000     0.39219    0.00123     0.39342
      H   20    0.10047      0.00000     0.39872    0.00081     0.39953
      H   21    0.10356      0.00000     0.39557    0.00087     0.39644
      H   22    0.10292      0.00000     0.39614    0.00094     0.39708
      H   23    0.10034      0.00000     0.39875    0.00091     0.39966
      H   24    0.10448      0.00000     0.39242    0.00310     0.39552
      H   25    0.10341      0.00000     0.39526    0.00133     0.39659
      H   26    0.10376      0.00000     0.39476    0.00148     0.39624
      H   27    0.11596      0.00000     0.38288    0.00116     0.38404
      H   28    0.20565      0.00000     0.28917    0.00517     0.29435
      H   29    0.10494      0.00000     0.39347    0.00159     0.39506
      H   30    0.10008      0.00000     0.39890    0.00102     0.39992
      H   31    0.10301      0.00000     0.39608    0.00091     0.39699
      H   32    0.10329      0.00000     0.39551    0.00120     0.39671
      H   33    0.10008      0.00000     0.39879    0.00114     0.39992
      H   34    0.10840      0.00000     0.38988    0.00172     0.39160
      H   35    0.10030      0.00000     0.39818    0.00152     0.39970
      H   36    0.07517      0.00000     0.42376    0.00107     0.42483
      H   37    0.22492      0.00000     0.27231    0.00277     0.27508
 =======================================================================
   * Total *    0.00000     16.99328    46.78670    0.22002    64.00000

 Normal termination of Gaussian 16 at Fri Dec 11 13:51:13 2020.
