 Gaussian 16, Revision A.03,

 -----------------------------------------------------------
 # opt freq B3LYP/6-31G(d) empiricaldispersion=gd3bj scf=xqc
 -----------------------------------------------------------

 -------------------------------
 CID_151995481_JID_8429_neutraal
 -------------------------------
 Symbolic Z-matrix:
 Charge =  0 Multiplicity = 1

 SCF Done:  E(RB3LYP) =  -872.255220115     A.U. after   17 cycles
 SCF Done:  E(RB3LYP) =  -872.263534314     A.U. after   15 cycles
 SCF Done:  E(RB3LYP) =  -872.265009045     A.U. after   13 cycles
 SCF Done:  E(RB3LYP) =  -872.265135540     A.U. after   13 cycles
 SCF Done:  E(RB3LYP) =  -872.265056333     A.U. after   12 cycles
 SCF Done:  E(RB3LYP) =  -872.265505652     A.U. after   12 cycles
 SCF Done:  E(RB3LYP) =  -872.265546803     A.U. after   11 cycles
 SCF Done:  E(RB3LYP) =  -872.265577339     A.U. after   11 cycles
 SCF Done:  E(RB3LYP) =  -872.265590353     A.U. after   11 cycles
 SCF Done:  E(RB3LYP) =  -872.265597735     A.U. after   11 cycles
 SCF Done:  E(RB3LYP) =  -872.265601458     A.U. after   10 cycles
 SCF Done:  E(RB3LYP) =  -872.265601862     A.U. after    9 cycles
 SCF Done:  E(RB3LYP) =  -872.265602622     A.U. after   10 cycles
 SCF Done:  E(RB3LYP) =  -872.265602944     A.U. after    9 cycles
 SCF Done:  E(RB3LYP) =  -872.265602981     A.U. after    7 cycles
 Optimization completed.
    -- Stationary point found.
 Normal termination of Gaussian 16 at Fri Dec 11 20:46:02 2020.

 --------------------------------------------------------------------
 #N Geom=AllCheck Guess=TCheck SCRF=Check GenChk RB3LYP/6-31G(d) Freq
 --------------------------------------------------------------------

 Structure from the checkpoint file:  "JID_8429.chk"
 -------------------------------
 CID_151995481_JID_8429_neutraal
 -------------------------------
 Charge =  0 Multiplicity = 1

 SCF Done:  E(RB3LYP) =  -872.265602981     A.U. after    1 cycles

  Exact polarizability: 219.966  -7.616 151.521 -13.009  14.708  98.205
 Approx polarizability: 309.912 -24.433 252.025 -32.615  40.037 147.542

                      1                      2                      3
                      A                      A                      A
 Frequencies --     15.5113                34.4723                40.6228
 Red. masses --      4.7041                 7.9861                 3.4895
 Frc consts  --      0.0007                 0.0056                 0.0034
 IR Inten    --      0.1153                 0.7894                 0.3600

                      4                      5                      6
                      A                      A                      A
 Frequencies --     51.8319                74.5205                80.5438
 Red. masses --      2.2872                 2.7122                 2.9816
 Frc consts  --      0.0036                 0.0089                 0.0114
 IR Inten    --      0.1194                 1.0747                 0.2802

                      7                      8                      9
                      A                      A                      A
 Frequencies --     85.7233                90.8554               121.4141
 Red. masses --      4.7815                 6.9953                 4.0411
 Frc consts  --      0.0207                 0.0340                 0.0351
 IR Inten    --      0.4365                 1.5325                 0.3308

                     10                     11                     12
                      A                      A                      A
 Frequencies --    163.5887               187.8355               201.8267
 Red. masses --      6.0572                 6.6597                 3.2845
 Frc consts  --      0.0955                 0.1384                 0.0788
 IR Inten    --      4.7817                 3.1824                 1.1136

                     13                     14                     15
                      A                      A                      A
 Frequencies --    216.0735               233.6634               260.7028
 Red. masses --      2.9661                 2.4669                 1.4119
 Frc consts  --      0.0816                 0.0794                 0.0565
 IR Inten    --      4.5389                 1.5724                 0.6594

                     16                     17                     18
                      A                      A                      A
 Frequencies --    270.9848               312.8154               329.4198
 Red. masses --      1.8756                 4.2680                 3.6354
 Frc consts  --      0.0811                 0.2461                 0.2324
 IR Inten    --      0.3069                 4.6467                 8.2813

                     19                     20                     21
                      A                      A                      A
 Frequencies --    362.4878               430.8908               452.8564
 Red. masses --      6.6460                 3.2629                 3.5294
 Frc consts  --      0.5145                 0.3569                 0.4265
 IR Inten    --      3.5665                 3.5715                 2.4443

                     22                     23                     24
                      A                      A                      A
 Frequencies --    461.5837               484.1888               524.2301
 Red. masses --      4.5584                 8.0658                12.1341
 Frc consts  --      0.5722                 1.1141                 1.9647
 IR Inten    --      4.0859                 5.0375                 0.7914

                     25                     26                     27
                      A                      A                      A
 Frequencies --    564.9371               584.9883               604.4107
 Red. masses --      5.5346                 7.1569                 5.4735
 Frc consts  --      1.0407                 1.4430                 1.1781
 IR Inten    --      5.1859                 1.0036                11.6220

                     28                     29                     30
                      A                      A                      A
 Frequencies --    684.2608               709.8787               757.9277
 Red. masses --      5.5020                 7.9176                 5.2462
 Frc consts  --      1.5178                 2.3508                 1.7756
 IR Inten    --     27.5758                65.3968                35.1306

                     31                     32                     33
                      A                      A                      A
 Frequencies --    774.8022               811.2632               828.6679
 Red. masses --      3.6775                 1.1460                 1.1082
 Frc consts  --      1.3007                 0.4444                 0.4484
 IR Inten    --     15.0767                 2.2912                 1.6803

                     34                     35                     36
                      A                      A                      A
 Frequencies --    860.3200               875.0603               899.7271
 Red. masses --      5.8511                 1.5476                 2.8902
 Frc consts  --      2.5516                 0.6982                 1.3785
 IR Inten    --     10.8491                11.7038                25.3755

                     37                     38                     39
                      A                      A                      A
 Frequencies --    924.3742               931.5219               961.4328
 Red. masses --      2.1196                 3.5887                 1.5392
 Frc consts  --      1.0671                 1.8347                 0.8383
 IR Inten    --      7.5717                 9.3709                 5.7541

                     40                     41                     42
                      A                      A                      A
 Frequencies --    989.2256              1015.9727              1027.3008
 Red. masses --      1.3641                 7.1971                 4.7340
 Frc consts  --      0.7865                 4.3769                 2.9436
 IR Inten    --      0.0217                 2.8416                63.3182

                     43                     44                     45
                      A                      A                      A
 Frequencies --   1053.6840              1071.4034              1102.1085
 Red. masses --      3.5830                 2.7968                 5.1405
 Frc consts  --      2.3438                 1.8915                 3.6788
 IR Inten    --     31.9671               113.5247               247.5779

                     46                     47                     48
                      A                      A                      A
 Frequencies --   1127.4903              1138.0866              1153.2183
 Red. masses --      1.9326                 1.6892                 2.5936
 Frc consts  --      1.4475                 1.2891                 2.0322
 IR Inten    --      8.0314                 6.0074                68.7939

                     49                     50                     51
                      A                      A                      A
 Frequencies --   1172.5420              1199.8168              1201.1355
 Red. masses --      2.1630                 1.7032                 1.9932
 Frc consts  --      1.7521                 1.4446                 1.6943
 IR Inten    --     58.5698               130.7043               176.8057

                     52                     53                     54
                      A                      A                      A
 Frequencies --   1236.1520              1283.6618              1297.2512
 Red. masses --      2.3857                 2.7085                 3.3745
 Frc consts  --      2.1479                 2.6296                 3.3459
 IR Inten    --    116.4699                 0.1677               559.9555

                     55                     56                     57
                      A                      A                      A
 Frequencies --   1314.8556              1315.6142              1321.4695
 Red. masses --      1.6283                 2.7036                 2.0108
 Frc consts  --      1.6586                 2.7571                 2.0689
 IR Inten    --     20.8634                 1.7020               238.3227

                     58                     59                     60
                      A                      A                      A
 Frequencies --   1345.7636              1389.7823              1401.7212
 Red. masses --      1.1726                 1.1258                 1.4804
 Frc consts  --      1.2512                 1.2812                 1.7138
 IR Inten    --     28.7642                29.1535                74.3749

                     61                     62                     63
                      A                      A                      A
 Frequencies --   1421.8496              1429.8800              1446.5110
 Red. masses --      1.3138                 1.2262                 1.5559
 Frc consts  --      1.5649                 1.4771                 1.9182
 IR Inten    --     11.0235                 5.0584                32.0793

                     64                     65                     66
                      A                      A                      A
 Frequencies --   1450.4890              1459.4796              1514.3355
 Red. masses --      2.7591                 1.3981                 1.0443
 Frc consts  --      3.4202                 1.7547                 1.4110
 IR Inten    --     46.6697                12.0478                 2.2279

                     67                     68                     69
                      A                      A                      A
 Frequencies --   1514.7224              1525.0072              1525.8054
 Red. masses --      1.0417                 1.1172                 2.1205
 Frc consts  --      1.4081                 1.5308                 2.9086
 IR Inten    --      5.0056                 0.0196                 2.0792

                     70                     71                     72
                      A                      A                      A
 Frequencies --   1530.7125              1544.7273              1559.8389
 Red. masses --      1.0513                 1.0725                 1.0883
 Frc consts  --      1.4514                 1.5079                 1.5602
 IR Inten    --      2.9130                 2.1805                 3.3983

                     73                     74                     75
                      A                      A                      A
 Frequencies --   1620.0893              1656.3907              1786.7391
 Red. masses --      8.1498                 5.8303                13.0687
 Frc consts  --     12.6031                 9.4246                24.5813
 IR Inten    --     23.7707                 4.4350               152.8238

                     76                     77                     78
                      A                      A                      A
 Frequencies --   2302.5854              2973.0787              3000.3564
 Red. masses --     13.9927                 1.0830                 1.0662
 Frc consts  --     43.7104                 5.6404                 5.6552
 IR Inten    --    618.8168                32.3912                54.8763

                     79                     80                     81
                      A                      A                      A
 Frequencies --   3038.6009              3053.9843              3056.9704
 Red. masses --      1.0610                 1.0964                 1.0395
 Frc consts  --      5.7716                 6.0249                 5.7232
 IR Inten    --     50.2709                35.5906                23.2951

                     82                     83                     84
                      A                      A                      A
 Frequencies --   3059.5346              3090.5295              3122.8707
 Red. masses --      1.0352                 1.1039                 1.1005
 Frc consts  --      5.7094                 6.2122                 6.3234
 IR Inten    --     21.5771                39.0000                32.3505

                     85                     86                     87
                      A                      A                      A
 Frequencies --   3130.8156              3135.7275              3162.9190
 Red. masses --      1.1025                 1.1036                 1.1013
 Frc consts  --      6.3672                 6.3936                 6.4915
 IR Inten    --     29.2020                31.9764                20.8263

                     88                     89                     90
                      A                      A                      A
 Frequencies --   3184.5343              3239.5116              3258.8425
 Red. masses --      1.0904                 1.0929                 1.0914
 Frc consts  --      6.5151                 6.7578                 6.8292
 IR Inten    --     26.4418                 2.2594                 2.1082

 - Thermochemistry -
 -------------------
 Temperature   298.150 Kelvin.  Pressure   1.00000 Atm.
 Atom     1 has atomic number  6 and mass  12.00000

 Molecular mass:   250.10659 amu.
 Principal axes and moments of inertia in atomic units:
                           1         2         3
     Eigenvalues --  2544.432059167.62112**********
           X            0.99986   0.01184   0.01180
           Y           -0.01154   0.99961  -0.02527
           Z           -0.01210   0.02513   0.99961
 This molecule is an asymmetric top.
 Rotational symmetry number  1.
 Warning -- assumption of classical behavior for rotation
           may cause significant error
 Rotational temperatures (Kelvin)      0.03404     0.00945     0.00842
 Rotational constants (GHZ):           0.70929     0.19686     0.17545
 Zero-point vibrational energy     665230.8 (Joules/Mol)
                                  158.99399 (Kcal/Mol)
 Warning -- explicit consideration of  27 degrees of freedom as
           vibrations may cause significant error
 Vibrational temperatures:     22.32    49.60    58.45    74.57   107.22
          (Kelvin)            115.88   123.34   130.72   174.69   235.37
                              270.25   290.38   310.88   336.19   375.09
                              389.89   450.07   473.96   521.54   619.96
                              651.56   664.12   696.64   754.25   812.82
                              841.67   869.61   984.50  1021.36  1090.49
                             1114.77  1167.23  1192.27  1237.81  1259.02
                             1294.51  1329.97  1340.25  1383.29  1423.28
                             1461.76  1478.06  1516.02  1541.51  1585.69
                             1622.21  1637.45  1659.22  1687.03  1726.27
                             1728.17  1778.55  1846.90  1866.46  1891.78
                             1892.88  1901.30  1936.25  1999.59  2016.76
                             2045.72  2057.28  2081.21  2086.93  2099.87
                             2178.79  2179.35  2194.15  2195.29  2202.35
                             2222.52  2244.26  2330.95  2383.18  2570.72
                             3312.91  4277.60  4316.84  4371.87  4394.00
                             4398.30  4401.99  4446.58  4493.11  4504.55
                             4511.61  4550.74  4581.83  4660.93  4688.75

 Zero-point correction=                           0.253373 (Hartree/Particle)
 Thermal correction to Energy=                    0.271384
 Thermal correction to Enthalpy=                  0.272328
 Thermal correction to Gibbs Free Energy=         0.204094
 Sum of electronic and zero-point Energies=           -872.012230
 Sum of electronic and thermal Energies=              -871.994219
 Sum of electronic and thermal Enthalpies=            -871.993275
 Sum of electronic and thermal Free Energies=         -872.061509

                     E (Thermal)             CV                S
                      KCal/Mol        Cal/Mol-Kelvin    Cal/Mol-Kelvin
 Total                  170.296             63.849            143.610
 Electronic               0.000              0.000              0.000
 Translational            0.889              2.981             42.451
 Rotational               0.889              2.981             33.839
 Vibrational            168.518             57.888             67.321
 Vibration     1          0.593              1.986              7.139
 Vibration     2          0.594              1.983              5.554
 Vibration     3          0.594              1.981              5.228
 Vibration     4          0.596              1.977              4.746
 Vibration     5          0.599              1.966              4.030
 Vibration     6          0.600              1.962              3.878
 Vibration     7          0.601              1.959              3.755
 Vibration     8          0.602              1.956              3.642
 Vibration     9          0.609              1.931              3.078
 Vibration    10          0.623              1.887              2.508
 Vibration    11          0.633              1.857              2.249
 Vibration    12          0.639              1.837              2.116
 Vibration    13          0.645              1.817              1.992
 Vibration    14          0.654              1.789              1.851
 Vibration    15          0.669              1.745              1.657
 Vibration    16          0.675              1.727              1.590
 Vibration    17          0.701              1.649              1.347
 Vibration    18          0.712              1.617              1.263
 Vibration    19          0.736              1.550              1.111
 Vibration    20          0.792              1.403              0.856
 Vibration    21          0.811              1.355              0.787
 Vibration    22          0.819              1.335              0.762
 Vibration    23          0.840              1.285              0.699
 Vibration    24          0.879              1.196              0.600
 Vibration    25          0.921              1.107              0.514
 Vibration    26          0.942              1.064              0.476
 Vibration    27          0.963              1.022              0.442

 Optimization completed.
    -- Stationary point found.
 Normal termination of Gaussian 16 at Fri Dec 11 20:57:56 2020.

 ----------------------------------------------------------------------
 # B3LYP/6-311++G(d,p) empiricaldispersion=gd3bj scf=xqc pop=npa geom=c
 heck
 ----------------------------------------------------------------------

 ---------------------------------------
 CID_151995481_JID_8429_Energie_neutraal
 ---------------------------------------
 Structure from the checkpoint file:  "JID_8429.chk"
 Charge =  0 Multiplicity = 1

 SCF Done:  E(RB3LYP) =  -872.508470485     A.U. after   17 cycles
 Normal termination of Gaussian 16 at Fri Dec 11 21:04:21 2020.

 ----------------------------------------------------------------------
 # B3LYP/6-311++G(d,p) empiricaldispersion=gd3bj scf=xqc pop=npa geom=c
 heck
 ----------------------------------------------------------------------

 -------------------------------------
 CID_151995481_JID_8429_Energie_kation
 -------------------------------------
 Structure from the checkpoint file:  "JID_8429.chk"
 Charge =  1 Multiplicity = 2

 SCF Done:  E(UB3LYP) =  -872.181517023     A.U. after   32 cycles
 Normal termination of Gaussian 16 at Fri Dec 11 21:21:41 2020.
 Gaussian 16:  ES64L-G16RevA.03 25-Dec-2016

 ----------------------------------------------------------------------
 # B3LYP/6-311++G(d,p) empiricaldispersion=gd3bj scf=xqc pop=npa geom=c
 heck
 ----------------------------------------------------------------------

 ------------------------------------
 CID_151995481_JID_8429_Energie_anion
 ------------------------------------
 Structure from the checkpoint file:  "JID_8429.chk"
 Charge = -1 Multiplicity = 2

                         Standard orientation:
 ---------------------------------------------------------------------
 Center     Atomic      Atomic             Coordinates (Angstroms)
 Number     Number       Type             X           Y           Z
 ---------------------------------------------------------------------
      1          6           0        3.810335   -1.558064    2.168856
      2          6           0        3.137424   -1.546940    0.808104
      3          8           0        2.621488   -0.235984    0.589596
      4          6           0        2.046111   -0.032745   -0.695706
      5          6           0        0.628504   -0.568788   -0.724357
      6          7           0        0.492397   -1.841597   -1.120837
      7          6           0       -0.735659   -2.376879   -1.093901
      8          6           0       -1.870012   -1.682903   -0.683014
      9          6           0       -1.715475   -0.354039   -0.270444
     10          6           0       -0.441732    0.213538   -0.286929
     11          6           0       -2.855130    0.485883    0.187717
     12          8           0       -2.756587    1.639490    0.550692
     13          7           0       -4.097072   -0.226508    0.154079
     14          7           0       -5.080486    0.440964    0.531333
     15          7           0       -6.032640    0.960764    0.855040
     16          8           0        1.999778    1.328538   -0.959454
     17          6           0        3.273583    1.985528   -1.009326
     18          6           0        3.568932    2.732621    0.283227
     19          1           0        4.223556   -2.549949    2.381518
     20          1           0        3.090232   -1.305657    2.953578
     21          1           0        4.624351   -0.826646    2.202115
     22          1           0        3.854281   -1.800277    0.010532
     23          1           0        2.328662   -2.288543    0.762177
     24          1           0        2.652755   -0.574101   -1.442710
     25          1           0       -0.812959   -3.411051   -1.422097
     26          1           0       -2.844848   -2.155702   -0.684108
     27          1           0       -0.286814    1.239373    0.021648
     28          1           0        4.059953    1.250771   -1.227277
     29          1           0        3.217295    2.680005   -1.854885
     30          1           0        3.646619    2.031383    1.116700
     31          1           0        4.508002    3.292007    0.193301
     32          1           0        2.764797    3.443402    0.500182
 ---------------------------------------------------------------------

 SCF Done:  E(UB3LYP) =  -872.548001163     A.U. after   23 cycles

 The electronic state is 2-A.
 Alpha  occ. eigenvalues --  -19.02956 -19.02442 -18.93864 -14.34326 -14.24964
 Alpha  occ. eigenvalues --  -14.22495 -14.16048 -10.16105 -10.12986 -10.12240
 Alpha  occ. eigenvalues --  -10.11184 -10.07935 -10.07198 -10.06974 -10.06457
 Alpha  occ. eigenvalues --  -10.03910 -10.03600 -10.02884  -1.01200  -0.97294
 Alpha  occ. eigenvalues --   -0.91262  -0.89823  -0.83261  -0.80442  -0.68617
 Alpha  occ. eigenvalues --   -0.67101  -0.66222  -0.63037  -0.57003  -0.56277
 Alpha  occ. eigenvalues --   -0.52500  -0.51950  -0.47735  -0.47640  -0.41941
 Alpha  occ. eigenvalues --   -0.41587  -0.40054  -0.38500  -0.38297  -0.37157
 Alpha  occ. eigenvalues --   -0.36505  -0.34000  -0.33804  -0.33177  -0.32377
 Alpha  occ. eigenvalues --   -0.31416  -0.30671  -0.30409  -0.29896  -0.29202
 Alpha  occ. eigenvalues --   -0.28463  -0.27598  -0.27488  -0.26206  -0.24918
 Alpha  occ. eigenvalues --   -0.23913  -0.22840  -0.22343  -0.19593  -0.18249
 Alpha  occ. eigenvalues --   -0.16557  -0.15019  -0.14209  -0.12784  -0.12483
 Alpha  occ. eigenvalues --   -0.11479   0.02205
 Alpha virt. eigenvalues --    0.06338   0.07440   0.08391   0.09366   0.09676
 Alpha virt. eigenvalues --    0.09919   0.10533   0.10712   0.11090   0.11533
 Alpha virt. eigenvalues --    0.12120   0.12197   0.12724   0.13516   0.14088

  Beta  occ. eigenvalues --  -19.02953 -19.02440 -18.93360 -14.34132 -14.24638
  Beta  occ. eigenvalues --  -14.22660 -14.15638 -10.16105 -10.12985 -10.12239
  Beta  occ. eigenvalues --  -10.10865 -10.07935 -10.07198 -10.07017 -10.06472
  Beta  occ. eigenvalues --  -10.03774 -10.03489 -10.02728  -1.00810  -0.97291
  Beta  occ. eigenvalues --   -0.91259  -0.89096  -0.82934  -0.79929  -0.68594
  Beta  occ. eigenvalues --   -0.66536  -0.66215  -0.62848  -0.56894  -0.55561
  Beta  occ. eigenvalues --   -0.52493  -0.51860  -0.47549  -0.47378  -0.41930
  Beta  occ. eigenvalues --   -0.41446  -0.40013  -0.38199  -0.37408  -0.37127
  Beta  occ. eigenvalues --   -0.36289  -0.33812  -0.33606  -0.32655  -0.32254
  Beta  occ. eigenvalues --   -0.31368  -0.30642  -0.29993  -0.29831  -0.29148
  Beta  occ. eigenvalues --   -0.28364  -0.27269  -0.26147  -0.25925  -0.24054
  Beta  occ. eigenvalues --   -0.23028  -0.22787  -0.22238  -0.19483  -0.18223
  Beta  occ. eigenvalues --   -0.16489  -0.13307  -0.13059  -0.12269  -0.11659
  Beta  occ. eigenvalues --   -0.11071
  Beta virt. eigenvalues --    0.06329   0.07430   0.08383   0.08476   0.09385
  Beta virt. eigenvalues --    0.09770   0.10056   0.10559   0.11054   0.11384
  Beta virt. eigenvalues --    0.11721   0.12191   0.12720   0.13494   0.13550

 Mulliken charges and spin densities:
               1          2
     1  C   -0.546915   0.001755
     2  C   -0.011685   0.002670
     3  O    0.006170   0.002370
     4  C   -0.471013  -0.051756
     5  C   -0.897905  -0.025753
     6  N    0.063555   0.191773
     7  C   -0.433387  -0.008586
     8  C    0.034779   0.116561
     9  C    0.495734   0.061768
    10  C   -0.264525   0.169195
    11  C   -0.237079   0.210432
    12  O   -0.386979   0.182731
    13  N    0.102585  -0.125297
    14  N    0.473378   0.084138
    15  N   -0.504002   0.198143
    16  O   -0.028939   0.000972
    17  C   -0.021481   0.000286
    18  C   -0.432321  -0.000218
    19  H    0.119449   0.000906
    20  H    0.154531   0.000868
    21  H    0.124602   0.001623
    22  H    0.100011  -0.000263
    23  H    0.171041  -0.002494
    24  H    0.161986   0.002356
    25  H    0.129834  -0.001770
    26  H    0.195146  -0.004083
    27  H    0.242793  -0.008964
    28  H    0.096944   0.000389
    29  H    0.160409   0.000142
    30  H    0.167913  -0.000055
    31  H    0.103596   0.000037
    32  H    0.131775   0.000124
 Sum of Mulliken charges =  -1.00000   1.00000

 Dipole moment (field-independent basis, Debye):
    X=             10.1493    Y=             -1.8677    Z=             -0.2737  Tot=             10.3233
 Quadrupole moment (field-independent basis, Debye-Ang):
   XX=           -163.4252   YY=           -123.6473   ZZ=           -116.9738
   XY=             14.5811   XZ=              6.7517   YZ=             -7.3081

 Summary of Natural Population Analysis:

                                       Natural Population
                Natural  -----------------------------------------------
    Atom  No    Charge         Core      Valence    Rydberg      Total
 -----------------------------------------------------------------------
      C    1   -0.29185      0.99967     2.28804    0.00415     3.29185
      C    2   -0.01326      0.99961     2.00319    0.01046     3.01326
      O    3   -0.31343      0.99987     3.30193    0.01163     4.31343
      C    4    0.22036      0.99951     1.76287    0.01726     2.77964
      C    5    0.06550      0.99951     1.92070    0.01430     2.93450
      N    6   -0.19396      0.99968     2.68258    0.01170     3.69396
      C    7    0.00715      0.99960     1.97834    0.01491     2.99285
      C    8   -0.08743      0.99953     2.08030    0.00760     3.08743
      C    9   -0.02586      0.99946     2.01678    0.00961     3.02586
      C   10   -0.06086      0.99947     2.05300    0.00838     3.06086
      C   11    0.35892      0.99963     1.61843    0.02302     2.64108
      O   12   -0.25537      0.99987     3.24897    0.00653     4.25537
      N   13   -0.24241      0.99968     2.72832    0.01441     3.74241
      N   14    0.14952      0.99971     2.33346    0.01731     3.35048
      N   15    0.00155      0.99981     2.48554    0.01310     3.49845
      O   16   -0.29471      0.99987     3.28432    0.01053     4.29471
      C   17   -0.00804      0.99960     1.99844    0.01000     3.00804
      C   18   -0.29877      0.99966     2.29470    0.00441     3.29877
      H   19    0.09488      0.00000     0.40438    0.00074     0.40512
      H   20    0.10206      0.00000     0.39695    0.00099     0.39794
      H   21    0.09493      0.00000     0.40386    0.00121     0.40507
      H   22    0.07299      0.00000     0.42553    0.00149     0.42701
      H   23    0.09250      0.00000     0.40598    0.00152     0.40750
      H   24    0.06678      0.00000     0.43090    0.00232     0.43322
      H   25    0.07955      0.00000     0.41912    0.00132     0.42045
      H   26    0.10472      0.00000     0.39429    0.00099     0.39528
      H   27    0.11514      0.00000     0.38354    0.00132     0.38486
      H   28    0.07747      0.00000     0.42109    0.00144     0.42253
      H   29    0.08229      0.00000     0.41655    0.00116     0.41771
      H   30    0.10840      0.00000     0.39045    0.00115     0.39160
      H   31    0.09015      0.00000     0.40895    0.00090     0.40985
      H   32    0.10111      0.00000     0.39792    0.00097     0.39889
 =======================================================================
   * Total *    0.00000     17.99375    47.77943    0.22682    66.00000

 Normal termination of Gaussian 16 at Fri Dec 11 21:34:24 2020.
