 Gaussian 16, Revision A.03,

 -----------------------------------------------------------
 # opt freq B3LYP/6-31G(d) empiricaldispersion=gd3bj scf=xqc
 -----------------------------------------------------------

 ------------------------------
 CID_79002367_JID_3160_neutraal
 ------------------------------
 Symbolic Z-matrix:
 Charge =  0 Multiplicity = 1

 SCF Done:  E(RB3LYP) =  -543.396088650     A.U. after   13 cycles
 SCF Done:  E(RB3LYP) =  -543.398366421     A.U. after   11 cycles
 SCF Done:  E(RB3LYP) =  -543.398822689     A.U. after   11 cycles
 SCF Done:  E(RB3LYP) =  -543.398928182     A.U. after   11 cycles
 SCF Done:  E(RB3LYP) =  -543.398942990     A.U. after   11 cycles
 SCF Done:  E(RB3LYP) =  -543.398990711     A.U. after   11 cycles
 SCF Done:  E(RB3LYP) =  -543.398994246     A.U. after    9 cycles
 SCF Done:  E(RB3LYP) =  -543.398998181     A.U. after    9 cycles
 SCF Done:  E(RB3LYP) =  -543.398998354     A.U. after    7 cycles
 Optimization completed.
    -- Stationary point found.
 Normal termination of Gaussian 16 at Wed Dec  9 22:26:25 2020.

 --------------------------------------------------------------------
 #N Geom=AllCheck Guess=TCheck SCRF=Check GenChk RB3LYP/6-31G(d) Freq
 --------------------------------------------------------------------

 Structure from the checkpoint file:  "JID_3160.chk"
 ------------------------------
 CID_79002367_JID_3160_neutraal
 ------------------------------
 Charge =  0 Multiplicity = 1

 SCF Done:  E(RB3LYP) =  -543.398998354     A.U. after    1 cycles

  Exact polarizability: 155.460  -2.961 124.656   4.564 -13.911  93.903
 Approx polarizability: 219.426  -1.364 205.366   9.898 -27.912 134.144

                      1                      2                      3
                      A                      A                      A
 Frequencies --     43.2283                61.7063                86.3842
 Red. masses --      3.3459                 2.8221                 4.4779
 Frc consts  --      0.0037                 0.0063                 0.0197
 IR Inten    --      0.2237                 0.1998                 0.5084

                      4                      5                      6
                      A                      A                      A
 Frequencies --    104.0292               165.9214               184.1644
 Red. masses --      3.6234                 3.2346                 2.1080
 Frc consts  --      0.0231                 0.0525                 0.0421
 IR Inten    --      1.8134                 1.0106                 0.8731

                      7                      8                      9
                      A                      A                      A
 Frequencies --    194.8532               222.3432               242.9889
 Red. masses --      1.2702                 1.2096                 1.1468
 Frc consts  --      0.0284                 0.0352                 0.0399
 IR Inten    --      0.4105                 0.2550                 0.1243

                     10                     11                     12
                      A                      A                      A
 Frequencies --    257.8881               283.8748               323.1961
 Red. masses --      2.5636                 3.4503                 3.1708
 Frc consts  --      0.1005                 0.1638                 0.1951
 IR Inten    --      0.2126                 0.7691                 0.2929

                     13                     14                     15
                      A                      A                      A
 Frequencies --    358.7347               393.0133               420.5198
 Red. masses --      2.1160                 2.3381                 1.3840
 Frc consts  --      0.1604                 0.2128                 0.1442
 IR Inten    --      3.2042                 1.0968               111.9651

                     16                     17                     18
                      A                      A                      A
 Frequencies --    423.5179               454.6022               481.2032
 Red. masses --      2.3576                 2.4414                 2.3075
 Frc consts  --      0.2492                 0.2973                 0.3148
 IR Inten    --      0.1732                29.2739                14.3984

                     19                     20                     21
                      A                      A                      A
 Frequencies --    534.9276               545.7668               601.6004
 Red. masses --      3.8481                 3.7378                 4.3050
 Frc consts  --      0.6488                 0.6560                 0.9180
 IR Inten    --      5.5958                 0.9021                12.4911

                     22                     23                     24
                      A                      A                      A
 Frequencies --    668.2835               752.4151               769.5486
 Red. masses --      4.5061                 2.1648                 1.8879
 Frc consts  --      1.1857                 0.7221                 0.6587
 IR Inten    --      5.8094                12.1082                14.4865

                     25                     26                     27
                      A                      A                      A
 Frequencies --    791.8159               823.7239               847.9390
 Red. masses --      2.9346                 3.2910                 2.5731
 Frc consts  --      1.0840                 1.3157                 1.0900
 IR Inten    --      2.6178                 1.7118                 0.2295

                     28                     29                     30
                      A                      A                      A
 Frequencies --    883.9995               923.1114               941.4641
 Red. masses --      1.3149                 2.3667                 1.2757
 Frc consts  --      0.6054                 1.1882                 0.6662
 IR Inten    --      0.2669                 1.5105                 1.9497

                     31                     32                     33
                      A                      A                      A
 Frequencies --    945.3043               962.5041               982.4939
 Red. masses --      1.3298                 1.6980                 1.2884
 Frc consts  --      0.7002                 0.9268                 0.7327
 IR Inten    --      0.9950                13.5642                 0.9519

                     34                     35                     36
                      A                      A                      A
 Frequencies --    986.0696              1020.3370              1027.6633
 Red. masses --      1.4953                 1.4832                 1.5981
 Frc consts  --      0.8566                 0.9098                 0.9944
 IR Inten    --      3.4017                 3.7020                13.6486

                     37                     38                     39
                      A                      A                      A
 Frequencies --   1074.0908              1085.5369              1093.8052
 Red. masses --      1.5618                 2.2428                 4.2350
 Frc consts  --      1.0616                 1.5572                 2.9853
 IR Inten    --      8.3033                 4.9578                61.1907

                     40                     41                     42
                      A                      A                      A
 Frequencies --   1120.1876              1153.5961              1174.1833
 Red. masses --      1.9848                 2.2528                 1.8448
 Frc consts  --      1.4674                 1.7663                 1.4986
 IR Inten    --      4.6796                 6.5339                 2.9442

                     43                     44                     45
                      A                      A                      A
 Frequencies --   1197.5739              1199.7009              1211.2830
 Red. masses --      1.3672                 1.2986                 1.7987
 Frc consts  --      1.1553                 1.1012                 1.5549
 IR Inten    --      8.5960                 3.6375                 3.8471

                     46                     47                     48
                      A                      A                      A
 Frequencies --   1223.3481              1264.2904              1301.2548
 Red. masses --      1.6589                 1.9713                 1.3888
 Frc consts  --      1.4627                 1.8565                 1.3855
 IR Inten    --      7.6004                 2.4941                 1.1033

                     49                     50                     51
                      A                      A                      A
 Frequencies --   1315.6036              1336.0159              1360.2043
 Red. masses --      2.1348                 1.6999                 1.6823
 Frc consts  --      2.1770                 1.7877                 1.8338
 IR Inten    --     10.5864                 0.2149                 2.1875

                     52                     53                     54
                      A                      A                      A
 Frequencies --   1372.8051              1405.5536              1424.0470
 Red. masses --      1.6087                 1.3990                 1.3132
 Frc consts  --      1.7863                 1.6284                 1.5690
 IR Inten    --      1.8195                 7.0694                 0.6717

                     55                     56                     57
                      A                      A                      A
 Frequencies --   1429.0449              1437.3343              1446.3577
 Red. masses --      1.2591                 1.2325                 1.2318
 Frc consts  --      1.5149                 1.5002                 1.5183
 IR Inten    --     10.6531                46.4031                 2.5330

                     58                     59                     60
                      A                      A                      A
 Frequencies --   1449.9348              1492.3718              1518.0737
 Red. masses --      1.2300                 1.9165                 1.0476
 Frc consts  --      1.5235                 2.5149                 1.4225
 IR Inten    --     11.9221                 1.1103                 6.4338

                     61                     62                     63
                      A                      A                      A
 Frequencies --   1519.3909              1523.7278              1528.5969
 Red. masses --      1.0510                 1.0544                 1.3084
 Frc consts  --      1.4296                 1.4424                 1.8013
 IR Inten    --      0.1615                 1.7871                13.7615

                     64                     65                     66
                      A                      A                      A
 Frequencies --   1532.6203              1537.4472              1542.8070
 Red. masses --      1.0766                 1.0755                 1.8358
 Frc consts  --      1.4900                 1.4978                 2.5745
 IR Inten    --      3.2973                 6.8628                13.8047

                     67                     68                     69
                      A                      A                      A
 Frequencies --   1554.2438              1637.9869              1664.2729
 Red. masses --      1.0679                 5.6263                 5.5410
 Frc consts  --      1.5199                 8.8939                 9.0424
 IR Inten    --      7.4221                 0.3461                 1.9588

                     70                     71                     72
                      A                      A                      A
 Frequencies --   3000.7705              3037.5790              3041.5436
 Red. masses --      1.0729                 1.0397                 1.0436
 Frc consts  --      5.6923                 5.6521                 5.6884
 IR Inten    --     60.3530                18.5603                26.5324

                     73                     74                     75
                      A                      A                      A
 Frequencies --   3043.0832              3050.8000              3064.5052
 Red. masses --      1.0447                 1.0741                 1.0802
 Frc consts  --      5.7001                 5.8900                 5.9771
 IR Inten    --      6.6438                14.0164                37.3307

                     76                     77                     78
                      A                      A                      A
 Frequencies --   3095.3851              3099.1234              3107.8109
 Red. masses --      1.1005                 1.0993                 1.0984
 Frc consts  --      6.2127                 6.2207                 6.2507
 IR Inten    --     18.6720                 1.4897                74.6454

                     79                     80                     81
                      A                      A                      A
 Frequencies --   3118.5467              3127.2457              3130.4433
 Red. masses --      1.0938                 1.1002                 1.1001
 Frc consts  --      6.2673                 6.3396                 6.3515
 IR Inten    --     38.5351                20.0225                42.1843

                     82                     83                     84
                      A                      A                      A
 Frequencies --   3133.3385              3177.1757              3188.0727
 Red. masses --      1.0972                 1.0865                 1.0879
 Frc consts  --      6.3465                 6.4618                 6.5144
 IR Inten    --     29.6405                 9.8522                 9.1551

                     85                     86                     87
                      A                      A                      A
 Frequencies --   3201.2378              3211.1734              3714.6909
 Red. masses --      1.0916                 1.0968                 1.0654
 Frc consts  --      6.5910                 6.6634                 8.6618
 IR Inten    --     30.5871                19.9775                21.2271

 - Thermochemistry -
 -------------------
 Temperature   298.150 Kelvin.  Pressure   1.00000 Atm.
 Atom     1 has atomic number  6 and mass  12.00000

 Molecular mass:   178.13577 amu.
 Principal axes and moments of inertia in atomic units:
                           1         2         3
     Eigenvalues --  1576.719183287.088583378.18171
           X            0.99984  -0.00887  -0.01552
           Y            0.00471   0.96834  -0.24959
           Z            0.01724   0.24948   0.96823
 This molecule is an asymmetric top.
 Rotational symmetry number  1.
 Warning -- assumption of classical behavior for rotation
           may cause significant error
 Rotational temperatures (Kelvin)      0.05493     0.02635     0.02564
 Rotational constants (GHZ):           1.14462     0.54904     0.53423
 Zero-point vibrational energy     726019.3 (Joules/Mol)
                                  173.52279 (Kcal/Mol)
 Warning -- explicit consideration of  21 degrees of freedom as
           vibrations may cause significant error
 Vibrational temperatures:     62.20    88.78   124.29   149.67   238.72
          (Kelvin)            264.97   280.35   319.90   349.61   371.04
                              408.43   465.01   516.14   565.46   605.03
                              609.35   654.07   692.34   769.64   785.24
                              865.57   961.51  1082.56  1107.21  1139.25
                             1185.15  1220.00  1271.88  1328.15  1354.56
                             1360.08  1384.83  1413.59  1418.73  1468.04
                             1478.58  1545.38  1561.85  1573.74  1611.70
                             1659.77  1689.39  1723.04  1726.10  1742.77
                             1760.13  1819.03  1872.22  1892.86  1922.23
                             1957.03  1975.16  2022.28  2048.89  2056.08
                             2068.00  2080.99  2086.13  2147.19  2184.17
                             2186.06  2192.30  2199.31  2205.10  2212.04
                             2219.76  2236.21  2356.70  2394.52  4317.44
                             4370.40  4376.10  4378.32  4389.42  4409.14
                             4453.57  4458.95  4471.45  4486.89  4499.41
                             4504.01  4508.18  4571.25  4586.93  4605.87
                             4620.16  5344.61

 Zero-point correction=                           0.276526 (Hartree/Particle)
 Thermal correction to Energy=                    0.290166
 Thermal correction to Enthalpy=                  0.291110
 Thermal correction to Gibbs Free Energy=         0.236632
 Sum of electronic and zero-point Energies=           -543.122472
 Sum of electronic and thermal Energies=              -543.108832
 Sum of electronic and thermal Enthalpies=            -543.107888
 Sum of electronic and thermal Free Energies=         -543.162366

                     E (Thermal)             CV                S
                      KCal/Mol        Cal/Mol-Kelvin    Cal/Mol-Kelvin
 Total                  182.082             52.422            114.659
 Electronic               0.000              0.000              0.000
 Translational            0.889              2.981             41.439
 Rotational               0.889              2.981             31.238
 Vibrational            180.304             46.460             41.982
 Vibration     1          0.595              1.980              5.105
 Vibration     2          0.597              1.973              4.402
 Vibration     3          0.601              1.959              3.740
 Vibration     4          0.605              1.946              3.377
 Vibration     5          0.624              1.884              2.481
 Vibration     6          0.631              1.861              2.286
 Vibration     7          0.636              1.847              2.181
 Vibration     8          0.648              1.807              1.940
 Vibration     9          0.659              1.774              1.781
 Vibration    10          0.667              1.749              1.676
 Vibration    11          0.682              1.704              1.510
 Vibration    12          0.708              1.629              1.294
 Vibration    13          0.734              1.557              1.128
 Vibration    14          0.760              1.485              0.989
 Vibration    15          0.783              1.426              0.890
 Vibration    16          0.786              1.419              0.880
 Vibration    17          0.813              1.351              0.782
 Vibration    18          0.838              1.292              0.707
 Vibration    19          0.890              1.173              0.576
 Vibration    20          0.901              1.149              0.553
 Vibration    21          0.960              1.028              0.447

                           ! Non-Optimized Parameters !
 Normal termination of Gaussian 16 at Wed Dec  9 22:36:08 2020.

 ----------------------------------------------------------------------
 # B3LYP/6-311++G(d,p) empiricaldispersion=gd3bj scf=xqc pop=npa geom=c
 heck
 ----------------------------------------------------------------------

 --------------------------------------
 CID_79002367_JID_3160_Energie_neutraal
 --------------------------------------
 Structure from the checkpoint file:  "JID_3160.chk"
 Charge =  0 Multiplicity = 1

 SCF Done:  E(RB3LYP) =  -543.555281500     A.U. after   13 cycles
 Normal termination of Gaussian 16 at Wed Dec  9 22:40:17 2020.

 ----------------------------------------------------------------------
 # B3LYP/6-311++G(d,p) empiricaldispersion=gd3bj scf=xqc pop=npa geom=c
 heck
 ----------------------------------------------------------------------

 ------------------------------------
 CID_79002367_JID_3160_Energie_kation
 ------------------------------------
 Structure from the checkpoint file:  "JID_3160.chk"
 Charge =  1 Multiplicity = 2

 SCF Done:  E(UB3LYP) =  -543.243456101     A.U. after   25 cycles
 Normal termination of Gaussian 16 at Wed Dec  9 22:51:14 2020.
 Gaussian 16:  ES64L-G16RevA.03 25-Dec-2016

 ----------------------------------------------------------------------
 # B3LYP/6-311++G(d,p) empiricaldispersion=gd3bj scf=xqc pop=npa geom=c
 heck
 ----------------------------------------------------------------------

 -----------------------------------
 CID_79002367_JID_3160_Energie_anion
 -----------------------------------
 Structure from the checkpoint file:  "JID_3160.chk"
 Charge = -1 Multiplicity = 2

                         Standard orientation:
 ---------------------------------------------------------------------
 Center     Atomic      Atomic             Coordinates (Angstroms)
 Number     Number       Type             X           Y           Z
 ---------------------------------------------------------------------
      1          6           0        1.257228    2.333849   -0.775146
      2          6           0        1.536242    0.945324   -0.246559
      3          6           0        2.859705    0.561445   -0.003737
      4          6           0        3.178589   -0.707799    0.477426
      5          6           0        2.156503   -1.618655    0.728209
      6          6           0        0.831448   -1.248445    0.494649
      7          6           0        0.496236    0.025384    0.010847
      8          6           0       -0.952234    0.364196   -0.312624
      9          6           0       -1.285820   -0.197462   -1.714081
     10          8           0       -1.305226   -1.615766   -1.761406
     11          6           0       -1.958258   -0.081160    0.777185
     12          6           0       -1.602896    0.551945    2.128906
     13          6           0       -3.403193    0.264207    0.393107
     14          1           0        0.628895    2.913263   -0.087691
     15          1           0        2.190273    2.887142   -0.916098
     16          1           0        0.737639    2.310465   -1.740517
     17          1           0        3.656046    1.275871   -0.198063
     18          1           0        4.215547   -0.977750    0.656047
     19          1           0        2.382343   -2.611220    1.107844
     20          1           0        0.040485   -1.957638    0.718160
     21          1           0       -1.045960    1.454251   -0.396043
     22          1           0       -2.282676    0.124670   -2.024584
     23          1           0       -0.567150    0.211425   -2.441837
     24          1           0       -0.406259   -1.915008   -1.546833
     25          1           0       -1.903162   -1.171662    0.874876
     26          1           0       -1.668650    1.646621    2.071503
     27          1           0       -2.296073    0.219361    2.909878
     28          1           0       -0.587263    0.294785    2.443640
     29          1           0       -3.744912   -0.307186   -0.474645
     30          1           0       -4.081968    0.038601    1.223251
     31          1           0       -3.506642    1.333161    0.163259
 ---------------------------------------------------------------------

 SCF Done:  E(UB3LYP) =  -543.539473684     A.U. after   33 cycles
 SCF Done:  E(UB3LYP) =  -543.539473684     a.u. after    1 cycles

 The electronic state is 2-A.
 Alpha  occ. eigenvalues --  -19.02703 -10.11821 -10.08532 -10.08370 -10.07994
 Alpha  occ. eigenvalues --  -10.07838 -10.07666 -10.07608 -10.07454 -10.07292
 Alpha  occ. eigenvalues --  -10.06579 -10.06191 -10.05861  -0.92919  -0.76760
 Alpha  occ. eigenvalues --   -0.72005  -0.67706  -0.65882  -0.62169  -0.59094
 Alpha  occ. eigenvalues --   -0.58342  -0.53926  -0.50929  -0.48265  -0.46088
 Alpha  occ. eigenvalues --   -0.41129  -0.40705  -0.38134  -0.36553  -0.35997
 Alpha  occ. eigenvalues --   -0.34283  -0.33721  -0.32455  -0.31905  -0.31435
 Alpha  occ. eigenvalues --   -0.29355  -0.29141  -0.28675  -0.28357  -0.25982
 Alpha  occ. eigenvalues --   -0.25526  -0.25328  -0.24735  -0.23855  -0.22503
 Alpha  occ. eigenvalues --   -0.21345  -0.18289  -0.15527  -0.14457   0.04496
 Alpha virt. eigenvalues --    0.06324   0.06752   0.07697   0.07894   0.08336
 Alpha virt. eigenvalues --    0.08493   0.08941   0.09652   0.10178   0.10799
 Alpha virt. eigenvalues --    0.11070   0.11223   0.12359   0.12874   0.13487

  Beta  occ. eigenvalues --  -19.02695 -10.11803 -10.08527 -10.08365 -10.07988
  Beta  occ. eigenvalues --  -10.07833 -10.07656 -10.07600 -10.07436 -10.07276
  Beta  occ. eigenvalues --  -10.06538 -10.06166 -10.05841  -0.92902  -0.76738
  Beta  occ. eigenvalues --   -0.71983  -0.67672  -0.65854  -0.62132  -0.59042
  Beta  occ. eigenvalues --   -0.58287  -0.53884  -0.50891  -0.48216  -0.46049
  Beta  occ. eigenvalues --   -0.41086  -0.40671  -0.38099  -0.36516  -0.35968
  Beta  occ. eigenvalues --   -0.34246  -0.33685  -0.32430  -0.31864  -0.31394
  Beta  occ. eigenvalues --   -0.29318  -0.29102  -0.28641  -0.28330  -0.25952
  Beta  occ. eigenvalues --   -0.25499  -0.25302  -0.24700  -0.23825  -0.22470
  Beta  occ. eigenvalues --   -0.21326  -0.18269  -0.15504  -0.14422
  Beta virt. eigenvalues --    0.06576   0.07166   0.07577   0.07883   0.08076
  Beta virt. eigenvalues --    0.08780   0.08908   0.09424   0.10038   0.10671
  Beta virt. eigenvalues --    0.10991   0.11508   0.11766   0.12595   0.13286

 Mulliken charges and spin densities:
               1          2
     1  C    3.605504  -4.191249
     2  C   -2.797622   3.171681
     3  C    1.000989  -1.375409
     4  C    0.462826  -0.816117
     5  C    0.921079  -1.393178
     6  C   -0.584728   0.034044
     7  C   -0.700204   1.458077
     8  C   -0.390368   0.689283
     9  C    0.345322  -1.134191
    10  O   -0.227357   0.022479
    11  C   -0.622274   0.855345
    12  C   -0.181762  -0.586578
    13  C    0.321394  -0.863386
    14  H   -0.193026   0.350015
    15  H   -0.687830   0.855868
    16  H   -0.157184   0.319232
    17  H   -0.372498   0.522048
    18  H   -0.657761   0.821146
    19  H   -0.388815   0.552249
    20  H    0.120274   0.067799
    21  H    0.338356  -0.123160
    22  H   -0.071727   0.235881
    23  H    0.010022   0.153462
    24  H    0.170302   0.089224
    25  H    0.074782   0.078781
    26  H   -0.111593   0.258132
    27  H   -0.072274   0.206853
    28  H    0.154975  -0.009972
    29  H   -0.002442   0.159392
    30  H   -0.081619   0.217662
    31  H   -0.224742   0.374586
 Sum of Mulliken charges =  -1.00000   1.00000

 Dipole moment (field-independent basis, Debye):
    X=             -2.9351    Y=             -2.7334    Z=              0.6958  Tot=              4.0707
 Quadrupole moment (field-independent basis, Debye-Ang):
   XX=           -152.7529   YY=           -130.9976   ZZ=           -119.3593
   XY=             -0.8739   XZ=             -0.4027   YZ=              2.7302

 Summary of Natural Population Analysis:

                                       Natural Population
                Natural  -----------------------------------------------
    Atom  No    Charge         Core      Valence    Rydberg      Total
 -----------------------------------------------------------------------
      C    1   -0.29553      0.99964     2.28952    0.00638     3.29553
      C    2   -0.01313      0.99946     2.00274    0.01092     3.01313
      C    3   -0.09490      0.99951     2.08498    0.01041     3.09490
      C    4   -0.09948      0.99956     2.08964    0.01029     3.09948
      C    5   -0.10115      0.99955     2.09081    0.01078     3.10115
      C    6   -0.11745      0.99951     2.10737    0.01057     3.11745
      C    7   -0.01213      0.99946     1.99942    0.01325     3.01213
      C    8   -0.13210      0.99954     2.11930    0.01326     3.13210
      C    9   -0.00304      0.99957     1.99060    0.01288     3.00304
      O   10   -0.37142      0.99990     3.36546    0.00606     4.37142
      C   11   -0.11171      0.99960     2.10115    0.01097     3.11171
      C   12   -0.28381      0.99965     2.27928    0.00488     3.28381
      C   13   -0.28543      0.99965     2.27980    0.00597     3.28543
      H   14    0.10581      0.00000     0.39285    0.00135     0.39419
      H   15    0.10572      0.00000     0.39267    0.00161     0.39428
      H   16    0.10481      0.00000     0.39364    0.00155     0.39519
      H   17    0.10161      0.00000     0.39687    0.00152     0.39839
      H   18    0.10190      0.00000     0.39660    0.00150     0.39810
      H   19    0.10076      0.00000     0.39810    0.00114     0.39924
      H   20    0.10197      0.00000     0.39630    0.00173     0.39803
      H   21    0.10772      0.00000     0.38993    0.00236     0.39228
      H   22    0.08851      0.00000     0.41024    0.00125     0.41149
      H   23    0.07983      0.00000     0.41889    0.00128     0.42017
      H   24    0.23122      0.00000     0.26560    0.00318     0.26878
      H   25    0.09607      0.00000     0.40176    0.00217     0.40393
      H   26    0.09687      0.00000     0.40195    0.00118     0.40313
      H   27    0.09662      0.00000     0.40253    0.00086     0.40338
      H   28    0.10471      0.00000     0.39421    0.00108     0.39529
      H   29    0.10118      0.00000     0.39794    0.00088     0.39882
      H   30    0.09877      0.00000     0.40043    0.00080     0.40123
      H   31    0.09721      0.00000     0.40170    0.00109     0.40279
 =======================================================================
   * Total *   -0.00000     12.99458    35.85226    0.15315    49.00000

 Normal termination of Gaussian 16 at Wed Dec  9 23:05:47 2020.
