 Gaussian 16, Revision A.03,

 -----------------------------------------------------------
 # opt freq B3LYP/6-31G(d) empiricaldispersion=gd3bj scf=xqc
 -----------------------------------------------------------

 -------------------------------
 CID_140032828_JID_1734_neutraal
 -------------------------------
 Symbolic Z-matrix:
 Charge =  0 Multiplicity = 1

 SCF Done:  E(RB3LYP) =  -859.538176366     A.U. after   14 cycles
 SCF Done:  E(RB3LYP) =  -859.544109716     A.U. after   12 cycles
 SCF Done:  E(RB3LYP) =  -859.544725093     A.U. after   12 cycles
 SCF Done:  E(RB3LYP) =  -859.544818444     A.U. after   11 cycles
 SCF Done:  E(RB3LYP) =  -859.544748456     A.U. after   11 cycles
 SCF Done:  E(RB3LYP) =  -859.544862665     A.U. after   11 cycles
 SCF Done:  E(RB3LYP) =  -859.544869091     A.U. after    9 cycles
 SCF Done:  E(RB3LYP) =  -859.544871111     A.U. after    9 cycles
 SCF Done:  E(RB3LYP) =  -859.544872300     A.U. after    9 cycles
 SCF Done:  E(RB3LYP) =  -859.544872941     A.U. after    9 cycles
 SCF Done:  E(RB3LYP) =  -859.544873275     A.U. after    8 cycles
 SCF Done:  E(RB3LYP) =  -859.544873303     A.U. after    7 cycles
 Optimization completed.
    -- Stationary point found.
 Normal termination of Gaussian 16 at Tue Dec  8 20:55:36 2020.

 --------------------------------------------------------------------
 #N Geom=AllCheck Guess=TCheck SCRF=Check GenChk RB3LYP/6-31G(d) Freq
 --------------------------------------------------------------------

 Structure from the checkpoint file:  "JID_1734.chk"
 -------------------------------
 CID_140032828_JID_1734_neutraal
 -------------------------------
 Charge =  0 Multiplicity = 1

 SCF Done:  E(RB3LYP) =  -859.544873303     A.U. after    1 cycles

  Exact polarizability: 157.311  11.956 107.362   9.540  -5.297  63.931
 Approx polarizability: 223.302  31.184 194.027  19.580 -16.672  96.681

                      1                      2                      3
                      A                      A                      A
 Frequencies --     27.4481                66.4525                86.2615
 Red. masses --      3.8140                 5.0186                 2.5255
 Frc consts  --      0.0017                 0.0131                 0.0111
 IR Inten    --      0.7288                 0.1616                 0.0636

                      4                      5                      6
                      A                      A                      A
 Frequencies --    138.3379               217.8646               219.6501
 Red. masses --      3.1816                 5.1432                 2.8026
 Frc consts  --      0.0359                 0.1438                 0.0797
 IR Inten    --      0.4110                 1.3897                 2.4111

                      7                      8                      9
                      A                      A                      A
 Frequencies --    246.9790               262.8160               297.2540
 Red. masses --      1.1212                 1.7277                 2.9557
 Frc consts  --      0.0403                 0.0703                 0.1539
 IR Inten    --     25.1316                 6.0162                 1.2079

                     10                     11                     12
                      A                      A                      A
 Frequencies --    341.2398               365.1323               399.7022
 Red. masses --      3.2900                 4.5264                 3.7709
 Frc consts  --      0.2257                 0.3556                 0.3550
 IR Inten    --      0.0901                 0.0518                 1.0719

                     13                     14                     15
                      A                      A                      A
 Frequencies --    451.2467               541.5896               554.4636
 Red. masses --      2.8179                 5.4421                 6.8221
 Frc consts  --      0.3381                 0.9405                 1.2357
 IR Inten    --      0.3258                 2.4600                 7.2030

                     16                     17                     18
                      A                      A                      A
 Frequencies --    644.6326               684.1373               722.8373
 Red. masses --      6.2471                 3.9761                 3.5732
 Frc consts  --      1.5295                 1.0965                 1.1000
 IR Inten    --      6.0867                 1.0709                 3.6603

                     19                     20                     21
                      A                      A                      A
 Frequencies --    756.1464               807.8095               832.9625
 Red. masses --     10.5610                 1.4417                 1.3127
 Frc consts  --      3.5577                 0.5543                 0.5366
 IR Inten    --     16.1221                 3.4602                21.7465

                     22                     23                     24
                      A                      A                      A
 Frequencies --    871.4589               897.4863               924.8363
 Red. masses --      2.6023                 1.4233                 1.1946
 Frc consts  --      1.1644                 0.6755                 0.6020
 IR Inten    --      0.6707                 0.5535                11.7333

                     25                     26                     27
                      A                      A                      A
 Frequencies --    941.8632               995.1970              1010.8644
 Red. masses --      1.3762                 3.1065                 6.3491
 Frc consts  --      0.7193                 1.8127                 3.8225
 IR Inten    --      3.1357                67.4950                41.6632

                     28                     29                     30
                      A                      A                      A
 Frequencies --   1058.9771              1102.2537              1120.2431
 Red. masses --      2.3134                 2.0228                 1.7835
 Frc consts  --      1.5285                 1.4480                 1.3187
 IR Inten    --      1.4975                 7.8867                 5.0932

                     31                     32                     33
                      A                      A                      A
 Frequencies --   1130.2132              1144.0758              1251.1704
 Red. masses --      4.0976                 1.4590                 2.1560
 Frc consts  --      3.0839                 1.1252                 1.9885
 IR Inten    --      5.5582                25.5396                15.1760

                     34                     35                     36
                      A                      A                      A
 Frequencies --   1254.7450              1305.8493              1375.4581
 Red. masses --      1.3817                 1.2507                 1.4202
 Frc consts  --      1.2817                 1.2566                 1.5831
 IR Inten    --      0.1289                 4.8661                11.3386

                     37                     38                     39
                      A                      A                      A
 Frequencies --   1387.6864              1401.6851              1412.3504
 Red. masses --      1.7035                 1.7469                 2.0483
 Frc consts  --      1.9327                 2.0222                 2.4072
 IR Inten    --     21.4466                20.4684                 1.0680

                     40                     41                     42
                      A                      A                      A
 Frequencies --   1450.9118              1504.0473              1517.1484
 Red. masses --      1.2574                 1.1090                 1.0659
 Frc consts  --      1.5596                 1.4781                 1.4456
 IR Inten    --      5.1993                 5.9113                 2.1145

                     43                     44                     45
                      A                      A                      A
 Frequencies --   1530.5366              1535.1329              1601.5440
 Red. masses --      1.0510                 1.0624                 7.0931
 Frc consts  --      1.4506                 1.4751                10.7192
 IR Inten    --      2.6511                 6.8701                21.1618

                     46                     47                     48
                      A                      A                      A
 Frequencies --   1690.6843              1807.2452              2673.0394
 Red. masses --      6.0957                12.7574                 1.0374
 Frc consts  --     10.2659                24.5498                 4.3673
 IR Inten    --    108.1009               389.1630                13.1180

                     49                     50                     51
                      A                      A                      A
 Frequencies --   3042.9185              3056.3444              3057.0151
 Red. masses --      1.0604                 1.0524                 1.0482
 Frc consts  --      5.7849                 5.7922                 5.7713
 IR Inten    --     35.2242                22.7033                 8.6239

                     52                     53                     54
                      A                      A                      A
 Frequencies --   3079.8131              3106.0136              3120.6575
 Red. masses --      1.0992                 1.1041                 1.1026
 Frc consts  --      6.1432                 6.2758                 6.3263
 IR Inten    --     33.8720                15.6342                37.5171

                     55                     56                     57
                      A                      A                      A
 Frequencies --   3137.0016              3199.8982              3235.0896
 Red. masses --      1.1014                 1.0905                 1.0932
 Frc consts  --      6.3860                 6.5790                 6.7407
 IR Inten    --     39.5191                 9.2696                 5.4892

 - Thermochemistry -
 -------------------
 Temperature   298.150 Kelvin.  Pressure   1.00000 Atm.
 Atom     1 has atomic number  6 and mass  12.00000

 Molecular mass:   170.04015 amu.
 Principal axes and moments of inertia in atomic units:
                           1         2         3
     Eigenvalues --   874.661893331.263373862.03338
           X            0.99996  -0.00558  -0.00758
           Y            0.00576   0.99969   0.02426
           Z            0.00745  -0.02430   0.99968
 This molecule is an asymmetric top.
 Rotational symmetry number  1.
 Warning -- assumption of classical behavior for rotation
           may cause significant error
 Rotational temperatures (Kelvin)      0.09903     0.02600     0.02243
 Rotational constants (GHZ):           2.06336     0.54176     0.46730
 Zero-point vibrational energy     434223.0 (Joules/Mol)
                                  103.78179 (Kcal/Mol)
 Warning -- explicit consideration of  15 degrees of freedom as
           vibrations may cause significant error
 Vibrational temperatures:     39.49    95.61   124.11   199.04   313.46
          (Kelvin)            316.03   355.35   378.13   427.68   490.97
                              525.34   575.08   649.24   779.23   797.75
                              927.48   984.32  1040.00  1087.93  1162.26
                             1198.45  1253.84  1291.28  1330.63  1355.13
                             1431.87  1454.41  1523.63  1585.90  1611.78
                             1626.12  1646.07  1800.16  1805.30  1878.83
                             1978.98  1996.57  2016.71  2032.06  2087.54
                             2163.99  2182.84  2202.10  2208.71  2304.26
                             2432.52  2600.22  3845.91  4378.08  4397.40
                             4398.36  4431.16  4468.86  4489.93  4513.45
                             4603.94  4654.57

 Zero-point correction=                           0.165387 (Hartree/Particle)
 Thermal correction to Energy=                    0.176545
 Thermal correction to Enthalpy=                  0.177490
 Thermal correction to Gibbs Free Energy=         0.127250
 Sum of electronic and zero-point Energies=           -859.379486
 Sum of electronic and thermal Energies=              -859.368328
 Sum of electronic and thermal Enthalpies=            -859.367384
 Sum of electronic and thermal Free Energies=         -859.417623

                     E (Thermal)             CV                S
                      KCal/Mol        Cal/Mol-Kelvin    Cal/Mol-Kelvin
 Total                  110.784             40.871            105.737
 Electronic               0.000              0.000              0.000
 Translational            0.889              2.981             41.300
 Rotational               0.889              2.981             30.799
 Vibrational            109.006             34.909             33.638
 Vibration     1          0.593              1.984              6.006
 Vibration     2          0.598              1.970              4.256
 Vibration     3          0.601              1.959              3.743
 Vibration     4          0.614              1.915              2.827
 Vibration     5          0.646              1.814              1.977
 Vibration     6          0.647              1.811              1.962
 Vibration     7          0.661              1.768              1.752
 Vibration     8          0.670              1.741              1.643
 Vibration     9          0.691              1.679              1.432
 Vibration    10          0.721              1.593              1.206
 Vibration    11          0.738              1.544              1.100
 Vibration    12          0.766              1.471              0.964
 Vibration    13          0.810              1.358              0.792
 Vibration    14          0.897              1.158              0.562
 Vibration    15          0.910              1.130              0.535

 Optimization completed.
    -- Stationary point found.
 Normal termination of Gaussian 16 at Tue Dec  8 20:59:53 2020.

 ----------------------------------------------------------------------
 # B3LYP/6-311++G(d,p) empiricaldispersion=gd3bj scf=xqc pop=npa geom=c
 heck
 ----------------------------------------------------------------------

 ---------------------------------------
 CID_140032828_JID_1734_Energie_neutraal
 ---------------------------------------
 Structure from the checkpoint file:  "JID_1734.chk"
 Charge =  0 Multiplicity = 1

 SCF Done:  E(RB3LYP) =  -859.703631758     A.U. after   15 cycles
 Normal termination of Gaussian 16 at Tue Dec  8 21:05:35 2020.

 ----------------------------------------------------------------------
 # B3LYP/6-311++G(d,p) empiricaldispersion=gd3bj scf=xqc pop=npa geom=c
 heck
 ----------------------------------------------------------------------

 -------------------------------------
 CID_140032828_JID_1734_Energie_kation
 -------------------------------------
 Structure from the checkpoint file:  "JID_1734.chk"
 Charge =  1 Multiplicity = 2

 SCF Done:  E(UB3LYP) =  -859.410029706     A.U. after   20 cycles
 Normal termination of Gaussian 16 at Tue Dec  8 21:10:42 2020.
 Gaussian 16:  ES64L-G16RevA.03 25-Dec-2016

 ----------------------------------------------------------------------
 # B3LYP/6-311++G(d,p) empiricaldispersion=gd3bj scf=xqc pop=npa geom=c
 heck
 ----------------------------------------------------------------------

 ------------------------------------
 CID_140032828_JID_1734_Energie_anion
 ------------------------------------
 Structure from the checkpoint file:  "JID_1734.chk"
 Charge = -1 Multiplicity = 2

                         Standard orientation:
 ---------------------------------------------------------------------
 Center     Atomic      Atomic             Coordinates (Angstroms)
 Number     Number       Type             X           Y           Z
 ---------------------------------------------------------------------
      1          6           0       -3.150756    1.267983    0.888451
      2          6           0       -3.398131   -0.181548    0.465356
      3          6           0       -2.539533   -0.651470   -0.731253
      4          6           0       -1.069882   -0.661861   -0.452166
      5          6           0       -0.326990   -1.722677   -0.050306
      6          6           0        1.062223   -1.545664    0.217763
      7          6           0        1.649190   -0.321799    0.073017
      8          6           0        0.851043    0.822571   -0.360785
      9          8           0        1.247471    1.957359   -0.525532
     10          8           0       -0.490842    0.560796   -0.604228
     11         16           0        3.365576   -0.029191    0.386326
     12          1           0       -2.127998    1.417933    1.246332
     13          1           0       -3.835077    1.555169    1.694049
     14          1           0       -3.307462    1.956096    0.049945
     15          1           0       -3.217155   -0.855207    1.312736
     16          1           0       -4.451283   -0.308583    0.184511
     17          1           0       -2.840761   -1.666400   -1.012691
     18          1           0       -2.727135   -0.000503   -1.593737
     19          1           0       -0.794717   -2.693068    0.064517
     20          1           0        1.653902   -2.398371    0.538551
     21          1           0        3.282472    1.281548    0.072198
 ---------------------------------------------------------------------

 SCF Done:  E(UB3LYP) =  -859.714918395     A.U. after   27 cycles

 The electronic state is 2-A.
 Alpha  occ. eigenvalues --  -88.71096 -19.02059 -18.94372 -10.13757 -10.07841
 Alpha  occ. eigenvalues --  -10.05464 -10.05193 -10.04504 -10.04188 -10.02753
 Alpha  occ. eigenvalues --  -10.02496  -7.79802  -5.76144  -5.75811  -5.75247
 Alpha  occ. eigenvalues --   -0.95841  -0.87393  -0.68784  -0.68092  -0.63352
 Alpha  occ. eigenvalues --   -0.59649  -0.54823  -0.49506  -0.48454  -0.46212
 Alpha  occ. eigenvalues --   -0.37612  -0.35874  -0.34151  -0.32888  -0.31432
 Alpha  occ. eigenvalues --   -0.30467  -0.28886  -0.28490  -0.27198  -0.24902
 Alpha  occ. eigenvalues --   -0.23644  -0.23374  -0.22965  -0.21959  -0.20666
 Alpha  occ. eigenvalues --   -0.19138  -0.18551  -0.12951  -0.12933  -0.06791
 Alpha  occ. eigenvalues --    0.04486
 Alpha virt. eigenvalues --    0.07573   0.09218   0.09885   0.10504   0.11176
 Alpha virt. eigenvalues --    0.11840   0.12691   0.13232   0.13895   0.14521
 Alpha virt. eigenvalues --    0.15006   0.15260   0.16061   0.17078   0.17542

  Beta  occ. eigenvalues --  -88.71095 -19.01742 -18.94253 -10.13670 -10.07393
  Beta  occ. eigenvalues --  -10.05402 -10.05224 -10.04501 -10.03951 -10.02890
  Beta  occ. eigenvalues --  -10.02134  -7.79801  -5.76150  -5.75816  -5.75234
  Beta  occ. eigenvalues --   -0.95322  -0.87076  -0.68379  -0.67732  -0.63069
  Beta  occ. eigenvalues --   -0.59409  -0.54634  -0.49367  -0.47833  -0.45897
  Beta  occ. eigenvalues --   -0.37315  -0.35645  -0.33784  -0.32704  -0.30787
  Beta  occ. eigenvalues --   -0.29971  -0.28623  -0.28335  -0.26991  -0.24732
  Beta  occ. eigenvalues --   -0.23367  -0.23181  -0.22846  -0.21804  -0.19555
  Beta  occ. eigenvalues --   -0.18368  -0.17846  -0.12757  -0.12237  -0.05275
  Beta virt. eigenvalues --    0.07610   0.09191   0.09829   0.10460   0.11078
  Beta virt. eigenvalues --    0.11241   0.11883   0.12683   0.13124   0.13907
  Beta virt. eigenvalues --    0.14525   0.15213   0.15969   0.16141   0.17008

 Mulliken charges and spin densities:
               1          2
     1  C   -0.462867  -0.115587
     2  C    0.230548  -0.417395
     3  C   -0.432229  -0.021025
     4  C    0.140437   0.521474
     5  C   -0.034476  -0.330251
     6  C   -0.805819   0.283065
     7  C    1.123537   0.071404
     8  C   -0.067036   0.081113
     9  O   -0.390153   0.039905
    10  O   -0.081956   0.072496
    11  S   -0.774351   0.034678
    12  H    0.188695   0.002640
    13  H    0.070197   0.036474
    14  H    0.099845   0.019578
    15  H    0.083360   0.024037
    16  H   -0.225146   0.348724
    17  H   -0.026765   0.179902
    18  H    0.034040   0.134864
    19  H    0.069279   0.055302
    20  H    0.136959  -0.020001
    21  H    0.123900  -0.001397
 Sum of Mulliken charges =  -1.00000   1.00000

 Dipole moment (field-independent basis, Debye):
    X=             -1.4746    Y=             -1.4906    Z=              1.1124  Tot=              2.3736
 Quadrupole moment (field-independent basis, Debye-Ang):
   XX=           -116.8768   YY=            -91.9505   ZZ=            -85.5818
   XY=             -1.7289   XZ=             -1.6227   YZ=              1.0806

 Summary of Natural Population Analysis:

                                       Natural Population
                Natural  -----------------------------------------------
    Atom  No    Charge         Core      Valence    Rydberg      Total
 -----------------------------------------------------------------------
      C    1   -0.28968      0.99967     2.28329    0.00673     3.28968
      C    2   -0.17956      0.99964     2.17204    0.00788     3.17956
      C    3   -0.21386      0.99960     2.20374    0.01052     3.21386
      C    4    0.26074      0.99942     1.72578    0.01406     2.73926
      C    5   -0.19225      0.99949     2.18362    0.00913     3.19225
      C    6   -0.02085      0.99951     2.01110    0.01025     3.02085
      C    7   -0.11462      0.99937     2.10579    0.00946     3.11462
      C    8    0.38590      0.99953     1.59067    0.02390     2.61410
      O    9   -0.32341      0.99987     3.31685    0.00669     4.32341
      O   10   -0.23593      0.99983     3.22712    0.00898     4.23593
      S   11   -0.02194      4.99957     3.00344    0.01893     8.02194
      H   12    0.10638      0.00000     0.39259    0.00104     0.39362
      H   13    0.09033      0.00000     0.40897    0.00070     0.40967
      H   14    0.09631      0.00000     0.40272    0.00097     0.40369
      H   15    0.09196      0.00000     0.40703    0.00101     0.40804
      H   16    0.09009      0.00000     0.40774    0.00218     0.40991
      H   17    0.10158      0.00000     0.39745    0.00097     0.39842
      H   18    0.10329      0.00000     0.39517    0.00153     0.39671
      H   19    0.09878      0.00000     0.40031    0.00091     0.40122
      H   20    0.08869      0.00000     0.40990    0.00141     0.41131
      H   21    0.07804      0.00000     0.41885    0.00311     0.42196
 =======================================================================
   * Total *    0.00000     14.99548    29.86416    0.14036    45.00000

 Normal termination of Gaussian 16 at Tue Dec  8 21:16:21 2020.
