 Gaussian 16, Revision A.03,

 -----------------------------------------------------------
 # opt freq B3LYP/6-31G(d) empiricaldispersion=gd3bj scf=xqc
 -----------------------------------------------------------

 -------------------------------
 CID_145188010_JID_4409_neutraal
 -------------------------------
 Symbolic Z-matrix:
 Charge =  0 Multiplicity = 1

 SCF Done:  E(RB3LYP) =  -630.818357184     A.U. after   15 cycles
 SCF Done:  E(RB3LYP) =  -630.821763318     A.U. after   13 cycles
 SCF Done:  E(RB3LYP) =  -630.819152358     A.U. after   13 cycles
 SCF Done:  E(RB3LYP) =  -630.822491220     A.U. after   11 cycles
 SCF Done:  E(RB3LYP) =  -630.822553345     A.U. after   11 cycles
 SCF Done:  E(RB3LYP) =  -630.822591274     A.U. after   11 cycles
 SCF Done:  E(RB3LYP) =  -630.822618185     A.U. after   11 cycles
 SCF Done:  E(RB3LYP) =  -630.822646768     A.U. after   11 cycles
 SCF Done:  E(RB3LYP) =  -630.822671775     A.U. after   11 cycles
 SCF Done:  E(RB3LYP) =  -630.822696633     A.U. after   12 cycles
 SCF Done:  E(RB3LYP) =  -630.825716776     A.U. after    9 cycles
 SCF Done:  E(RB3LYP) =  -630.825716802     A.U. after    8 cycles
 SCF Done:  E(RB3LYP) =  -630.825716714     A.U. after    9 cycles
 SCF Done:  E(RB3LYP) =  -630.825716714     A.U. after    6 cycles
 SCF Done:  E(RB3LYP) =  -630.825716705     A.U. after    7 cycles
 Optimization completed.
    -- Stationary point found.
 Normal termination of Gaussian 16 at Thu Dec 10 10:08:46 2020.

 --------------------------------------------------------------------
 #N Geom=AllCheck Guess=TCheck SCRF=Check GenChk RB3LYP/6-31G(d) Freq
 --------------------------------------------------------------------

 Structure from the checkpoint file:  "JID_4409.chk"
 -------------------------------
 CID_145188010_JID_4409_neutraal
 -------------------------------
 Charge =  0 Multiplicity = 1

 SCF Done:  E(RB3LYP) =  -630.825716705     A.U. after    1 cycles

  Exact polarizability: 159.862  -1.747 131.334   4.953   1.492  90.775
 Approx polarizability: 207.875   2.874 196.288  11.555   4.159 132.751

                      1                      2                      3
                      A                      A                      A
 Frequencies --      6.7284                47.3441                53.6184
 Red. masses --      2.8688                 3.2966                 4.0798
 Frc consts  --      0.0001                 0.0044                 0.0069
 IR Inten    --      0.1493                 1.0837                 1.5920

                      4                      5                      6
                      A                      A                      A
 Frequencies --     91.9178               104.3767               127.3823
 Red. masses --      3.0351                 2.7395                 3.0802
 Frc consts  --      0.0151                 0.0176                 0.0294
 IR Inten    --      4.5958                 3.2288                 6.3424

                      7                      8                      9
                      A                      A                      A
 Frequencies --    133.2972               152.7274               191.6480
 Red. masses --      3.0823                 2.6601                 3.0886
 Frc consts  --      0.0323                 0.0366                 0.0668
 IR Inten    --      0.8101                 2.4015                 7.4540

                     10                     11                     12
                      A                      A                      A
 Frequencies --    230.8203               236.0437               251.2515
 Red. masses --      1.1424                 2.2138                 1.5803
 Frc consts  --      0.0359                 0.0727                 0.0588
 IR Inten    --      0.1740                 0.3648                 1.0009

                     13                     14                     15
                      A                      A                      A
 Frequencies --    261.8460               271.1363               300.5638
 Red. masses --      1.3833                 1.5088                 3.3566
 Frc consts  --      0.0559                 0.0654                 0.1787
 IR Inten    --      2.4692                 0.6015                 5.0122

                     16                     17                     18
                      A                      A                      A
 Frequencies --    318.9864               363.5459               405.7247
 Red. masses --      3.0884                 3.7942                 3.2088
 Frc consts  --      0.1852                 0.2955                 0.3112
 IR Inten    --      4.5562                 2.6800                 2.5764

                     19                     20                     21
                      A                      A                      A
 Frequencies --    431.3683               503.4905               589.3763
 Red. masses --      4.5953                 3.2551                 3.7492
 Frc consts  --      0.5038                 0.4862                 0.7673
 IR Inten    --      2.9538                 2.7201                16.3479

                     22                     23                     24
                      A                      A                      A
 Frequencies --    636.5438               667.2195               698.8299
 Red. masses --      2.2409                 1.6922                 2.2047
 Frc consts  --      0.5350                 0.4439                 0.6344
 IR Inten    --     18.8052                53.9111                11.9323

                     25                     26                     27
                      A                      A                      A
 Frequencies --    738.8036               761.5151               770.2734
 Red. masses --      2.0156                 3.8002                 4.8346
 Frc consts  --      0.6482                 1.2984                 1.6900
 IR Inten    --      1.1438                 7.1477                 1.2725

                     28                     29                     30
                      A                      A                      A
 Frequencies --    834.4051               849.3138               902.1314
 Red. masses --      1.3963                 3.2854                 2.5784
 Frc consts  --      0.5728                 1.3963                 1.2363
 IR Inten    --     95.3640                 0.5995                 0.0582

                     31                     32                     33
                      A                      A                      A
 Frequencies --    944.5394               954.3874               975.9164
 Red. masses --      1.1497                 2.1614                 1.5642
 Frc consts  --      0.6043                 1.1599                 0.8777
 IR Inten    --      1.6880                42.2145                 0.0970

                     34                     35                     36
                      A                      A                      A
 Frequencies --    983.0561               998.8321              1032.6003
 Red. masses --      2.2237                 1.5526                 3.7328
 Frc consts  --      1.2661                 0.9126                 2.3450
 IR Inten    --      5.6712                28.7946                20.8473

                     37                     38                     39
                      A                      A                      A
 Frequencies --   1049.9095              1116.7114              1132.6409
 Red. masses --      1.7163                 1.6856                 2.3968
 Frc consts  --      1.1147                 1.2385                 1.8116
 IR Inten    --      2.6446                13.0436                 7.5370

                     40                     41                     42
                      A                      A                      A
 Frequencies --   1135.3630              1160.5098              1175.7023
 Red. masses --      2.2373                 2.2822                 1.8829
 Frc consts  --      1.6992                 1.8109                 1.5335
 IR Inten    --      0.9805                39.9873                 2.1416

                     43                     44                     45
                      A                      A                      A
 Frequencies --   1191.8621              1194.1558              1221.2763
 Red. masses --      1.7004                 1.7374                 1.5930
 Frc consts  --      1.4232                 1.4598                 1.3999
 IR Inten    --      4.1707                 5.6670                 7.1832

                     46                     47                     48
                      A                      A                      A
 Frequencies --   1232.0329              1275.6279              1320.9525
 Red. masses --      1.3692                 1.7205                 2.0000
 Frc consts  --      1.2245                 1.6495                 2.0562
 IR Inten    --     15.9098                14.1410                12.8389

                     49                     50                     51
                      A                      A                      A
 Frequencies --   1350.4369              1353.2252              1369.4154
 Red. masses --      1.6347                 1.4710                 1.9716
 Frc consts  --      1.7564                 1.5871                 2.1784
 IR Inten    --     44.4432                22.6680                34.5807

                     52                     53                     54
                      A                      A                      A
 Frequencies --   1406.4704              1422.1447              1435.6931
 Red. masses --      1.7064                 1.2302                 1.3057
 Frc consts  --      1.9888                 1.4660                 1.5857
 IR Inten    --      9.7825                 3.1084                21.0334

                     55                     56                     57
                      A                      A                      A
 Frequencies --   1441.4895              1465.2626              1476.8189
 Red. masses --      1.2384                 3.2222                 1.5703
 Frc consts  --      1.5161                 4.0760                 2.0179
 IR Inten    --      3.1246                 0.6980                 6.4822

                     58                     59                     60
                      A                      A                      A
 Frequencies --   1478.1570              1483.6831              1499.3363
 Red. masses --      1.4004                 1.4529                 1.2583
 Frc consts  --      1.8028                 1.8844                 1.6667
 IR Inten    --     24.1602                 5.4798                24.7713

                     61                     62                     63
                      A                      A                      A
 Frequencies --   1515.2712              1518.4835              1521.9303
 Red. masses --      1.0420                 1.0575                 1.0495
 Frc consts  --      1.4096                 1.4367                 1.4323
 IR Inten    --      0.6933                10.9320                 1.0842

                     64                     65                     66
                      A                      A                      A
 Frequencies --   1530.0350              1536.5612              1538.1519
 Red. masses --      1.0464                 1.1034                 1.1789
 Frc consts  --      1.4433                 1.5349                 1.6433
 IR Inten    --      8.6145                 9.1257                 1.1345

                     67                     68                     69
                      A                      A                      A
 Frequencies --   1547.2908              1569.5773              1636.9429
 Red. masses --      1.0555                 3.6553                 6.8428
 Frc consts  --      1.4888                 5.3056                10.8032
 IR Inten    --      4.3783                36.2121                15.9435

                     70                     71                     72
                      A                      A                      A
 Frequencies --   1813.4126              2930.3449              2960.8560
 Red. masses --      9.0992                 1.0839                 1.0751
 Frc consts  --     17.6298                 5.4839                 5.5532
 IR Inten    --    132.0442               126.7367                80.4555

                     73                     74                     75
                      A                      A                      A
 Frequencies --   2963.7060              2981.8738              3025.2774
 Red. masses --      1.0593                 1.0661                 1.0947
 Frc consts  --      5.4822                 5.5851                 5.9031
 IR Inten    --     85.5728                69.1425                36.0861

                     76                     77                     78
                      A                      A                      A
 Frequencies --   3027.8656              3048.9912              3053.8052
 Red. masses --      1.0836                 1.0348                 1.0356
 Frc consts  --      5.8533                 5.6677                 5.6899
 IR Inten    --     25.1549                30.0134                33.8138

                     79                     80                     81
                      A                      A                      A
 Frequencies --   3059.9729              3073.9775              3116.1711
 Red. masses --      1.0845                 1.0750                 1.1030
 Frc consts  --      5.9831                 5.9850                 6.3107
 IR Inten    --     23.5785                41.9047                22.3754

                     82                     83                     84
                      A                      A                      A
 Frequencies --   3120.0022              3120.4671              3131.7885
 Red. masses --      1.1028                 1.1024                 1.1028
 Frc consts  --      6.3248                 6.3247                 6.3730
 IR Inten    --     56.2824                33.0039                10.5921

                     85                     86                     87
                      A                      A                      A
 Frequencies --   3137.9043              3485.5699              3619.4114
 Red. masses --      1.1020                 1.0742                 1.0807
 Frc consts  --      6.3929                 7.6890                 8.3413
 IR Inten    --     33.5648                 0.2648               103.2390

 - Thermochemistry -
 -------------------
 Temperature   298.150 Kelvin.  Pressure   1.00000 Atm.
 Atom     1 has atomic number  6 and mass  12.00000

 Molecular mass:   195.13716 amu.
 Principal axes and moments of inertia in atomic units:
                           1         2         3
     Eigenvalues --  2310.340853977.977565706.73173
           X            0.99994   0.01060   0.00243
           Y           -0.01058   0.99991  -0.00843
           Z           -0.00252   0.00840   0.99996
 This molecule is an asymmetric top.
 Rotational symmetry number  1.
 Warning -- assumption of classical behavior for rotation
           may cause significant error
 Rotational temperatures (Kelvin)      0.03749     0.02177     0.01518
 Rotational constants (GHZ):           0.78116     0.45368     0.31625
 Zero-point vibrational energy     704577.0 (Joules/Mol)
                                  168.39795 (Kcal/Mol)
 Warning -- explicit consideration of  21 degrees of freedom as
           vibrations may cause significant error
 Vibrational temperatures:      9.68    68.12    77.14   132.25   150.17
          (Kelvin)            183.27   191.78   219.74   275.74   332.10
                              339.61   361.49   376.74   390.10   432.44
                              458.95   523.06   583.75   620.64   724.41
                              847.98   915.84   959.98  1005.46  1062.97
                             1095.65  1108.25  1200.52  1221.97  1297.97
                             1358.98  1373.15  1404.13  1414.40  1437.10
                             1485.68  1510.59  1606.70  1629.62  1633.53
                             1669.71  1691.57  1714.82  1718.12  1757.14
                             1772.62  1835.34  1900.56  1942.98  1946.99
                             1970.28  2023.60  2046.15  2065.64  2073.98
                             2108.19  2124.81  2126.74  2134.69  2157.21
                             2180.14  2184.76  2189.72  2201.38  2210.77
                             2213.06  2226.21  2258.27  2355.20  2609.10
                             4216.11  4260.01  4264.11  4290.25  4352.70
                             4356.42  4386.82  4393.74  4402.62  4422.77
                             4483.48  4488.99  4489.66  4505.95  4514.74
                             5014.96  5207.53

 Zero-point correction=                           0.268359 (Hartree/Particle)
 Thermal correction to Energy=                    0.283824
 Thermal correction to Enthalpy=                  0.284769
 Thermal correction to Gibbs Free Energy=         0.223335
 Sum of electronic and zero-point Energies=           -630.557357
 Sum of electronic and thermal Energies=              -630.541892
 Sum of electronic and thermal Enthalpies=            -630.540948
 Sum of electronic and thermal Free Energies=         -630.602381

                     E (Thermal)             CV                S
                      KCal/Mol        Cal/Mol-Kelvin    Cal/Mol-Kelvin
 Total                  178.103             55.539            129.297
 Electronic               0.000              0.000              0.000
 Translational            0.889              2.981             41.711
 Rotational               0.889              2.981             32.328
 Vibrational            176.325             49.578             55.258
 Vibration     1          0.593              1.987              8.798
 Vibration     2          0.595              1.979              4.925
 Vibration     3          0.596              1.976              4.679
 Vibration     4          0.602              1.955              3.619
 Vibration     5          0.605              1.946              3.371
 Vibration     6          0.611              1.926              2.985
 Vibration     7          0.613              1.920              2.898
 Vibration     8          0.619              1.900              2.638
 Vibration     9          0.634              1.851              2.212
 Vibration    10          0.653              1.794              1.873
 Vibration    11          0.655              1.786              1.833
 Vibration    12          0.663              1.761              1.722
 Vibration    13          0.669              1.743              1.649
 Vibration    14          0.675              1.726              1.589
 Vibration    15          0.693              1.673              1.414
 Vibration    16          0.705              1.637              1.315
 Vibration    17          0.737              1.547              1.107
 Vibration    18          0.771              1.458              0.942
 Vibration    19          0.792              1.402              0.854
 Vibration    20          0.859              1.242              0.649
 Vibration    21          0.947              1.054              0.468

 Optimization completed.
    -- Stationary point found.
 Normal termination of Gaussian 16 at Thu Dec 10 10:17:09 2020.

 ----------------------------------------------------------------------
 # B3LYP/6-311++G(d,p) empiricaldispersion=gd3bj scf=xqc pop=npa geom=c
 heck
 ----------------------------------------------------------------------

 ---------------------------------------
 CID_145188010_JID_4409_Energie_neutraal
 ---------------------------------------
 Structure from the checkpoint file:  "JID_4409.chk"
 Charge =  0 Multiplicity = 1

 SCF Done:  E(RB3LYP) =  -631.007052783     A.U. after   14 cycles
 Normal termination of Gaussian 16 at Thu Dec 10 10:20:24 2020.

 ----------------------------------------------------------------------
 # B3LYP/6-311++G(d,p) empiricaldispersion=gd3bj scf=xqc pop=npa geom=c
 heck
 ----------------------------------------------------------------------

 -------------------------------------
 CID_145188010_JID_4409_Energie_kation
 -------------------------------------
 Structure from the checkpoint file:  "JID_4409.chk"
 Charge =  1 Multiplicity = 2

 SCF Done:  E(UB3LYP) =  -630.726590068     A.U. after   21 cycles
 Normal termination of Gaussian 16 at Thu Dec 10 10:27:28 2020.
 Gaussian 16:  ES64L-G16RevA.03 25-Dec-2016

 ----------------------------------------------------------------------
 # B3LYP/6-311++G(d,p) empiricaldispersion=gd3bj scf=xqc pop=npa geom=c
 heck
 ----------------------------------------------------------------------

 ------------------------------------
 CID_145188010_JID_4409_Energie_anion
 ------------------------------------
 Structure from the checkpoint file:  "JID_4409.chk"
 Charge = -1 Multiplicity = 2

                         Standard orientation:
 ---------------------------------------------------------------------
 Center     Atomic      Atomic             Coordinates (Angstroms)
 Number     Number       Type             X           Y           Z
 ---------------------------------------------------------------------
      1          6           0        3.345260   -0.788385    1.483942
      2          6           0        3.014120   -0.233499    0.087163
      3          6           0        3.684239   -1.071638   -1.013460
      4          6           0        1.526787   -0.183971   -0.120207
      5          7           0        0.723485   -1.231623   -0.203878
      6          6           0       -0.553323   -0.726109   -0.344303
      7          6           0       -0.522552    0.653134   -0.345112
      8          7           0        0.815495    0.979342   -0.214569
      9          6           0       -1.619107    1.652937   -0.500985
     10          6           0       -1.369617    3.028182    0.063307
     11          8           0       -0.296319    3.458959    0.438629
     12          6           0       -1.750478   -1.618729   -0.461635
     13          7           0       -2.820735   -1.187862    0.447583
     14          6           0       -3.984778   -2.065013    0.397723
     15          1           0        2.945963   -1.802532    1.585352
     16          1           0        2.901265   -0.169815    2.271514
     17          1           0        4.429418   -0.821757    1.641575
     18          1           0        3.393268    0.796227    0.023314
     19          1           0        3.279857   -2.088406   -1.004402
     20          1           0        3.498170   -0.644315   -2.004531
     21          1           0        4.767565   -1.122678   -0.855908
     22          1           0        1.136990    1.925294   -0.053083
     23          1           0       -1.871302    1.828213   -1.564366
     24          1           0       -2.539014    1.235842   -0.068515
     25          1           0       -2.267762    3.682088    0.085631
     26          1           0       -2.165190   -1.591010   -1.480351
     27          1           0       -1.421905   -2.657523   -0.286253
     28          1           0       -2.442068   -1.178642    1.393492
     29          1           0       -3.754756   -3.130402    0.581996
     30          1           0       -4.723394   -1.738151    1.136728
     31          1           0       -4.447568   -1.994575   -0.593774
 ---------------------------------------------------------------------

 SCF Done:  E(UB3LYP) =  -630.997898380     A.U. after   33 cycles
 SCF Done:  E(UB3LYP) =  -630.997898380     a.u. after    1 cycles

 The electronic state is 2-A.
 Alpha  occ. eigenvalues --  -18.99002 -14.24813 -14.19770 -14.18007 -10.12281
 Alpha  occ. eigenvalues --  -10.11497 -10.09100 -10.09005 -10.08984 -10.08656
 Alpha  occ. eigenvalues --  -10.07362 -10.07067 -10.06670 -10.06528  -0.92449
 Alpha  occ. eigenvalues --   -0.90213  -0.80344  -0.75915  -0.71394  -0.67021
 Alpha  occ. eigenvalues --   -0.62409  -0.59191  -0.58230  -0.53796  -0.51928
 Alpha  occ. eigenvalues --   -0.48340  -0.47028  -0.44346  -0.40536  -0.38590
 Alpha  occ. eigenvalues --   -0.35809  -0.35571  -0.34993  -0.34327  -0.33796
 Alpha  occ. eigenvalues --   -0.33121  -0.32491  -0.31766  -0.29751  -0.29410
 Alpha  occ. eigenvalues --   -0.28926  -0.27691  -0.26948  -0.26613  -0.25278
 Alpha  occ. eigenvalues --   -0.25162  -0.24729  -0.24235  -0.17037  -0.16585
 Alpha  occ. eigenvalues --   -0.14333  -0.12919  -0.10429   0.04525
 Alpha virt. eigenvalues --    0.06021   0.06622   0.08096   0.08356   0.08801
 Alpha virt. eigenvalues --    0.08955   0.09168   0.10040   0.10770   0.10869
 Alpha virt. eigenvalues --    0.11893   0.12187   0.12715   0.13055   0.13180

  Beta  occ. eigenvalues --  -18.98717 -14.24806 -14.19761 -14.18002 -10.11964
  Beta  occ. eigenvalues --  -10.11499 -10.09092 -10.09001 -10.08973 -10.08623
  Beta  occ. eigenvalues --  -10.07363 -10.07084 -10.06658 -10.06512  -0.91923
  Beta  occ. eigenvalues --   -0.90176  -0.80326  -0.75902  -0.71376  -0.66918
  Beta  occ. eigenvalues --   -0.62301  -0.59161  -0.58130  -0.53732  -0.51854
  Beta  occ. eigenvalues --   -0.48119  -0.46886  -0.44143  -0.40433  -0.38547
  Beta  occ. eigenvalues --   -0.35627  -0.35485  -0.34929  -0.34238  -0.33638
  Beta  occ. eigenvalues --   -0.32998  -0.32233  -0.31662  -0.29640  -0.29290
  Beta  occ. eigenvalues --   -0.28816  -0.27648  -0.26866  -0.26580  -0.25140
  Beta  occ. eigenvalues --   -0.25008  -0.24218  -0.23657  -0.17020  -0.16569
  Beta  occ. eigenvalues --   -0.14125  -0.12885  -0.10388
  Beta virt. eigenvalues --    0.06455   0.06953   0.08201   0.08470   0.09084
  Beta virt. eigenvalues --    0.09265   0.09347   0.09972   0.10353   0.11025
  Beta virt. eigenvalues --    0.11104   0.11998   0.12199   0.12625   0.13152

 Mulliken charges and spin densities:
               1          2
     1  C    0.002896  -0.616209
     2  C   -1.303157   2.070874
     3  C    0.112882  -0.729343
     4  C    0.256664  -0.940385
     5  N   -0.029030   0.048638
     6  C    0.311127  -0.116200
     7  C    0.912268  -0.620049
     8  N   -0.158509   0.083276
     9  C   -0.319838  -0.194562
    10  C   -0.011640  -0.004141
    11  O   -0.346008   0.081468
    12  C   -0.093741  -0.643984
    13  N   -0.277608   0.152589
    14  C    0.628935  -1.005732
    15  H    0.092135   0.070331
    16  H    0.092538   0.038062
    17  H   -0.148311   0.294393
    18  H   -0.132834   0.281463
    19  H    0.112444   0.053100
    20  H    0.018757   0.112851
    21  H   -0.226649   0.375945
    22  H    0.312423   0.008173
    23  H   -0.131306   0.320371
    24  H    0.112471   0.127452
    25  H   -0.155468   0.228247
    26  H   -0.042019   0.195530
    27  H    0.124834   0.014319
    28  H    0.081334   0.129349
    29  H   -0.146067   0.256625
    30  H   -0.415434   0.549454
    31  H   -0.234090   0.378096
 Sum of Mulliken charges =  -1.00000   1.00000

 Dipole moment (field-independent basis, Debye):
    X=              2.7163    Y=             -0.3663    Z=             -0.6321  Tot=              2.8128
 Quadrupole moment (field-independent basis, Debye-Ang):
   XX=           -159.7298   YY=           -133.2416   ZZ=           -110.5844
   XY=             -3.3171   XZ=              3.1314   YZ=             -3.5322

 Summary of Natural Population Analysis:

                                       Natural Population
                Natural  -----------------------------------------------
    Atom  No    Charge         Core      Valence    Rydberg      Total
 -----------------------------------------------------------------------
      C    1   -0.27884      0.99965     2.27443    0.00476     3.27884
      C    2   -0.13090      0.99958     2.12037    0.01095     3.13090
      C    3   -0.27877      0.99965     2.27418    0.00494     3.27877
      C    4    0.18988      0.99960     1.79317    0.01735     2.81012
      N    5   -0.26653      0.99968     2.75819    0.00866     3.76653
      C    6    0.04106      0.99947     1.94492    0.01455     2.95894
      C    7    0.06395      0.99946     1.92429    0.01230     2.93605
      N    8   -0.26924      0.99962     2.76203    0.00759     3.76924
      C    9   -0.26400      0.99958     2.25697    0.00745     3.26400
      C   10    0.27173      0.99975     1.70879    0.01973     2.72827
      O   11   -0.27923      0.99988     3.27239    0.00697     4.27923
      C   12   -0.09431      0.99959     2.08497    0.00975     3.09431
      N   13   -0.33628      0.99976     2.82537    0.01116     3.83628
      C   14   -0.17572      0.99967     2.16915    0.00690     3.17572
      H   15    0.10341      0.00000     0.39547    0.00112     0.39659
      H   16    0.09983      0.00000     0.39921    0.00095     0.40017
      H   17    0.09451      0.00000     0.40437    0.00112     0.40549
      H   18    0.09647      0.00000     0.40157    0.00196     0.40353
      H   19    0.10462      0.00000     0.39412    0.00126     0.39538
      H   20    0.09983      0.00000     0.39916    0.00101     0.40017
      H   21    0.09443      0.00000     0.40440    0.00117     0.40557
      H   22    0.21800      0.00000     0.28003    0.00196     0.28200
      H   23    0.11572      0.00000     0.38201    0.00227     0.38428
      H   24    0.13082      0.00000     0.36625    0.00294     0.36918
      H   25    0.03882      0.00000     0.45839    0.00280     0.46118
      H   26    0.09262      0.00000     0.40558    0.00180     0.40738
      H   27    0.08775      0.00000     0.41007    0.00218     0.41225
      H   28    0.16942      0.00000     0.32640    0.00418     0.33058
      H   29    0.07587      0.00000     0.42161    0.00253     0.42413
      H   30    0.09492      0.00000     0.40349    0.00159     0.40508
      H   31    0.09018      0.00000     0.40810    0.00172     0.40982
 =======================================================================
   * Total *   -0.00000     13.99494    38.82944    0.17562    53.00000

 Normal termination of Gaussian 16 at Thu Dec 10 10:37:38 2020.
