 Gaussian 16, Revision A.03,

 -----------------------------------------------------------
 # opt freq B3LYP/6-31G(d) empiricaldispersion=gd3bj scf=xqc
 -----------------------------------------------------------

 -------------------------------
 CID_101790799_JID_6041_neutraal
 -------------------------------
 Symbolic Z-matrix:
 Charge =  0 Multiplicity = 1

 SCF Done:  E(RB3LYP) =  -1355.58950504     A.U. after   15 cycles
 SCF Done:  E(RB3LYP) =  -1355.59319293     A.U. after   13 cycles
 SCF Done:  E(RB3LYP) =  -1355.59450155     A.U. after   13 cycles
 SCF Done:  E(RB3LYP) =  -1355.59559047     A.U. after   12 cycles
 SCF Done:  E(RB3LYP) =  -1355.59554018     A.U. after   13 cycles
 SCF Done:  E(RB3LYP) =  -1355.59694317     A.U. after   12 cycles
 SCF Done:  E(RB3LYP) =  -1355.59654321     A.U. after   15 cycles
 SCF Done:  E(RB3LYP) =  -1355.59781497     A.U. after   12 cycles
 SCF Done:  E(RB3LYP) =  -1355.59806964     A.U. after   11 cycles
 SCF Done:  E(RB3LYP) =  -1355.59811059     A.U. after   11 cycles
 SCF Done:  E(RB3LYP) =  -1355.59812403     A.U. after    8 cycles
 SCF Done:  E(RB3LYP) =  -1355.59812532     A.U. after    8 cycles
 SCF Done:  E(RB3LYP) =  -1355.59812583     A.U. after    8 cycles
 SCF Done:  E(RB3LYP) =  -1355.59812602     A.U. after    7 cycles
 SCF Done:  E(RB3LYP) =  -1355.59812609     A.U. after    7 cycles
 Optimization completed.
    -- Stationary point found.
 Normal termination of Gaussian 16 at Thu Dec 10 21:15:07 2020.

 --------------------------------------------------------------------
 #N Geom=AllCheck Guess=TCheck SCRF=Check GenChk RB3LYP/6-31G(d) Freq
 --------------------------------------------------------------------

 Structure from the checkpoint file:  "JID_6041.chk"
 -------------------------------
 CID_101790799_JID_6041_neutraal
 -------------------------------
 Charge =  0 Multiplicity = 1

 SCF Done:  E(RB3LYP) =  -1355.59812609     A.U. after    1 cycles

  Exact polarizability: 247.439  36.665 134.968  20.359 -21.878 139.264
 Approx polarizability: 366.638  73.047 223.546  34.416 -59.233 247.375

                      1                      2                      3
                      A                      A                      A
 Frequencies --     24.4061                42.4860                51.5651
 Red. masses --      5.3291                 4.2741                 5.3269
 Frc consts  --      0.0019                 0.0045                 0.0083
 IR Inten    --      0.3891                 0.0607                 0.1043

                      4                      5                      6
                      A                      A                      A
 Frequencies --     81.3038               106.2845               124.4306
 Red. masses --      4.5331                 3.9347                 3.0616
 Frc consts  --      0.0177                 0.0262                 0.0279
 IR Inten    --      0.0896                 0.1380                 0.8496

                      7                      8                      9
                      A                      A                      A
 Frequencies --    149.0169               175.1173               211.0620
 Red. masses --      4.9792                 1.1882                 2.5135
 Frc consts  --      0.0651                 0.0215                 0.0660
 IR Inten    --      0.0862                 0.5785                 0.4588

                     10                     11                     12
                      A                      A                      A
 Frequencies --    229.7908               234.7011               291.8138
 Red. masses --      3.9667                 4.4668                 3.9657
 Frc consts  --      0.1234                 0.1450                 0.1990
 IR Inten    --      0.5181                 3.6689                 1.5989

                     13                     14                     15
                      A                      A                      A
 Frequencies --    304.6071               310.8066               365.5263
 Red. masses --      2.9927                 2.3342                 4.5359
 Frc consts  --      0.1636                 0.1328                 0.3571
 IR Inten    --      0.6381                 0.0360                 2.2933

                     16                     17                     18
                      A                      A                      A
 Frequencies --    427.0511               434.6596               449.5511
 Red. masses --      3.2795                 3.1427                13.0220
 Frc consts  --      0.3524                 0.3498                 1.5506
 IR Inten    --      3.1418                 1.3924                20.2710

                     19                     20                     21
                      A                      A                      A
 Frequencies --    473.0121               478.9825               500.6942
 Red. masses --      9.3636                 7.0711                 2.5976
 Frc consts  --      1.2344                 0.9558                 0.3837
 IR Inten    --      3.2267                 0.0610                 1.2790

                     22                     23                     24
                      A                      A                      A
 Frequencies --    513.3356               532.5779               572.6992
 Red. masses --      4.6088                 7.7665                 2.4708
 Frc consts  --      0.7155                 1.2979                 0.4775
 IR Inten    --      0.0249                 5.6937                 5.1243

                     25                     26                     27
                      A                      A                      A
 Frequencies --    619.6132               691.7844               706.2896
 Red. masses --      5.1912                 6.5741                 5.2702
 Frc consts  --      1.1742                 1.8536                 1.5490
 IR Inten    --      4.0319                11.4751                 0.0388

                     28                     29                     30
                      A                      A                      A
 Frequencies --    718.8991               748.1445               756.1571
 Red. masses --      1.2526                 7.2318                 1.2089
 Frc consts  --      0.3814                 2.3849                 0.4073
 IR Inten    --     32.5038                 0.1958                49.8617

                     31                     32                     33
                      A                      A                      A
 Frequencies --    806.8275               862.6242               863.7199
 Red. masses --      1.5808                 1.6316                 2.1350
 Frc consts  --      0.6063                 0.7153                 0.9384
 IR Inten    --      1.2245                 2.0310                 3.7076

                     34                     35                     36
                      A                      A                      A
 Frequencies --    897.7132               909.5551               934.6313
 Red. masses --      2.3873                 6.1628                 1.3416
 Frc consts  --      1.1335                 3.0039                 0.6905
 IR Inten    --      2.1661                38.3366                 1.2423

                     37                     38                     39
                      A                      A                      A
 Frequencies --    957.5606               978.7785              1003.3013
 Red. masses --      2.1153                 1.2569                 1.9496
 Frc consts  --      1.1427                 0.7095                 1.1563
 IR Inten    --      3.8923                 0.0049                 8.3568

                     40                     41                     42
                      A                      A                      A
 Frequencies --   1012.6474              1047.9956              1063.4799
 Red. masses --      1.1723                 2.1137                 2.5719
 Frc consts  --      0.7083                 1.3678                 1.7138
 IR Inten    --      0.7038                 6.4208                 6.0698

                     43                     44                     45
                      A                      A                      A
 Frequencies --   1070.0947              1076.1942              1082.2990
 Red. masses --      3.5261                 1.6953                 1.8891
 Frc consts  --      2.3790                 1.1569                 1.3037
 IR Inten    --      2.7616                 2.1587                 8.4667

                     46                     47                     48
                      A                      A                      A
 Frequencies --   1096.8051              1150.4446              1153.4584
 Red. masses --      2.6609                 2.9487                 2.1860
 Frc consts  --      1.8860                 2.2994                 1.7136
 IR Inten    --      1.1490                32.0775                 4.7943

                     49                     50                     51
                      A                      A                      A
 Frequencies --   1165.4838              1198.7801              1226.1839
 Red. masses --      1.5916                 1.1261                 1.3095
 Frc consts  --      1.2738                 0.9534                 1.1600
 IR Inten    --      0.1926                 2.3776                 3.5766

                     52                     53                     54
                      A                      A                      A
 Frequencies --   1242.4723              1298.9066              1310.0987
 Red. masses --      1.2156                 1.4751                 1.1604
 Frc consts  --      1.1056                 1.4663                 1.1735
 IR Inten    --      3.0857                 4.8540                 0.7672

                     55                     56                     57
                      A                      A                      A
 Frequencies --   1312.4920              1345.3844              1362.9475
 Red. masses --      1.1845                 8.2156                 1.3166
 Frc consts  --      1.2022                 8.7616                 1.4410
 IR Inten    --      2.9468                 2.6005                 2.2244

                     58                     59                     60
                      A                      A                      A
 Frequencies --   1394.3502              1420.2356              1432.7082
 Red. masses --      1.3912                 1.3074                 1.2275
 Frc consts  --      1.5936                 1.5538                 1.4845
 IR Inten    --     26.2246                38.6146                 0.3263

                     61                     62                     63
                      A                      A                      A
 Frequencies --   1459.8120              1482.4820              1501.0507
 Red. masses --      1.4313                 2.1348                 2.1680
 Frc consts  --      1.7971                 2.7643                 2.8781
 IR Inten    --      2.3377                11.0440                20.8957

                     64                     65                     66
                      A                      A                      A
 Frequencies --   1501.6612              1508.9822              1513.8587
 Red. masses --      1.1221                 1.0922                 1.0675
 Frc consts  --      1.4909                 1.4652                 1.4414
 IR Inten    --     33.0093                14.6216                12.8427

                     67                     68                     69
                      A                      A                      A
 Frequencies --   1516.1728              1528.4293              1623.3363
 Red. masses --      1.0953                 1.0738                 5.7395
 Frc consts  --      1.4835                 1.4780                 8.9113
 IR Inten    --     14.2730                 7.8145                 0.1283

                     70                     71                     72
                      A                      A                      A
 Frequencies --   1638.2938              1725.3826              1749.5702
 Red. masses --      5.4739                10.8875                 6.1513
 Frc consts  --      8.6562                19.0963                11.0939
 IR Inten    --      1.5691               429.7748                 1.4214

                     73                     74                     75
                      A                      A                      A
 Frequencies --   3002.5045              3028.2501              3037.9487
 Red. masses --      1.0633                 1.0701                 1.0435
 Frc consts  --      5.6475                 5.7816                 5.6741
 IR Inten    --     19.7418                28.0001                26.3727

                     76                     77                     78
                      A                      A                      A
 Frequencies --   3044.5755              3060.7007              3083.6755
 Red. masses --      1.0657                 1.0946                 1.0968
 Frc consts  --      5.8200                 6.0413                 6.1452
 IR Inten    --     40.6989                60.1222                29.5355

                     79                     80                     81
                      A                      A                      A
 Frequencies --   3090.2473              3111.4952              3126.2453
 Red. masses --      1.1011                 1.0891                 1.0862
 Frc consts  --      6.1952                 6.2121                 6.2548
 IR Inten    --     33.2030                 5.4054                29.8680

                     82                     83                     84
                      A                      A                      A
 Frequencies --   3143.4036              3157.1645              3193.5050
 Red. masses --      1.0938                 1.0951                 1.0854
 Frc consts  --      6.3679                 6.4313                 6.5222
 IR Inten    --      6.3241                51.7051                 0.0206

                     85                     86                     87
                      A                      A                      A
 Frequencies --   3200.6872              3209.4412              3219.5390
 Red. masses --      1.0890                 1.0934                 1.0977
 Frc consts  --      6.5732                 6.6355                 6.7036
 IR Inten    --      2.5573                14.9976                21.5835

 - Thermochemistry -
 -------------------
 Temperature   298.150 Kelvin.  Pressure   1.00000 Atm.
 Atom     1 has atomic number  6 and mass  12.00000

 Molecular mass:   249.06459 amu.
 Principal axes and moments of inertia in atomic units:
                           1         2         3
     Eigenvalues --  2123.657606602.107757046.86235
           X            0.99999   0.00449   0.00200
           Y           -0.00458   0.99893   0.04604
           Z           -0.00179  -0.04604   0.99894
 This molecule is an asymmetric top.
 Rotational symmetry number  1.
 Warning -- assumption of classical behavior for rotation
           may cause significant error
 Rotational temperatures (Kelvin)      0.04079     0.01312     0.01229
 Rotational constants (GHZ):           0.84983     0.27336     0.25611
 Zero-point vibrational energy     660715.2 (Joules/Mol)
                                  157.91473 (Kcal/Mol)
 Warning -- explicit consideration of  25 degrees of freedom as
           vibrations may cause significant error
 Vibrational temperatures:     35.11    61.13    74.19   116.98   152.92
          (Kelvin)            179.03   214.40   251.95   303.67   330.62
                              337.68   419.85   438.26   447.18   525.91
                              614.43   625.38   646.80   680.56   689.15
                              720.39   738.58   766.26   823.99   891.49
                              995.32  1016.19  1034.34  1076.41  1087.94
                             1160.84  1241.12  1242.70  1291.61  1308.65
                             1344.73  1377.72  1408.24  1443.53  1456.97
                             1507.83  1530.11  1539.63  1548.40  1557.19
                             1578.06  1655.23  1659.57  1676.87  1724.78
                             1764.21  1787.64  1868.84  1884.94  1888.38
                             1935.71  1960.98  2006.16  2043.40  2061.35
                             2100.34  2132.96  2159.68  2160.56  2171.09
                             2178.11  2181.43  2199.07  2335.62  2357.14
                             2482.44  2517.24  4319.93  4356.98  4370.93
                             4380.47  4403.67  4436.72  4446.18  4476.75
                             4497.97  4522.66  4542.46  4594.74  4605.08
                             4617.67  4632.20

 Zero-point correction=                           0.251653 (Hartree/Particle)
 Thermal correction to Energy=                    0.267344
 Thermal correction to Enthalpy=                  0.268289
 Thermal correction to Gibbs Free Energy=         0.207326
 Sum of electronic and zero-point Energies=          -1355.346473
 Sum of electronic and thermal Energies=             -1355.330782
 Sum of electronic and thermal Enthalpies=           -1355.329838
 Sum of electronic and thermal Free Energies=        -1355.390800

                     E (Thermal)             CV                S
                      KCal/Mol        Cal/Mol-Kelvin    Cal/Mol-Kelvin
 Total                  167.761             59.493            128.305
 Electronic               0.000              0.000              0.000
 Translational            0.889              2.981             42.438
 Rotational               0.889              2.981             32.957
 Vibrational            165.984             53.532             52.910
 Vibration     1          0.593              1.985              6.239
 Vibration     2          0.595              1.980              5.140
 Vibration     3          0.596              1.977              4.756
 Vibration     4          0.600              1.962              3.859
 Vibration     5          0.605              1.944              3.336
 Vibration     6          0.610              1.929              3.030
 Vibration     7          0.618              1.904              2.685
 Vibration     8          0.627              1.873              2.380
 Vibration     9          0.643              1.824              2.034
 Vibration    10          0.652              1.796              1.881
 Vibration    11          0.655              1.788              1.843
 Vibration    12          0.687              1.689              1.463
 Vibration    13          0.696              1.665              1.391
 Vibration    14          0.700              1.653              1.358
 Vibration    15          0.739              1.543              1.099
 Vibration    16          0.789              1.411              0.868
 Vibration    17          0.795              1.395              0.844
 Vibration    18          0.808              1.362              0.797
 Vibration    19          0.830              1.310              0.729
 Vibration    20          0.835              1.297              0.713
 Vibration    21          0.856              1.248              0.656
 Vibration    22          0.868              1.220              0.626
 Vibration    23          0.888              1.178              0.581
 Vibration    24          0.929              1.090              0.499
 Vibration    25          0.980              0.990              0.417

 Optimization completed.
    -- Stationary point found.
 Normal termination of Gaussian 16 at Thu Dec 10 21:25:31 2020.

 ----------------------------------------------------------------------
 # B3LYP/6-311++G(d,p) empiricaldispersion=gd3bj scf=xqc pop=npa geom=c
 heck
 ----------------------------------------------------------------------

 ---------------------------------------
 CID_101790799_JID_6041_Energie_neutraal
 ---------------------------------------
 Structure from the checkpoint file:  "JID_6041.chk"
 Charge =  0 Multiplicity = 1

 SCF Done:  E(RB3LYP) =  -1355.79684482     A.U. after   16 cycles
 Normal termination of Gaussian 16 at Thu Dec 10 21:31:19 2020.

 ----------------------------------------------------------------------
 # B3LYP/6-311++G(d,p) empiricaldispersion=gd3bj scf=xqc pop=npa geom=c
 heck
 ----------------------------------------------------------------------

 -------------------------------------
 CID_101790799_JID_6041_Energie_kation
 -------------------------------------
 Structure from the checkpoint file:  "JID_6041.chk"
 Charge =  1 Multiplicity = 2

 SCF Done:  E(UB3LYP) =  -1355.51676346     A.U. after   25 cycles
 Normal termination of Gaussian 16 at Thu Dec 10 21:42:47 2020.
 Gaussian 16:  ES64L-G16RevA.03 25-Dec-2016

 ----------------------------------------------------------------------
 # B3LYP/6-311++G(d,p) empiricaldispersion=gd3bj scf=xqc pop=npa geom=c
 heck
 ----------------------------------------------------------------------

 ------------------------------------
 CID_101790799_JID_6041_Energie_anion
 ------------------------------------
 Structure from the checkpoint file:  "JID_6041.chk"
 Charge = -1 Multiplicity = 2

                         Standard orientation:
 ---------------------------------------------------------------------
 Center     Atomic      Atomic             Coordinates (Angstroms)
 Number     Number       Type             X           Y           Z
 ---------------------------------------------------------------------
      1          6           0       -1.064237    1.867995    1.454174
      2          6           0       -2.098730    2.256307    0.436991
      3          6           0       -3.235126    1.616322    0.136763
      4          6           0       -3.749863    0.332154    0.726809
      5          6           0       -3.929673   -0.779632   -0.324114
      6          6           0       -2.625546   -1.122164   -1.050261
      7          7           0       -1.610331   -1.523744   -0.091780
      8          6           0       -0.425804   -1.107789   -0.182838
      9         16           0        0.264320   -0.031135   -1.469701
     10          6           0        1.851415    0.154104   -0.716413
     11          6           0        2.844394    0.982694   -1.242890
     12          6           0        4.077063    1.072665   -0.598582
     13          6           0        4.318019    0.342688    0.568130
     14          6           0        3.328674   -0.482265    1.100164
     15          6           0        2.092859   -0.578711    0.457011
     16         16           0        0.776854   -1.592390    1.050482
     17          1           0       -1.264828    0.899099    1.916494
     18          1           0       -1.003236    2.619041    2.253622
     19          1           0       -0.069595    1.818277    0.993635
     20          1           0       -1.885067    3.178806   -0.103914
     21          1           0       -3.870367    2.052822   -0.636396
     22          1           0       -3.079624   -0.034608    1.509073
     23          1           0       -4.723160    0.514825    1.204572
     24          1           0       -4.314236   -1.680736    0.167861
     25          1           0       -4.671675   -0.476000   -1.074729
     26          1           0       -2.795252   -1.957105   -1.743032
     27          1           0       -2.303482   -0.255820   -1.648772
     28          1           0        2.652661    1.551013   -2.147916
     29          1           0        4.849379    1.716291   -1.008267
     30          1           0        5.278483    0.417076    1.068745
     31          1           0        3.512852   -1.046578    2.009307
 ---------------------------------------------------------------------

 SCF Done:  E(UB3LYP) =  -1355.78158641     A.U. after   33 cycles
 SCF Done:  E(UB3LYP) =  -1355.78158728     a.u. after    3 cycles

 The electronic state is 2-A.
 Alpha  occ. eigenvalues --  -88.77060 -88.76963 -14.20045 -10.16404 -10.10593
 Alpha  occ. eigenvalues --  -10.10530 -10.09325 -10.06894 -10.06832 -10.06715
 Alpha  occ. eigenvalues --  -10.06358 -10.06336 -10.06247 -10.06237 -10.06197
 Alpha  occ. eigenvalues --  -10.06123  -7.85694  -7.85580  -5.82047  -5.81922
 Alpha  occ. eigenvalues --   -5.81684  -5.81569  -5.81133  -5.81035  -0.84014
 Alpha  occ. eigenvalues --   -0.77717  -0.71601  -0.70283  -0.68028  -0.66551
 Alpha  occ. eigenvalues --   -0.62359  -0.61661  -0.59642  -0.56073  -0.50481
 Alpha  occ. eigenvalues --   -0.49685  -0.48347  -0.44412  -0.42133  -0.39009
 Alpha  occ. eigenvalues --   -0.38560  -0.37843  -0.37315  -0.35892  -0.33663
 Alpha  occ. eigenvalues --   -0.33357  -0.32186  -0.31517  -0.30230  -0.30099
 Alpha  occ. eigenvalues --   -0.29529  -0.27902  -0.27104  -0.26650  -0.26149
 Alpha  occ. eigenvalues --   -0.24351  -0.23923  -0.23433  -0.23140  -0.22046
 Alpha  occ. eigenvalues --   -0.19922  -0.18517  -0.15850  -0.14496  -0.13661
 Alpha  occ. eigenvalues --   -0.10842   0.05138
 Alpha virt. eigenvalues --    0.06314   0.06708   0.08004   0.08242   0.08361
 Alpha virt. eigenvalues --    0.08721   0.08800   0.09027   0.09224   0.10581
 Alpha virt. eigenvalues --    0.10662   0.10958   0.11490   0.11793   0.11802

  Beta  occ. eigenvalues --  -88.77064 -88.76967 -14.20018 -10.16373 -10.10574
  Beta  occ. eigenvalues --  -10.10499 -10.09313 -10.06869 -10.06799 -10.06711
  Beta  occ. eigenvalues --  -10.06246 -10.06222 -10.06185 -10.06101 -10.06093
  Beta  occ. eigenvalues --  -10.06078  -7.85697  -7.85583  -5.82050  -5.81925
  Beta  occ. eigenvalues --   -5.81687  -5.81572  -5.81144  -5.81044  -0.83954
  Beta  occ. eigenvalues --   -0.77518  -0.71475  -0.70210  -0.67849  -0.66499
  Beta  occ. eigenvalues --   -0.62182  -0.61449  -0.59568  -0.56035  -0.50158
  Beta  occ. eigenvalues --   -0.49487  -0.48274  -0.44353  -0.42083  -0.38920
  Beta  occ. eigenvalues --   -0.38490  -0.37782  -0.37201  -0.35799  -0.33560
  Beta  occ. eigenvalues --   -0.33193  -0.32124  -0.31454  -0.30180  -0.29943
  Beta  occ. eigenvalues --   -0.29388  -0.27824  -0.26869  -0.26599  -0.26101
  Beta  occ. eigenvalues --   -0.24250  -0.23687  -0.23372  -0.23095  -0.22017
  Beta  occ. eigenvalues --   -0.19553  -0.18119  -0.15810  -0.14367  -0.12734
  Beta  occ. eigenvalues --   -0.10573
  Beta virt. eigenvalues --    0.06494   0.07475   0.08018   0.08297   0.08464
  Beta virt. eigenvalues --    0.08852   0.09026   0.09230   0.09469   0.09599
  Beta virt. eigenvalues --    0.10656   0.10801   0.11103   0.11700   0.11929

 Mulliken charges and spin densities:
               1          2
     1  C   -0.560630   0.005431
     2  C    0.347081  -0.436065
     3  C    0.236303  -0.369132
     4  C   -0.622355   0.502063
     5  C    0.738497  -1.204396
     6  C    0.325483  -0.510143
     7  N   -0.028525   0.074800
     8  C    0.328520  -0.138168
     9  S   -0.453651  -0.004651
    10  C    0.347988  -0.132258
    11  C   -0.042732   0.208062
    12  C   -0.244030  -0.005949
    13  C   -0.294756  -0.059105
    14  C   -0.348663   0.284752
    15  C    0.198934   0.006094
    16  S   -0.323881   0.068462
    17  H    0.141162  -0.019284
    18  H    0.126681   0.022221
    19  H    0.102956   0.006037
    20  H    0.176517  -0.026719
    21  H   -0.379628   0.545686
    22  H    0.077959   0.035296
    23  H   -0.452233   0.632894
    24  H   -0.089034   0.251735
    25  H   -0.470139   0.617347
    26  H   -0.368204   0.575622
    27  H    0.060241   0.017974
    28  H    0.148032  -0.014785
    29  H    0.098303   0.033451
    30  H    0.084141   0.042680
    31  H    0.139663  -0.009951
 Sum of Mulliken charges =  -1.00000   1.00000

 Dipole moment (field-independent basis, Debye):
    X=              7.6127    Y=              1.4655    Z=              1.8982  Tot=              7.9815
 Quadrupole moment (field-independent basis, Debye-Ang):
   XX=           -206.2665   YY=           -138.7030   ZZ=           -134.4327
   XY=             -0.2298   XZ=             -6.2849   YZ=             -4.6480

 Summary of Natural Population Analysis:

                                       Natural Population
                Natural  -----------------------------------------------
    Atom  No    Charge         Core      Valence    Rydberg      Total
 -----------------------------------------------------------------------
      C    1   -0.30812      0.99964     2.30282    0.00566     3.30812
      C    2   -0.09208      0.99953     2.08297    0.00958     3.09208
      C    3   -0.09461      0.99951     2.08360    0.01149     3.09461
      C    4   -0.21305      0.99960     2.20265    0.01079     3.21305
      C    5   -0.18502      0.99962     2.17487    0.01053     3.18502
      C    6   -0.10034      0.99959     2.08795    0.01280     3.10034
      N    7   -0.26038      0.99957     2.74671    0.01410     3.76038
      C    8   -0.01234      0.99954     1.99173    0.02107     3.01234
      S    9    0.14950      4.99940     2.83191    0.01918     7.85050
      C   10   -0.09791      0.99935     2.08683    0.01173     3.09791
      C   11   -0.06385      0.99950     2.05547    0.00888     3.06385
      C   12   -0.10184      0.99957     2.09352    0.00875     3.10184
      C   13   -0.09898      0.99958     2.09052    0.00888     3.09898
      C   14   -0.06428      0.99951     2.05594    0.00883     3.06428
      C   15   -0.10130      0.99935     2.08977    0.01218     3.10130
      S   16    0.17344      4.99939     2.80727    0.01990     7.82656
      H   17    0.10376      0.00000     0.39527    0.00096     0.39624
      H   18    0.09849      0.00000     0.40072    0.00079     0.40151
      H   19    0.10824      0.00000     0.39085    0.00091     0.39176
      H   20    0.08993      0.00000     0.40921    0.00086     0.41007
      H   21    0.09418      0.00000     0.40466    0.00117     0.40582
      H   22    0.10142      0.00000     0.39705    0.00153     0.39858
      H   23    0.10447      0.00000     0.39410    0.00144     0.39553
      H   24    0.09878      0.00000     0.39969    0.00153     0.40122
      H   25    0.09981      0.00000     0.39660    0.00359     0.40019
      H   26    0.10150      0.00000     0.39694    0.00155     0.39850
      H   27    0.08996      0.00000     0.40823    0.00181     0.41004
      H   28    0.09671      0.00000     0.40216    0.00113     0.40329
      H   29    0.09414      0.00000     0.40440    0.00146     0.40586
      H   30    0.09398      0.00000     0.40461    0.00142     0.40602
      H   31    0.09580      0.00000     0.40300    0.00120     0.40420
 =======================================================================
   * Total *   -0.00000     23.99227    41.79205    0.21568    66.00000

 Normal termination of Gaussian 16 at Thu Dec 10 22:28:32 2020.
