 Gaussian 16, Revision A.03,

 -----------------------------------------------------------
 # opt freq B3LYP/6-31G(d) empiricaldispersion=gd3bj scf=xqc
 -----------------------------------------------------------

 ------------------------------
 CID_15553208_JID_5434_neutraal
 ------------------------------
 Symbolic Z-matrix:
 Charge =  0 Multiplicity = 1

 SCF Done:  E(RB3LYP) =  -740.751150333     A.U. after   15 cycles
 SCF Done:  E(RB3LYP) =  -740.757386508     A.U. after   12 cycles
 SCF Done:  E(RB3LYP) =  -740.752738734     A.U. after   13 cycles
 SCF Done:  E(RB3LYP) =  -740.757811845     A.U. after   13 cycles
 SCF Done:  E(RB3LYP) =  -740.760085732     A.U. after   13 cycles
 SCF Done:  E(RB3LYP) =  -740.761428025     A.U. after   12 cycles
 SCF Done:  E(RB3LYP) =  -740.762529866     A.U. after   12 cycles
 SCF Done:  E(RB3LYP) =  -740.762994233     A.U. after   12 cycles
 SCF Done:  E(RB3LYP) =  -740.763189302     A.U. after   11 cycles
 SCF Done:  E(RB3LYP) =  -740.763220202     A.U. after   11 cycles
 SCF Done:  E(RB3LYP) =  -740.763270308     A.U. after   10 cycles
 SCF Done:  E(RB3LYP) =  -740.763272111     A.U. after    8 cycles
 SCF Done:  E(RB3LYP) =  -740.763274846     A.U. after    9 cycles
 SCF Done:  E(RB3LYP) =  -740.763275727     A.U. after    8 cycles
 SCF Done:  E(RB3LYP) =  -740.763276192     A.U. after    8 cycles
 Optimization completed.
    -- Stationary point found.
 Normal termination of Gaussian 16 at Thu Dec 10 16:06:16 2020.

 --------------------------------------------------------------------
 #N Geom=AllCheck Guess=TCheck SCRF=Check GenChk RB3LYP/6-31G(d) Freq
 --------------------------------------------------------------------

 Structure from the checkpoint file:  "JID_5434.chk"
 ------------------------------
 CID_15553208_JID_5434_neutraal
 ------------------------------
 Charge =  0 Multiplicity = 1

 SCF Done:  E(RB3LYP) =  -740.763276192     A.U. after    1 cycles

  Exact polarizability: 174.858  27.505  89.093   5.423  -6.472 112.667
 Approx polarizability: 246.911  55.181 133.520  13.258 -12.315 194.412

                      1                      2                      3
                      A                      A                      A
 Frequencies --     36.0951                45.4374                59.7939
 Red. masses --      4.4660                 5.1638                 4.4430
 Frc consts  --      0.0034                 0.0063                 0.0094
 IR Inten    --      1.7370                 1.1602                 1.0022

                      4                      5                      6
                      A                      A                      A
 Frequencies --     81.5873               123.7754               148.3568
 Red. masses --      5.3056                 4.7421                 4.3482
 Frc consts  --      0.0208                 0.0428                 0.0564
 IR Inten    --      3.3608                 3.4601                 1.1514

                      7                      8                      9
                      A                      A                      A
 Frequencies --    170.9604               224.2932               231.0789
 Red. masses --      3.6329                 1.4705                 3.1408
 Frc consts  --      0.0626                 0.0436                 0.0988
 IR Inten    --      5.0194               102.0275                19.5687

                     10                     11                     12
                      A                      A                      A
 Frequencies --    265.9615               298.7897               315.2093
 Red. masses --      3.9536                 1.0842                 4.9507
 Frc consts  --      0.1648                 0.0570                 0.2898
 IR Inten    --      0.6538                22.2033                 1.2020

                     13                     14                     15
                      A                      A                      A
 Frequencies --    334.0908               357.4830               374.7234
 Red. masses --      4.8232                 4.3100                 3.0750
 Frc consts  --      0.3172                 0.3245                 0.2544
 IR Inten    --      4.5174                 1.0058                 2.6347

                     16                     17                     18
                      A                      A                      A
 Frequencies --    394.1932               473.5898               506.9316
 Red. masses --      4.1449                 3.0617                 1.9943
 Frc consts  --      0.3795                 0.4046                 0.3019
 IR Inten    --      2.0593                13.1012                66.4416

                     19                     20                     21
                      A                      A                      A
 Frequencies --    518.5749               544.5687               573.2496
 Red. masses --      4.0394                 4.2433                 1.4621
 Frc consts  --      0.6400                 0.7414                 0.2831
 IR Inten    --      8.9162                31.6127                56.4507

                     22                     23                     24
                      A                      A                      A
 Frequencies --    578.7038               602.7407               640.1857
 Red. masses --      3.0955                 2.2768                 3.7489
 Frc consts  --      0.6108                 0.4873                 0.9053
 IR Inten    --    150.7467               138.2993                14.2446

                     25                     26                     27
                      A                      A                      A
 Frequencies --    656.2736               702.6633               724.1228
 Red. masses --      2.6364                 3.9223                 1.7834
 Frc consts  --      0.6690                 1.1410                 0.5510
 IR Inten    --    112.5314                12.4034                33.2117

                     28                     29                     30
                      A                      A                      A
 Frequencies --    762.4122               784.6309               788.4439
 Red. masses --      5.4396                 1.8523                 2.0690
 Frc consts  --      1.8629                 0.6719                 0.7578
 IR Inten    --      4.9194                14.1117                39.5133

                     31                     32                     33
                      A                      A                      A
 Frequencies --    808.0119               849.1216               868.9130
 Red. masses --      2.0545                 1.5003                 1.8398
 Frc consts  --      0.7903                 0.6373                 0.8184
 IR Inten    --     34.2643                28.3551                54.2107

                     34                     35                     36
                      A                      A                      A
 Frequencies --    892.0487               922.0694               949.0395
 Red. masses --      3.1682                 1.3364                 2.0647
 Frc consts  --      1.4854                 0.6694                 1.0957
 IR Inten    --     10.6042                 1.2743                15.6524

                     37                     38                     39
                      A                      A                      A
 Frequencies --    995.8646               999.2128              1086.7664
 Red. masses --      3.1830                 2.2052                 2.2144
 Frc consts  --      1.8599                 1.2972                 1.5409
 IR Inten    --     14.0090                52.1101                48.7793

                     40                     41                     42
                      A                      A                      A
 Frequencies --   1108.8730              1120.8127              1134.3134
 Red. masses --      2.5895                 1.4280                 2.6726
 Frc consts  --      1.8760                 1.0569                 2.0260
 IR Inten    --     50.3510                 1.0633                20.6920

                     43                     44                     45
                      A                      A                      A
 Frequencies --   1166.5081              1224.8929              1235.7546
 Red. masses --      1.3226                 1.3290                 1.9686
 Frc consts  --      1.0604                 1.1748                 1.7712
 IR Inten    --     15.0898               109.5973               103.1511

                     46                     47                     48
                      A                      A                      A
 Frequencies --   1253.5052              1275.2647              1281.3413
 Red. masses --      2.2607                 1.2829                 1.3637
 Frc consts  --      2.0929                 1.2292                 1.3191
 IR Inten    --     24.9831                34.4406                13.2307

                     49                     50                     51
                      A                      A                      A
 Frequencies --   1327.7867              1345.4621              1373.7962
 Red. masses --      1.3037                 3.9461                 3.3061
 Frc consts  --      1.3542                 4.2088                 3.6763
 IR Inten    --     31.4762                55.6352                33.1522

                     52                     53                     54
                      A                      A                      A
 Frequencies --   1395.3087              1427.0092              1435.3331
 Red. masses --      1.5136                 2.2733                 1.5223
 Frc consts  --      1.7362                 2.7274                 1.8478
 IR Inten    --     42.9124               225.1671                68.5955

                     55                     56                     57
                      A                      A                      A
 Frequencies --   1464.6505              1475.1945              1490.7426
 Red. masses --      1.4609                 1.5028                 1.6159
 Frc consts  --      1.8465                 1.9269                 2.1158
 IR Inten    --      3.9238                51.9050                 0.8340

                     58                     59                     60
                      A                      A                      A
 Frequencies --   1518.2370              1542.1861              1543.6103
 Red. masses --      1.1354                 2.4603                 1.0914
 Frc consts  --      1.5420                 3.4475                 1.5322
 IR Inten    --      5.3518                17.2203                10.2288

                     61                     62                     63
                      A                      A                      A
 Frequencies --   1563.3902              1636.2714              1682.4201
 Red. masses --      3.0209                 5.7287                 2.1714
 Frc consts  --      4.3503                 9.0369                 3.6213
 IR Inten    --    175.1031                49.6186                42.7101

                     64                     65                     66
                      A                      A                      A
 Frequencies --   1698.4201              1812.7904              3006.3349
 Red. masses --      1.7017                 6.6664                 1.0576
 Frc consts  --      2.8922                12.9073                 5.6318
 IR Inten    --    196.8763               597.6692                48.3611

                     67                     68                     69
                      A                      A                      A
 Frequencies --   3045.0920              3092.5337              3161.6343
 Red. masses --      1.1053                 1.0682                 1.0999
 Frc consts  --      6.0388                 6.0190                 6.4776
 IR Inten    --     35.6011                33.0508                 4.1766

                     70                     71                     72
                      A                      A                      A
 Frequencies --   3179.8410              3197.1417              3200.6996
 Red. masses --      1.0869                 1.0942                 1.0909
 Frc consts  --      6.4751                 6.5896                 6.5845
 IR Inten    --     10.9623                20.4732                 5.4390

                     73                     74                     75
                      A                      A                      A
 Frequencies --   3346.7407              3526.7426              3552.7884
 Red. masses --      1.0684                 1.0736                 1.0478
 Frc consts  --      7.0506                 7.8673                 7.7923
 IR Inten    --    727.8653                38.1105                14.2664

                     76                     77                     78
                      A                      A                      A
 Frequencies --   3599.1719              3652.1532              3776.6014
 Red. masses --      1.0756                 1.0982                 1.0668
 Frc consts  --      8.2092                 8.6304                 8.9650
 IR Inten    --     36.0471                 8.2730                30.8450

 - Thermochemistry -
 -------------------
 Temperature   298.150 Kelvin.  Pressure   1.00000 Atm.
 Atom     1 has atomic number  6 and mass  12.00000

 Molecular mass:   211.09569 amu.
 Principal axes and moments of inertia in atomic units:
                           1         2         3
     Eigenvalues --  1599.136285558.958935814.63973
           X            0.99999  -0.00342  -0.00129
           Y            0.00342   0.99999  -0.00363
           Z            0.00130   0.00363   0.99999
 This molecule is an asymmetric top.
 Rotational symmetry number  1.
 Warning -- assumption of classical behavior for rotation
           may cause significant error
 Rotational temperatures (Kelvin)      0.05416     0.01558     0.01490
 Rotational constants (GHZ):           1.12857     0.32465     0.31038
 Zero-point vibrational energy     601490.3 (Joules/Mol)
                                  143.75962 (Kcal/Mol)
 Warning -- explicit consideration of  23 degrees of freedom as
           vibrations may cause significant error
 Vibrational temperatures:     51.93    65.37    86.03   117.39   178.09
          (Kelvin)            213.45   245.97   322.71   332.47   382.66
                              429.89   453.52   480.68   514.34   539.14
                              567.16   681.39   729.36   746.11   783.51
                              824.78   832.63   867.21   921.08   944.23
                             1010.98  1041.85  1096.94  1128.91  1134.39
                             1162.55  1221.70  1250.17  1283.46  1326.65
                             1365.46  1432.83  1437.64  1563.61  1595.42
                             1612.60  1632.02  1678.35  1762.35  1777.98
                             1803.51  1834.82  1843.56  1910.39  1935.82
                             1976.59  2007.54  2053.15  2065.12  2107.31
                             2122.48  2144.85  2184.40  2218.86  2220.91
                             2249.37  2354.23  2420.63  2443.65  2608.20
                             4325.45  4381.21  4449.47  4548.89  4575.08
                             4599.97  4605.09  4815.21  5074.20  5111.67
                             5178.41  5254.63  5433.69

 Zero-point correction=                           0.229096 (Hartree/Particle)
 Thermal correction to Energy=                    0.243684
 Thermal correction to Enthalpy=                  0.244629
 Thermal correction to Gibbs Free Energy=         0.186880
 Sum of electronic and zero-point Energies=           -740.534181
 Sum of electronic and thermal Energies=              -740.519592
 Sum of electronic and thermal Enthalpies=            -740.518648
 Sum of electronic and thermal Free Energies=         -740.576397

                     E (Thermal)             CV                S
                      KCal/Mol        Cal/Mol-Kelvin    Cal/Mol-Kelvin
 Total                  152.914             55.453            121.543
 Electronic               0.000              0.000              0.000
 Translational            0.889              2.981             41.945
 Rotational               0.889              2.981             32.314
 Vibrational            151.137             49.491             47.284
 Vibration     1          0.594              1.982              5.463
 Vibration     2          0.595              1.979              5.007
 Vibration     3          0.597              1.973              4.464
 Vibration     4          0.600              1.962              3.852
 Vibration     5          0.610              1.929              3.041
 Vibration     6          0.618              1.904              2.693
 Vibration     7          0.626              1.878              2.425
 Vibration     8          0.649              1.804              1.924
 Vibration     9          0.653              1.793              1.871
 Vibration    10          0.672              1.736              1.622
 Vibration    11          0.692              1.676              1.424
 Vibration    12          0.703              1.645              1.335
 Vibration    13          0.716              1.607              1.240
 Vibration    14          0.733              1.560              1.133
 Vibration    15          0.746              1.524              1.060
 Vibration    16          0.761              1.483              0.984
 Vibration    17          0.830              1.309              0.728
 Vibration    18          0.862              1.235              0.641
 Vibration    19          0.874              1.209              0.613
 Vibration    20          0.900              1.152              0.556
 Vibration    21          0.930              1.089              0.498
 Vibration    22          0.935              1.077              0.488
 Vibration    23          0.961              1.026              0.445

                           ! Non-Optimized Parameters !
 Normal termination of Gaussian 16 at Thu Dec 10 16:15:19 2020.

 ----------------------------------------------------------------------
 # B3LYP/6-311++G(d,p) empiricaldispersion=gd3bj scf=xqc pop=npa geom=c
 heck
 ----------------------------------------------------------------------

 --------------------------------------
 CID_15553208_JID_5434_Energie_neutraal
 --------------------------------------
 Structure from the checkpoint file:  "JID_5434.chk"
 Charge =  0 Multiplicity = 1

 SCF Done:  E(RB3LYP) =  -741.006389825     A.U. after   15 cycles
 Normal termination of Gaussian 16 at Thu Dec 10 16:19:52 2020.

 ----------------------------------------------------------------------
 # B3LYP/6-311++G(d,p) empiricaldispersion=gd3bj scf=xqc pop=npa geom=c
 heck
 ----------------------------------------------------------------------

 ------------------------------------
 CID_15553208_JID_5434_Energie_kation
 ------------------------------------
 Structure from the checkpoint file:  "JID_5434.chk"
 Charge =  1 Multiplicity = 2

 SCF Done:  E(UB3LYP) =  -740.732491476     A.U. after   23 cycles
 Normal termination of Gaussian 16 at Thu Dec 10 16:29:08 2020.
 Gaussian 16:  ES64L-G16RevA.03 25-Dec-2016

 ----------------------------------------------------------------------
 # B3LYP/6-311++G(d,p) empiricaldispersion=gd3bj scf=xqc pop=npa geom=c
 heck
 ----------------------------------------------------------------------

 -----------------------------------
 CID_15553208_JID_5434_Energie_anion
 -----------------------------------
 Structure from the checkpoint file:  "JID_5434.chk"
 Charge = -1 Multiplicity = 2

                         Standard orientation:
 ---------------------------------------------------------------------
 Center     Atomic      Atomic             Coordinates (Angstroms)
 Number     Number       Type             X           Y           Z
 ---------------------------------------------------------------------
      1          6           0       -2.824234   -0.080462   -1.362087
      2          6           0       -1.556189    0.465303   -1.503780
      3          6           0       -0.723560    0.707684   -0.405014
      4          6           0       -1.187546    0.348322    0.881293
      5          6           0       -2.454177   -0.225646    1.017584
      6          6           0       -3.292533   -0.429210   -0.083363
      7          7           0       -4.585542   -0.928712    0.089106
      8          8           0       -0.469678    0.537350    2.015998
      9          7           0        0.506848    1.390098   -0.640838
     10          6           0        1.741095    1.262746   -0.054341
     11          8           0        2.613163    2.111516   -0.174673
     12          7           0        1.921558    0.110789    0.751787
     13          6           0        1.723818   -1.221737    0.146497
     14          6           0        2.881372   -1.586708   -0.771429
     15          8           0        4.060871   -1.567935    0.028137
     16          1           0       -3.453806   -0.234212   -2.234004
     17          1           0       -1.192278    0.731480   -2.492993
     18          1           0       -2.774995   -0.494690    2.019623
     19          1           0       -4.724084   -1.463769    0.937176
     20          1           0       -4.965832   -1.408318   -0.717214
     21          1           0        0.493298    0.465929    1.800482
     22          1           0        0.452811    2.230849   -1.201800
     23          1           0        2.865488    0.162803    1.131111
     24          1           0        1.659095   -1.949216    0.961661
     25          1           0        0.778789   -1.243265   -0.397837
     26          1           0        2.709375   -2.581975   -1.209987
     27          1           0        2.942472   -0.856896   -1.591838
     28          1           0        4.826504   -1.453137   -0.552614
 ---------------------------------------------------------------------

 SCF Done:  E(UB3LYP) =  -740.999117871     A.U. after   33 cycles
 SCF Done:  E(UB3LYP) =  -740.999117871     a.u. after    1 cycles

 The electronic state is 2-A.
 Alpha  occ. eigenvalues --  -19.04761 -19.03894 -19.00723 -14.26481 -14.25260
 Alpha  occ. eigenvalues --  -14.22390 -10.21813 -10.14814 -10.13253 -10.12596
 Alpha  occ. eigenvalues --  -10.12354 -10.12248 -10.09097 -10.07666 -10.07470
 Alpha  occ. eigenvalues --   -0.97557  -0.96237  -0.94037  -0.85889  -0.83290
 Alpha  occ. eigenvalues --   -0.82684  -0.74372  -0.66286  -0.65724  -0.63913
 Alpha  occ. eigenvalues --   -0.55589  -0.53966  -0.53571  -0.51776  -0.47220
 Alpha  occ. eigenvalues --   -0.44294  -0.43904  -0.42637  -0.41328  -0.40408
 Alpha  occ. eigenvalues --   -0.38914  -0.37672  -0.36009  -0.34717  -0.34492
 Alpha  occ. eigenvalues --   -0.33743  -0.33380  -0.31609  -0.31020  -0.30796
 Alpha  occ. eigenvalues --   -0.29047  -0.27443  -0.26403  -0.25066  -0.23139
 Alpha  occ. eigenvalues --   -0.20989  -0.19762  -0.18774  -0.17744  -0.14573
 Alpha  occ. eigenvalues --   -0.11224   0.03731
 Alpha virt. eigenvalues --    0.05010   0.06613   0.07077   0.07800   0.08378
 Alpha virt. eigenvalues --    0.08503   0.09058   0.09532   0.10810   0.10986
 Alpha virt. eigenvalues --    0.11712   0.11925   0.12363   0.13173   0.13992

  Beta  occ. eigenvalues --  -19.04760 -19.03849 -19.00720 -14.26477 -14.25256
  Beta  occ. eigenvalues --  -14.22326 -10.21813 -10.14813 -10.13217 -10.12592
  Beta  occ. eigenvalues --  -10.12348 -10.12246 -10.09090 -10.07647 -10.07458
  Beta  occ. eigenvalues --   -0.97552  -0.96234  -0.93944  -0.85881  -0.83267
  Beta  occ. eigenvalues --   -0.82621  -0.74339  -0.66229  -0.65701  -0.63871
  Beta  occ. eigenvalues --   -0.55546  -0.53912  -0.53538  -0.51751  -0.47193
  Beta  occ. eigenvalues --   -0.44192  -0.43852  -0.42581  -0.41305  -0.40358
  Beta  occ. eigenvalues --   -0.38883  -0.37646  -0.35967  -0.34697  -0.34473
  Beta  occ. eigenvalues --   -0.33712  -0.33363  -0.31570  -0.30985  -0.30775
  Beta  occ. eigenvalues --   -0.29021  -0.27414  -0.26345  -0.25048  -0.23122
  Beta  occ. eigenvalues --   -0.20976  -0.19716  -0.18753  -0.17734  -0.14557
  Beta  occ. eigenvalues --   -0.11192
  Beta virt. eigenvalues --    0.06239   0.06592   0.06961   0.07535   0.08277
  Beta virt. eigenvalues --    0.08739   0.08905   0.09255   0.09988   0.11029
  Beta virt. eigenvalues --    0.11154   0.11907   0.12271   0.12631   0.13537

 Mulliken charges and spin densities:
               1          2
     1  C   -0.484270   0.424137
     2  C   -0.005492  -0.139473
     3  C    1.061041  -0.878597
     4  C   -0.503227   0.375934
     5  C   -0.122380   0.142918
     6  C    0.863932  -1.405622
     7  N   -0.190130  -0.108503
     8  O   -0.295011  -0.003482
     9  N   -0.253430   0.034336
    10  C    0.412622  -0.334500
    11  O   -0.349836   0.026851
    12  N   -0.421082  -0.006161
    13  C   -1.257400   1.141500
    14  C    1.631550  -2.177935
    15  O   -0.337149   0.057119
    16  H   -0.617351   0.795563
    17  H   -0.126701   0.299669
    18  H   -0.033964   0.213689
    19  H   -0.165712   0.409161
    20  H   -0.287513   0.541603
    21  H    0.362795   0.021057
    22  H    0.322204   0.003168
    23  H    0.340704  -0.002633
    24  H    0.037518   0.171062
    25  H    0.342396  -0.154644
    26  H   -0.384923   0.565045
    27  H   -0.368630   0.549682
    28  H   -0.170563   0.439059
 Sum of Mulliken charges =  -1.00000   1.00000

 Dipole moment (field-independent basis, Debye):
    X=              0.9110    Y=              3.1593    Z=              2.3180  Tot=              4.0230
 Quadrupole moment (field-independent basis, Debye-Ang):
   XX=           -200.6237   YY=           -126.9600   ZZ=           -121.0327
   XY=             -5.6607   XZ=              2.2867   YZ=             -7.3904

 Summary of Natural Population Analysis:

                                       Natural Population
                Natural  -----------------------------------------------
    Atom  No    Charge         Core      Valence    Rydberg      Total
 -----------------------------------------------------------------------
      C    1   -0.13150      0.99952     2.12161    0.01037     3.13150
      C    2   -0.09237      0.99954     2.08309    0.00975     3.09237
      C    3    0.00978      0.99942     1.97916    0.01164     2.99022
      C    4    0.15990      0.99936     1.82598    0.01476     2.84010
      C    5   -0.14448      0.99949     2.13491    0.01008     3.14448
      C    6    0.09196      0.99950     1.89715    0.01140     2.90804
      N    7   -0.39294      0.99972     2.88279    0.01043     3.89294
      O    8   -0.35550      0.99987     3.34923    0.00640     4.35550
      N    9   -0.31833      0.99963     2.80937    0.00932     3.81833
      C   10    0.40607      0.99970     1.56907    0.02516     2.59393
      O   11   -0.32603      0.99987     3.32056    0.00559     4.32603
      N   12   -0.36525      0.99971     2.85477    0.01077     3.86525
      C   13   -0.10163      0.99960     2.09033    0.01170     3.10163
      C   14   -0.01699      0.99961     2.00520    0.01219     3.01699
      O   15   -0.37794      0.99989     3.37097    0.00709     4.37794
      H   16    0.10407      0.00000     0.39457    0.00136     0.39593
      H   17    0.10233      0.00000     0.39660    0.00106     0.39767
      H   18    0.10450      0.00000     0.39407    0.00143     0.39550
      H   19    0.18689      0.00000     0.31000    0.00311     0.31311
      H   20    0.19025      0.00000     0.30245    0.00730     0.30975
      H   21    0.24835      0.00000     0.24850    0.00315     0.25165
      H   22    0.19972      0.00000     0.29837    0.00191     0.30028
      H   23    0.20444      0.00000     0.29351    0.00205     0.29556
      H   24    0.09949      0.00000     0.39930    0.00121     0.40051
      H   25    0.10920      0.00000     0.38889    0.00191     0.39080
      H   26    0.08357      0.00000     0.41455    0.00187     0.41643
      H   27    0.08326      0.00000     0.41460    0.00213     0.41674
      H   28    0.23918      0.00000     0.25220    0.00863     0.26082
 =======================================================================
   * Total *   -0.00000     14.99442    40.80180    0.20378    56.00000

 Normal termination of Gaussian 16 at Thu Dec 10 16:42:02 2020.
