 Gaussian 16, Revision A.03,

 -----------------------------------------------------------
 # opt freq B3LYP/6-31G(d) empiricaldispersion=gd3bj scf=xqc
 -----------------------------------------------------------

 -------------------------------
 CID_150281496_JID_2887_neutraal
 -------------------------------
 Symbolic Z-matrix:
 Charge =  0 Multiplicity = 1

 SCF Done:  E(RB3LYP) =  -878.961442443     A.U. after   14 cycles
 SCF Done:  E(RB3LYP) =  -878.968350644     A.U. after   12 cycles
 SCF Done:  E(RB3LYP) =  -878.969604526     A.U. after   12 cycles
 SCF Done:  E(RB3LYP) =  -878.970049217     A.U. after   11 cycles
 SCF Done:  E(RB3LYP) =  -878.970277990     A.U. after   11 cycles
 SCF Done:  E(RB3LYP) =  -878.970329021     A.U. after   10 cycles
 SCF Done:  E(RB3LYP) =  -878.970351749     A.U. after   11 cycles
 SCF Done:  E(RB3LYP) =  -878.970356364     A.U. after    9 cycles
 SCF Done:  E(RB3LYP) =  -878.970358274     A.U. after    9 cycles
 SCF Done:  E(RB3LYP) =  -878.970358684     A.U. after    7 cycles
 SCF Done:  E(RB3LYP) =  -878.970358936     A.U. after    7 cycles
 SCF Done:  E(RB3LYP) =  -878.970359192     A.U. after    8 cycles
 SCF Done:  E(RB3LYP) =  -878.970359462     A.U. after    8 cycles
 SCF Done:  E(RB3LYP) =  -878.970359627     A.U. after    8 cycles
 SCF Done:  E(RB3LYP) =  -878.970359706     A.U. after    7 cycles
 Optimization completed.
    -- Stationary point found.
 Normal termination of Gaussian 16 at Wed Dec  9 17:58:36 2020.

 --------------------------------------------------------------------
 #N Geom=AllCheck Guess=TCheck SCRF=Check GenChk RB3LYP/6-31G(d) Freq
 --------------------------------------------------------------------

 Structure from the checkpoint file:  "JID_2887.chk"
 -------------------------------
 CID_150281496_JID_2887_neutraal
 -------------------------------
 Charge =  0 Multiplicity = 1

 SCF Done:  E(RB3LYP) =  -878.970359706     A.U. after    1 cycles

  Exact polarizability: 145.700  -7.807 137.943   4.675   9.564  71.840
 Approx polarizability: 212.994 -14.743 207.213  12.101  25.168 115.371

                      1                      2                      3
                      A                      A                      A
 Frequencies --     26.7788                50.5455                93.7779
 Red. masses --      3.8468                 3.7454                 3.8137
 Frc consts  --      0.0016                 0.0056                 0.0198
 IR Inten    --      0.2852                 0.6413                 1.2056

                      4                      5                      6
                      A                      A                      A
 Frequencies --    123.3172               159.6282               213.0071
 Red. masses --      4.3750                 5.7028                 2.5391
 Frc consts  --      0.0392                 0.0856                 0.0679
 IR Inten    --      2.0699                 3.2313                 0.5809

                      7                      8                      9
                      A                      A                      A
 Frequencies --    244.6882               260.4846               288.9817
 Red. masses --      1.9869                 1.8590                 1.1041
 Frc consts  --      0.0701                 0.0743                 0.0543
 IR Inten    --      1.7101                 1.2223                 1.3816

                     10                     11                     12
                      A                      A                      A
 Frequencies --    294.1916               324.6851               377.9557
 Red. masses --      1.1925                 3.1884                 2.3944
 Frc consts  --      0.0608                 0.1980                 0.2015
 IR Inten    --     10.7669                 0.1243                 0.7760

                     13                     14                     15
                      A                      A                      A
 Frequencies --    405.4449               462.3368               484.9526
 Red. masses --      3.8594                 2.8757                 4.4954
 Frc consts  --      0.3738                 0.3622                 0.6229
 IR Inten    --      9.0411                 2.0845                 1.2775

                     16                     17                     18
                      A                      A                      A
 Frequencies --    511.5483               545.6744               580.3852
 Red. masses --      4.4531                 4.0004                 2.2923
 Frc consts  --      0.6866                 0.7018                 0.4549
 IR Inten    --      6.3315                 3.1584                50.5417

                     19                     20                     21
                      A                      A                      A
 Frequencies --    621.8457               623.0554               744.5419
 Red. masses --      2.4321                 3.6915                 3.8225
 Frc consts  --      0.5541                 0.8443                 1.2485
 IR Inten    --     46.7349                 5.3356                 1.1521

                     22                     23                     24
                      A                      A                      A
 Frequencies --    756.2402               782.1880               817.1591
 Red. masses --      1.7405                 2.4460                 2.8987
 Frc consts  --      0.5865                 0.8817                 1.1404
 IR Inten    --     33.5989                17.6146                19.0463

                     25                     26                     27
                      A                      A                      A
 Frequencies --    849.8890               865.4170               898.9611
 Red. masses --      3.1554                 1.5183                 3.1576
 Frc consts  --      1.3428                 0.6700                 1.5034
 IR Inten    --     11.3875                 0.6304                40.5389

                     28                     29                     30
                      A                      A                      A
 Frequencies --    931.6749               939.8034               949.8847
 Red. masses --      1.4032                 1.3155                 1.3221
 Frc consts  --      0.7176                 0.6846                 0.7029
 IR Inten    --      2.5237                 0.2284                 2.5632

                     31                     32                     33
                      A                      A                      A
 Frequencies --    963.0539               965.4272              1033.6068
 Red. masses --      1.7988                 1.5797                 1.2345
 Frc consts  --      0.9830                 0.8675                 0.7770
 IR Inten    --     32.5276                26.5666                 3.9025

                     34                     35                     36
                      A                      A                      A
 Frequencies --   1071.9834              1130.0704              1157.0944
 Red. masses --      2.0058                 1.9638                 2.0318
 Frc consts  --      1.3581                 1.4776                 1.6028
 IR Inten    --      8.2515                18.3589                17.7006

                     37                     38                     39
                      A                      A                      A
 Frequencies --   1169.6162              1190.8816              1211.4063
 Red. masses --      1.9052                 1.0889                 2.0962
 Frc consts  --      1.5356                 0.9098                 1.8125
 IR Inten    --     92.2495                 1.4123                30.8849

                     40                     41                     42
                      A                      A                      A
 Frequencies --   1217.9466              1279.4145              1324.4887
 Red. masses --      2.0955                 2.1110                 2.1638
 Frc consts  --      1.8315                 2.0359                 2.2365
 IR Inten    --     83.3439                69.8254                37.6212

                     43                     44                     45
                      A                      A                      A
 Frequencies --   1345.4499              1381.9349              1406.8049
 Red. masses --      4.5017                 1.3301                 1.2426
 Frc consts  --      4.8013                 1.4967                 1.4490
 IR Inten    --     36.9506                 2.4812                11.5364

                     46                     47                     48
                      A                      A                      A
 Frequencies --   1429.7369              1444.4628              1449.2841
 Red. masses --      1.3290                 1.2433                 1.4636
 Frc consts  --      1.6006                 1.5284                 1.8113
 IR Inten    --     21.0072                16.4933                15.0207

                     49                     50                     51
                      A                      A                      A
 Frequencies --   1508.9388              1514.2250              1520.5792
 Red. masses --      2.1280                 1.1090                 1.0570
 Frc consts  --      2.8547                 1.4982                 1.4399
 IR Inten    --     16.6286                 1.1292                 3.7567

                     52                     53                     54
                      A                      A                      A
 Frequencies --   1527.6539              1541.3821              1544.3200
 Red. masses --      1.0595                 1.1007                 2.3311
 Frc consts  --      1.4568                 1.5408                 3.2756
 IR Inten    --     19.3928                 8.7709               114.8845

                     55                     56                     57
                      A                      A                      A
 Frequencies --   1645.6697              1658.6858              2590.2004
 Red. masses --      5.4827                 6.1349                 1.0404
 Frc consts  --      8.7484                 9.9445                 4.1126
 IR Inten    --      4.4660                39.1253                71.6194

                     58                     59                     60
                      A                      A                      A
 Frequencies --   3056.6600              3062.9403              3076.5074
 Red. masses --      1.0354                 1.0357                 1.0867
 Frc consts  --      5.6996                 5.7246                 6.0603
 IR Inten    --     15.0452                 7.8317                25.2968

                     61                     62                     63
                      A                      A                      A
 Frequencies --   3123.9682              3131.7820              3138.1148
 Red. masses --      1.1015                 1.1016                 1.1035
 Frc consts  --      6.3336                 6.3661                 6.4026
 IR Inten    --      6.7304                51.7752                15.6395

                     64                     65                     66
                      A                      A                      A
 Frequencies --   3142.2604              3189.5817              3204.9854
 Red. masses --      1.1028                 1.0857                 1.0907
 Frc consts  --      6.4153                 6.5078                 6.6008
 IR Inten    --     36.9948                 2.9447                21.0665

                     67                     68                     69
                      A                      A                      A
 Frequencies --   3216.0021              3227.7478              3598.5985
 Red. masses --      1.0935                 1.0939                 1.0748
 Frc consts  --      6.6637                 6.7144                 8.2007
 IR Inten    --     14.9685                10.4419                45.7073

 - Thermochemistry -
 -------------------
 Temperature   298.150 Kelvin.  Pressure   1.00000 Atm.
 Atom     1 has atomic number  6 and mass  12.00000

 Molecular mass:   183.07179 amu.
 Principal axes and moments of inertia in atomic units:
                           1         2         3
     Eigenvalues --  1842.772852553.517693958.73388
           X            0.99767   0.06706  -0.01215
           Y           -0.06708   0.99775  -0.00156
           Z            0.01202   0.00237   0.99992
 This molecule is an asymmetric top.
 Rotational symmetry number  1.
 Warning -- assumption of classical behavior for rotation
           may cause significant error
 Rotational temperatures (Kelvin)      0.04700     0.03392     0.02188
 Rotational constants (GHZ):           0.97936     0.70677     0.45589
 Zero-point vibrational energy     542043.0 (Joules/Mol)
                                  129.55138 (Kcal/Mol)
 Warning -- explicit consideration of  18 degrees of freedom as
           vibrations may cause significant error
 Vibrational temperatures:     38.53    72.72   134.93   177.43   229.67
          (Kelvin)            306.47   352.05   374.78   415.78   423.28
                              467.15   543.79   583.34   665.20   697.74
                              736.00   785.10   835.04   894.70   896.44
                             1071.23  1088.06  1125.39  1175.71  1222.80
                             1245.14  1293.40  1340.47  1352.17  1366.67
                             1385.62  1389.03  1487.13  1542.35  1625.92
                             1664.80  1682.82  1713.41  1742.94  1752.35
                             1840.79  1905.64  1935.80  1988.30  2024.08
                             2057.07  2078.26  2085.20  2171.03  2178.63
                             2187.77  2197.95  2217.71  2221.93  2367.75
                             2386.48  3726.72  4397.85  4406.89  4426.41
                             4494.69  4505.94  4515.05  4521.01  4589.10
                             4611.26  4627.11  4644.01  5177.58

 Zero-point correction=                           0.206453 (Hartree/Particle)
 Thermal correction to Energy=                    0.218844
 Thermal correction to Enthalpy=                  0.219788
 Thermal correction to Gibbs Free Energy=         0.167013
 Sum of electronic and zero-point Energies=           -878.763906
 Sum of electronic and thermal Energies=              -878.751516
 Sum of electronic and thermal Enthalpies=            -878.750572
 Sum of electronic and thermal Free Energies=         -878.803347

                     E (Thermal)             CV                S
                      KCal/Mol        Cal/Mol-Kelvin    Cal/Mol-Kelvin
 Total                  137.326             47.003            111.074
 Electronic               0.000              0.000              0.000
 Translational            0.889              2.981             41.521
 Rotational               0.889              2.981             31.300
 Vibrational            135.549             41.042             38.254
 Vibration     1          0.593              1.984              6.055
 Vibration     2          0.595              1.977              4.796
 Vibration     3          0.603              1.954              3.580
 Vibration     4          0.610              1.930              3.048
 Vibration     5          0.621              1.892              2.554
 Vibration     6          0.644              1.821              2.018
 Vibration     7          0.660              1.772              1.769
 Vibration     8          0.669              1.745              1.659
 Vibration     9          0.686              1.694              1.480
 Vibration    10          0.689              1.685              1.450
 Vibration    11          0.709              1.626              1.286
 Vibration    12          0.748              1.517              1.047
 Vibration    13          0.770              1.458              0.943
 Vibration    14          0.820              1.334              0.759
 Vibration    15          0.841              1.283              0.697
 Vibration    16          0.867              1.224              0.630
 Vibration    17          0.901              1.149              0.553
 Vibration    18          0.937              1.074              0.485

 Optimization completed.
    -- Stationary point found.
 Normal termination of Gaussian 16 at Wed Dec  9 18:04:46 2020.

 ----------------------------------------------------------------------
 # B3LYP/6-311++G(d,p) empiricaldispersion=gd3bj scf=xqc pop=npa geom=c
 heck
 ----------------------------------------------------------------------

 ---------------------------------------
 CID_150281496_JID_2887_Energie_neutraal
 ---------------------------------------
 Structure from the checkpoint file:  "JID_2887.chk"
 Charge =  0 Multiplicity = 1

 SCF Done:  E(RB3LYP) =  -879.135502340     A.U. after   15 cycles
 Normal termination of Gaussian 16 at Wed Dec  9 18:08:09 2020.

 ----------------------------------------------------------------------
 # B3LYP/6-311++G(d,p) empiricaldispersion=gd3bj scf=xqc pop=npa geom=c
 heck
 ----------------------------------------------------------------------

 -------------------------------------
 CID_150281496_JID_2887_Energie_kation
 -------------------------------------
 Structure from the checkpoint file:  "JID_2887.chk"
 Charge =  1 Multiplicity = 2

 SCF Done:  E(UB3LYP) =  -878.856443534     A.U. after   25 cycles
 Normal termination of Gaussian 16 at Wed Dec  9 18:19:59 2020.
 Gaussian 16:  ES64L-G16RevA.03 25-Dec-2016

 ----------------------------------------------------------------------
 # B3LYP/6-311++G(d,p) empiricaldispersion=gd3bj scf=xqc pop=npa geom=c
 heck
 ----------------------------------------------------------------------

 ------------------------------------
 CID_150281496_JID_2887_Energie_anion
 ------------------------------------
 Structure from the checkpoint file:  "JID_2887.chk"
 Charge = -1 Multiplicity = 2

                         Standard orientation:
 ---------------------------------------------------------------------
 Center     Atomic      Atomic             Coordinates (Angstroms)
 Number     Number       Type             X           Y           Z
 ---------------------------------------------------------------------
      1          6           0       -1.204391   -1.860404    1.101230
      2          6           0       -1.988929   -1.432748   -0.137009
      3          6           0       -3.310865   -0.759101    0.223068
      4          8           0       -1.188402   -0.620396   -1.041253
      5          6           0       -0.568612    0.503837   -0.520687
      6          6           0       -1.255973    1.693248   -0.289412
      7          6           0       -0.585848    2.807133    0.220416
      8          6           0        0.782027    2.726793    0.480948
      9          6           0        1.486871    1.555122    0.210534
     10          6           0        0.823903    0.435565   -0.302053
     11          7           0        1.484576   -0.744381   -0.669790
     12         16           0        2.821889   -1.365935    0.199493
     13          1           0       -0.911543   -0.989487    1.696611
     14          1           0       -0.300012   -2.413862    0.831877
     15          1           0       -1.825334   -2.508096    1.729208
     16          1           0       -2.201281   -2.312674   -0.753031
     17          1           0       -3.157532    0.084358    0.903013
     18          1           0       -3.816580   -0.399087   -0.678180
     19          1           0       -3.967524   -1.479597    0.723560
     20          1           0       -2.314644    1.739153   -0.517996
     21          1           0       -1.129833    3.728085    0.406356
     22          1           0        1.312517    3.585854    0.881513
     23          1           0        2.553683    1.495227    0.398765
     24          1           0        0.851726   -1.449519   -1.025726
     25          1           0        3.802219   -1.068228   -0.691511
 ---------------------------------------------------------------------

 SCF Done:  E(UB3LYP) =  -879.121021620     A.U. after   33 cycles
 SCF Done:  E(UB3LYP) =  -879.121021620     a.u. after    1 cycles

 The electronic state is 2-A.
 Alpha  occ. eigenvalues --  -88.77065 -19.03941 -14.24282 -10.13085 -10.12689
 Alpha  occ. eigenvalues --  -10.11739 -10.07716 -10.07622 -10.07354 -10.07251
 Alpha  occ. eigenvalues --  -10.06139 -10.06080  -7.85526  -5.82040  -5.81520
 Alpha  occ. eigenvalues --   -5.80813  -0.95273  -0.83910  -0.74976  -0.69014
 Alpha  occ. eigenvalues --   -0.65502  -0.64208  -0.59750  -0.59363  -0.53363
 Alpha  occ. eigenvalues --   -0.50158  -0.48181  -0.42790  -0.40724  -0.39135
 Alpha  occ. eigenvalues --   -0.38433  -0.36173  -0.35370  -0.33722  -0.32742
 Alpha  occ. eigenvalues --   -0.31999  -0.30193  -0.29244  -0.28506  -0.27791
 Alpha  occ. eigenvalues --   -0.27082  -0.26267  -0.25246  -0.22849  -0.20640
 Alpha  occ. eigenvalues --   -0.18604  -0.15685  -0.14804  -0.11238   0.04498
 Alpha virt. eigenvalues --    0.06229   0.06784   0.07882   0.08231   0.08414
 Alpha virt. eigenvalues --    0.09135   0.09361   0.09980   0.10386   0.11493
 Alpha virt. eigenvalues --    0.11777   0.12313   0.12702   0.13484   0.14068

  Beta  occ. eigenvalues --  -88.77037 -19.03942 -14.24277 -10.13069 -10.12687
  Beta  occ. eigenvalues --  -10.11739 -10.07706 -10.07607 -10.07349 -10.07238
  Beta  occ. eigenvalues --  -10.06102 -10.06042  -7.85493  -5.82004  -5.81484
  Beta  occ. eigenvalues --   -5.80788  -0.95267  -0.83885  -0.74954  -0.68976
  Beta  occ. eigenvalues --   -0.65448  -0.64173  -0.59674  -0.59285  -0.53319
  Beta  occ. eigenvalues --   -0.50119  -0.48141  -0.42758  -0.40678  -0.39094
  Beta  occ. eigenvalues --   -0.38372  -0.36121  -0.35310  -0.33695  -0.32701
  Beta  occ. eigenvalues --   -0.31968  -0.30142  -0.29199  -0.28464  -0.27761
  Beta  occ. eigenvalues --   -0.27043  -0.26228  -0.25216  -0.22807  -0.20595
  Beta  occ. eigenvalues --   -0.18588  -0.15623  -0.14764  -0.11215
  Beta virt. eigenvalues --    0.06673   0.07363   0.07516   0.08031   0.08446
  Beta virt. eigenvalues --    0.09025   0.09606   0.09745   0.10128   0.10966
  Beta virt. eigenvalues --    0.11919   0.12170   0.12562   0.13001   0.13776

 Mulliken charges and spin densities:
               1          2
     1  C    0.844961  -1.432160
     2  C   -1.222713   1.417914
     3  C    1.165623  -1.841285
     4  O   -0.120043  -0.000008
     5  C   -0.538683   0.043328
     6  C    0.659251  -0.387602
     7  C    0.035369  -0.343108
     8  C   -0.419112   0.052805
     9  C    0.261787  -0.349264
    10  C    0.408246  -0.029795
    11  N   -0.396752   0.163942
    12  S    0.817876  -0.883655
    13  H    0.089097   0.069977
    14  H   -0.027833   0.165817
    15  H   -0.358253   0.514578
    16  H   -0.535180   0.729956
    17  H   -0.130481   0.285552
    18  H   -0.153422   0.318524
    19  H   -0.454026   0.594950
    20  H    0.117652   0.049798
    21  H   -0.184940   0.340705
    22  H   -0.052844   0.207215
    23  H   -0.220954   0.331102
    24  H    0.108780   0.187353
    25  H   -0.693405   0.793361
 Sum of Mulliken charges =  -1.00000   1.00000

 Dipole moment (field-independent basis, Debye):
    X=              0.7914    Y=              3.1892    Z=              0.0654  Tot=              3.2866
 Quadrupole moment (field-independent basis, Debye-Ang):
   XX=           -151.1486   YY=           -126.0590   ZZ=           -110.2241
   XY=             -7.6182   XZ=              7.0813   YZ=              2.4411

 Summary of Natural Population Analysis:

                                       Natural Population
                Natural  -----------------------------------------------
    Atom  No    Charge         Core      Valence    Rydberg      Total
 -----------------------------------------------------------------------
      C    1   -0.30343      0.99964     2.29711    0.00668     3.30343
      C    2    0.06787      0.99954     1.91862    0.01397     2.93213
      C    3   -0.30095      0.99964     2.29486    0.00645     3.30095
      O    4   -0.30337      0.99987     3.29367    0.00983     4.30337
      C    5    0.13538      0.99932     1.85141    0.01389     2.86462
      C    6   -0.11473      0.99951     2.10663    0.00859     3.11473
      C    7   -0.11759      0.99957     2.10805    0.00998     3.11759
      C    8   -0.09979      0.99957     2.09083    0.00939     3.09979
      C    9   -0.11919      0.99952     2.10973    0.00993     3.11919
      C   10    0.06917      0.99942     1.91811    0.01330     2.93083
      N   11   -0.38244      0.99967     2.86998    0.01279     3.88244
      S   12    0.08742      4.99964     2.89373    0.01921     7.91258
      H   13    0.10283      0.00000     0.39593    0.00124     0.39717
      H   14    0.10303      0.00000     0.39549    0.00148     0.39697
      H   15    0.10695      0.00000     0.39170    0.00135     0.39305
      H   16    0.09027      0.00000     0.40778    0.00195     0.40973
      H   17    0.09969      0.00000     0.39885    0.00146     0.40031
      H   18    0.10284      0.00000     0.39584    0.00131     0.39716
      H   19    0.10616      0.00000     0.39217    0.00167     0.39384
      H   20    0.10615      0.00000     0.39240    0.00145     0.39385
      H   21    0.09942      0.00000     0.39967    0.00091     0.40058
      H   22    0.09874      0.00000     0.40043    0.00083     0.40126
      H   23    0.10882      0.00000     0.38965    0.00152     0.39118
      H   24    0.19855      0.00000     0.29748    0.00397     0.30145
      H   25    0.05821      0.00000     0.43395    0.00784     0.44179
 =======================================================================
   * Total *    0.00000     15.99492    32.84408    0.16100    49.00000

 Normal termination of Gaussian 16 at Wed Dec  9 18:27:56 2020.
