 Gaussian 16, Revision A.03,

 -----------------------------------------------------------
 # opt freq B3LYP/6-31G(d) empiricaldispersion=gd3bj scf=xqc
 -----------------------------------------------------------

 -------------------------------
 CID_101651555_JID_7181_neutraal
 -------------------------------
 Symbolic Z-matrix:
 Charge =  0 Multiplicity = 1

 SCF Done:  E(RB3LYP) =  -1022.41697081     A.U. after   14 cycles
 SCF Done:  E(RB3LYP) =  -1022.42011052     A.U. after   12 cycles
 SCF Done:  E(RB3LYP) =  -1022.42062319     A.U. after   12 cycles
 SCF Done:  E(RB3LYP) =  -1022.42071383     A.U. after   12 cycles
 SCF Done:  E(RB3LYP) =  -1022.42085507     A.U. after   11 cycles
 SCF Done:  E(RB3LYP) =  -1022.42088785     A.U. after   11 cycles
 SCF Done:  E(RB3LYP) =  -1022.42089883     A.U. after    9 cycles
 SCF Done:  E(RB3LYP) =  -1022.42090314     A.U. after    9 cycles
 SCF Done:  E(RB3LYP) =  -1022.42090846     A.U. after    9 cycles
 SCF Done:  E(RB3LYP) =  -1022.42090856     A.U. after    7 cycles
 SCF Done:  E(RB3LYP) =  -1022.42090850     A.U. after    6 cycles
 Optimization completed.
    -- Stationary point found.
 Normal termination of Gaussian 16 at Mon Dec 14 13:17:58 2020.

 --------------------------------------------------------------------
 #N Geom=AllCheck Guess=TCheck SCRF=Check GenChk RB3LYP/6-31G(d) Freq
 --------------------------------------------------------------------

 Structure from the checkpoint file:  "JID_7181.chk"
 -------------------------------
 CID_101651555_JID_7181_neutraal
 -------------------------------
 Charge =  0 Multiplicity = 1

 SCF Done:  E(RB3LYP) =  -1022.42090850     A.U. after    1 cycles

  Exact polarizability: 275.770  -9.433 144.451  -0.951 -16.042 150.201
 Approx polarizability: 342.534 -18.614 228.978   4.091 -40.909 246.892

                      1                      2                      3
                      A                      A                      A
 Frequencies --     16.7278                23.1331                37.5234
 Red. masses --      4.8602                 4.2720                 3.4851
 Frc consts  --      0.0008                 0.0013                 0.0029
 IR Inten    --      0.2889                 0.0287                 0.1111

                      4                      5                      6
                      A                      A                      A
 Frequencies --     40.7841                50.2279                67.2615
 Red. masses --      3.6625                 3.6627                 3.4731
 Frc consts  --      0.0036                 0.0054                 0.0093
 IR Inten    --      0.8508                 0.1226                 0.2527

                      7                      8                      9
                      A                      A                      A
 Frequencies --     83.2031               114.3456               121.5954
 Red. masses --      3.2535                 3.3207                 2.8665
 Frc consts  --      0.0133                 0.0256                 0.0250
 IR Inten    --      0.1134                 0.2600                 0.3659

                     10                     11                     12
                      A                      A                      A
 Frequencies --    174.6569               198.5521               210.2716
 Red. masses --      1.4638                 1.5272                 2.5388
 Frc consts  --      0.0263                 0.0355                 0.0661
 IR Inten    --      0.5053                 0.2602                 1.2403

                     13                     14                     15
                      A                      A                      A
 Frequencies --    224.6380               248.5541               290.6049
 Red. masses --      2.5514                 1.7330                 2.9249
 Frc consts  --      0.0759                 0.0631                 0.1455
 IR Inten    --      0.1492                 0.4834                 0.3076

                     16                     17                     18
                      A                      A                      A
 Frequencies --    308.2591               320.1180               348.0284
 Red. masses --      1.9799                 2.8272                 2.7571
 Frc consts  --      0.1108                 0.1707                 0.1968
 IR Inten    --      1.1046                 0.7516                 0.8829

                     19                     20                     21
                      A                      A                      A
 Frequencies --    374.0884               400.5165               415.7160
 Red. masses --      2.2507                 3.8581                 2.9549
 Frc consts  --      0.1856                 0.3646                 0.3009
 IR Inten    --      0.5701                 1.3582                 1.1908

                     22                     23                     24
                      A                      A                      A
 Frequencies --    425.4250               467.4260               487.6299
 Red. masses --      2.1538                 2.7520                 2.5962
 Frc consts  --      0.2297                 0.3543                 0.3637
 IR Inten    --      0.4663                 5.0222                 1.2938

                     25                     26                     27
                      A                      A                      A
 Frequencies --    518.5899               531.5028               566.0244
 Red. masses --      3.2091                 2.9758                 3.2660
 Frc consts  --      0.5085                 0.4953                 0.6165
 IR Inten    --      3.1196                 4.4275                 2.4816

                     28                     29                     30
                      A                      A                      A
 Frequencies --    630.1401               638.0511               706.2913
 Red. masses --      5.0920                 4.8354                 2.8555
 Frc consts  --      1.1913                 1.1598                 0.8393
 IR Inten    --      1.7562                 1.5676                 8.8438

                     31                     32                     33
                      A                      A                      A
 Frequencies --    712.6824               716.1212               745.7279
 Red. masses --      4.7275                 1.2648                 1.5473
 Frc consts  --      1.4147                 0.3822                 0.5070
 IR Inten    --     15.2784                24.4078                 0.6434

                     34                     35                     36
                      A                      A                      A
 Frequencies --    757.1449               805.5203               824.4493
 Red. masses --      1.5030                 1.6094                 2.3069
 Frc consts  --      0.5076                 0.6153                 0.9239
 IR Inten    --     39.2351                 4.4319                 0.9104

                     37                     38                     39
                      A                      A                      A
 Frequencies --    856.8697               871.9515               894.1572
 Red. masses --      1.2468                 1.5434                 1.4082
 Frc consts  --      0.5394                 0.6914                 0.6633
 IR Inten    --      0.0985                 6.1518                 6.5658

                     40                     41                     42
                      A                      A                      A
 Frequencies --    896.8798               918.0924               953.1295
 Red. masses --      1.8972                 1.3447                 1.6070
 Frc consts  --      0.8991                 0.6678                 0.8602
 IR Inten    --      1.8412                 1.5822                 1.5868

                     43                     44                     45
                      A                      A                      A
 Frequencies --    970.5321               972.2949               993.8357
 Red. masses --      1.3618                 1.9262                 1.5836
 Frc consts  --      0.7558                 1.0729                 0.9216
 IR Inten    --      0.0713                 1.0193                 0.4313

                     46                     47                     48
                      A                      A                      A
 Frequencies --    994.5956              1019.0507              1030.9151
 Red. masses --      1.2519                 6.2818                 1.6814
 Frc consts  --      0.7297                 3.8435                 1.0528
 IR Inten    --      0.2278                 3.0634                 2.7805

                     49                     50                     51
                      A                      A                      A
 Frequencies --   1051.4700              1055.1595              1064.1297
 Red. masses --      1.4698                 2.9329                 1.7004
 Frc consts  --      0.9574                 1.9239                 1.1344
 IR Inten    --      1.6279                11.6532                 0.1790

                     52                     53                     54
                      A                      A                      A
 Frequencies --   1082.1846              1089.6163              1107.1802
 Red. masses --      1.4357                 1.9280                 2.1066
 Frc consts  --      0.9906                 1.3486                 1.5215
 IR Inten    --      1.1496                11.0042                12.3698

                     55                     56                     57
                      A                      A                      A
 Frequencies --   1110.3162              1115.8976              1122.1376
 Red. masses --      1.6327                 2.3921                 2.3468
 Frc consts  --      1.1859                 1.7550                 1.7411
 IR Inten    --      3.9486                 5.3568                 4.8464

                     58                     59                     60
                      A                      A                      A
 Frequencies --   1146.4808              1164.7154              1193.6041
 Red. masses --      1.7999                 2.4667                 1.0963
 Frc consts  --      1.3939                 1.9715                 0.9202
 IR Inten    --      0.5540                 6.2873                 0.0985

                     61                     62                     63
                      A                      A                      A
 Frequencies --   1214.5914              1215.1083              1219.2484
 Red. masses --      1.1438                 1.2947                 1.5232
 Frc consts  --      0.9942                 1.1263                 1.3341
 IR Inten    --      0.7749                 1.2989                 4.5392

                     64                     65                     66
                      A                      A                      A
 Frequencies --   1269.4806              1295.4117              1324.4782
 Red. masses --      1.3023                 1.2756                 1.1727
 Frc consts  --      1.2365                 1.2612                 1.2121
 IR Inten    --      3.1436                 2.9567                 2.1162

                     67                     68                     69
                      A                      A                      A
 Frequencies --   1335.0718              1343.5209              1353.1232
 Red. masses --      2.6726                 1.2146                 1.1283
 Frc consts  --      2.8066                 1.2918                 1.2172
 IR Inten    --      1.8286                 7.9479                19.0854

                     70                     71                     72
                      A                      A                      A
 Frequencies --   1363.8571              1372.3648              1380.8034
 Red. masses --      1.9272                 1.4530                 1.3534
 Frc consts  --      2.1121                 1.6123                 1.5203
 IR Inten    --      0.8350                 3.6188                12.3452

                     73                     74                     75
                      A                      A                      A
 Frequencies --   1398.1282              1403.7029              1422.0422
 Red. masses --      1.4603                 1.3678                 1.4258
 Frc consts  --      1.6819                 1.5879                 1.6988
 IR Inten    --      3.4026                 0.4024                 1.5751

                     76                     77                     78
                      A                      A                      A
 Frequencies --   1424.4529              1440.5730              1443.7672
 Red. masses --      1.4273                 1.2406                 1.2720
 Frc consts  --      1.7063                 1.5169                 1.5621
 IR Inten    --      1.5059                 4.1008                 5.5783

                     79                     80                     81
                      A                      A                      A
 Frequencies --   1489.9086              1503.9205              1504.8311
 Red. masses --      2.1741                 1.0506                 1.0758
 Frc consts  --      2.8434                 1.4001                 1.4353
 IR Inten    --      5.7344                 5.2642                 2.0865

                     82                     83                     84
                      A                      A                      A
 Frequencies --   1515.3445              1517.3219              1523.1423
 Red. masses --      1.0923                 1.0880                 1.0658
 Frc consts  --      1.4777                 1.4758                 1.4568
 IR Inten    --      3.9376                 2.3869                 4.6111

                     85                     86                     87
                      A                      A                      A
 Frequencies --   1524.9171              1529.5334              1530.8530
 Red. masses --      1.0594                 1.9973                 1.0586
 Frc consts  --      1.4515                 2.7531                 1.4617
 IR Inten    --      3.7661                29.9143                 6.1310

                     88                     89                     90
                      A                      A                      A
 Frequencies --   1533.2211              1536.7722              1545.0399
 Red. masses --      1.0936                 1.0670                 1.0799
 Frc consts  --      1.5146                 1.4847                 1.5188
 IR Inten    --      5.8916                 3.9837                 1.9228

                     91                     92                     93
                      A                      A                      A
 Frequencies --   1636.5638              1648.5870              1714.8535
 Red. masses --      5.5229                 5.3876                 6.8246
 Frc consts  --      8.7154                 8.6272                11.8244
 IR Inten    --      1.7491                31.3450                 3.2161

                     94                     95                     96
                      A                      A                      A
 Frequencies --   3026.1185              3034.2485              3036.2006
 Red. masses --      1.0632                 1.0631                 1.0611
 Frc consts  --      5.7365                 5.7666                 5.7630
 IR Inten    --     19.2592                47.1595                24.5522

                     97                     98                     99
                      A                      A                      A
 Frequencies --   3039.5027              3043.6686              3045.3441
 Red. masses --      1.0614                 1.0583                 1.0460
 Frc consts  --      5.7774                 5.7762                 5.7153
 IR Inten    --      4.6046                 7.1580                16.4248

                    100                    101                    102
                      A                      A                      A
 Frequencies --   3047.8742              3049.6786              3058.2318
 Red. masses --      1.0357                 1.0628                 1.0967
 Frc consts  --      5.6686                 5.8239                 6.0436
 IR Inten    --     26.4943                12.0144                 8.0022

                    103                    104                    105
                      A                      A                      A
 Frequencies --   3065.0986              3072.7928              3078.1566
 Red. masses --      1.0989                 1.0984                 1.1009
 Frc consts  --      6.0829                 6.1103                 6.1461
 IR Inten    --     31.5048                72.8947               142.4731

                    106                    107                    108
                      A                      A                      A
 Frequencies --   3083.4002              3097.4387              3109.1434
 Red. masses --      1.1009                 1.1008                 1.1014
 Frc consts  --      6.1667                 6.2224                 6.2732
 IR Inten    --     69.7259                20.6979                47.7369

                    109                    110                    111
                      A                      A                      A
 Frequencies --   3109.7194              3116.9681              3123.7855
 Red. masses --      1.1006                 1.1019                 1.1027
 Frc consts  --      6.2708                 6.3073                 6.3397
 IR Inten    --     12.8685                52.8737                15.9596

                    112                    113                    114
                      A                      A                      A
 Frequencies --   3141.4393              3183.2805              3190.4147
 Red. masses --      1.0884                 1.0848                 1.0877
 Frc consts  --      6.3283                 6.4765                 6.5234
 IR Inten    --     31.0341                 1.9794                 5.8818

                    115                    116                    117
                      A                      A                      A
 Frequencies --   3201.1071              3206.1050              3213.4956
 Red. masses --      1.0911                 1.0940                 1.0981
 Frc consts  --      6.5874                 6.6256                 6.6808
 IR Inten    --     10.1397                24.1221                24.5082

 - Thermochemistry -
 -------------------
 Temperature   298.150 Kelvin.  Pressure   1.00000 Atm.
 Atom     1 has atomic number  6 and mass  12.00000

 Molecular mass:   248.15987 amu.
 Principal axes and moments of inertia in atomic units:
                           1         2         3
     Eigenvalues --  1349.56165********************
           X            0.99999   0.00380   0.00115
           Y           -0.00394   0.98409   0.17765
           Z           -0.00046  -0.17765   0.98409
 This molecule is an asymmetric top.
 Rotational symmetry number  1.
 Warning -- assumption of classical behavior for rotation
           may cause significant error
 Rotational temperatures (Kelvin)      0.06418     0.00620     0.00618
 Rotational constants (GHZ):           1.33728     0.12928     0.12884
 Zero-point vibrational energy     957757.1 (Joules/Mol)
                                  228.90943 (Kcal/Mol)
 Warning -- explicit consideration of  27 degrees of freedom as
           vibrations may cause significant error
 Vibrational temperatures:     24.07    33.28    53.99    58.68    72.27
          (Kelvin)             96.77   119.71   164.52   174.95   251.29
                              285.67   302.53   323.20   357.61   418.12
                              443.52   460.58   500.74   538.23   576.25
                              598.12   612.09   672.52   701.59   746.14
                              764.71   814.38   906.63   918.01  1016.20
                             1025.39  1030.34  1072.94  1089.36  1158.96
                             1186.20  1232.84  1254.54  1286.49  1290.41
                             1320.93  1371.34  1396.38  1398.92  1429.91
                             1431.00  1466.19  1483.26  1512.83  1518.14
                             1531.05  1557.02  1567.71  1592.99  1597.50
                             1605.53  1614.51  1649.53  1675.77  1717.33
                             1747.53  1748.27  1754.23  1826.50  1863.81
                             1905.63  1920.87  1933.03  1946.84  1962.29
                             1974.53  1986.67  2011.59  2019.62  2046.00
                             2049.47  2072.66  2077.26  2143.65  2163.81
                             2165.12  2180.24  2183.09  2191.46  2194.02
                             2200.66  2202.56  2205.96  2211.07  2222.97
                             2354.65  2371.95  2467.29  4353.91  4365.61
                             4368.42  4373.17  4379.16  4381.57  4385.21
                             4387.81  4400.11  4409.99  4421.06  4428.78
                             4436.33  4456.52  4473.36  4474.19  4484.62
                             4494.43  4519.83  4580.03  4590.30  4605.68
                             4612.87  4623.50

 Zero-point correction=                           0.364790 (Hartree/Particle)
 Thermal correction to Energy=                    0.383588
 Thermal correction to Enthalpy=                  0.384532
 Thermal correction to Gibbs Free Energy=         0.314583
 Sum of electronic and zero-point Energies=          -1022.056118
 Sum of electronic and thermal Energies=             -1022.037321
 Sum of electronic and thermal Enthalpies=           -1022.036377
 Sum of electronic and thermal Free Energies=        -1022.106325

                     E (Thermal)             CV                S
                      KCal/Mol        Cal/Mol-Kelvin    Cal/Mol-Kelvin
 Total                  240.705             70.271            147.219
 Electronic               0.000              0.000              0.000
 Translational            0.889              2.981             42.427
 Rotational               0.889              2.981             33.933
 Vibrational            238.927             64.309             70.858
 Vibration     1          0.593              1.986              6.989
 Vibration     2          0.593              1.985              6.345
 Vibration     3          0.594              1.982              5.386
 Vibration     4          0.594              1.981              5.221
 Vibration     5          0.595              1.978              4.808
 Vibration     6          0.598              1.970              4.232
 Vibration     7          0.600              1.961              3.814
 Vibration     8          0.607              1.938              3.194
 Vibration     9          0.609              1.931              3.075
 Vibration    10          0.627              1.874              2.385
 Vibration    11          0.637              1.842              2.146
 Vibration    12          0.642              1.825              2.041
 Vibration    13          0.649              1.804              1.921
 Vibration    14          0.662              1.765              1.741
 Vibration    15          0.687              1.691              1.470
 Vibration    16          0.698              1.658              1.372
 Vibration    17          0.706              1.635              1.310
 Vibration    18          0.726              1.579              1.175
 Vibration    19          0.745              1.525              1.063
 Vibration    20          0.766              1.469              0.961
 Vibration    21          0.779              1.436              0.907
 Vibration    22          0.787              1.415              0.874
 Vibration    23          0.825              1.322              0.745
 Vibration    24          0.844              1.277              0.690
 Vibration    25          0.874              1.209              0.613
 Vibration    26          0.886              1.180              0.584
 Vibration    27          0.922              1.105              0.512

 Optimization completed.
    -- Stationary point found.
 Normal termination of Gaussian 16 at Mon Dec 14 13:33:48 2020.

 ----------------------------------------------------------------------
 # B3LYP/6-311++G(d,p) empiricaldispersion=gd3bj scf=xqc pop=npa geom=c
 heck
 ----------------------------------------------------------------------

 ---------------------------------------
 CID_101651555_JID_7181_Energie_neutraal
 ---------------------------------------
 Structure from the checkpoint file:  "JID_7181.chk"
 Charge =  0 Multiplicity = 1

 SCF Done:  E(RB3LYP) =  -1022.61419725     A.U. after   16 cycles
 Normal termination of Gaussian 16 at Mon Dec 14 13:43:00 2020.

 ----------------------------------------------------------------------
 # B3LYP/6-311++G(d,p) empiricaldispersion=gd3bj scf=xqc pop=npa geom=c
 heck
 ----------------------------------------------------------------------

 -------------------------------------
 CID_101651555_JID_7181_Energie_kation
 -------------------------------------
 Structure from the checkpoint file:  "JID_7181.chk"
 Charge =  1 Multiplicity = 2

 SCF Done:  E(UB3LYP) =  -1022.33340678     A.U. after   23 cycles
 Normal termination of Gaussian 16 at Mon Dec 14 14:02:15 2020.
 Gaussian 16:  ES64L-G16RevA.03 25-Dec-2016

 ----------------------------------------------------------------------
 # B3LYP/6-311++G(d,p) empiricaldispersion=gd3bj scf=xqc pop=npa geom=c
 heck
 ----------------------------------------------------------------------

 ------------------------------------
 CID_101651555_JID_7181_Energie_anion
 ------------------------------------
 Structure from the checkpoint file:  "JID_7181.chk"
 Charge = -1 Multiplicity = 2

                         Standard orientation:
 ---------------------------------------------------------------------
 Center     Atomic      Atomic             Coordinates (Angstroms)
 Number     Number       Type             X           Y           Z
 ---------------------------------------------------------------------
      1          6           0       -6.809404   -0.334835    0.334958
      2          6           0       -5.734880   -0.946878   -0.568534
      3          6           0       -4.775887    0.084430   -1.182489
      4          6           0       -3.985656    0.924890   -0.166432
      5          6           0       -3.141657    0.114449    0.829725
      6          6           0       -2.117793   -0.835475    0.192439
      7          6           0       -1.097970   -0.150440   -0.742805
      8          6           0       -0.346574    0.969935   -0.081409
      9          6           0        0.818270    0.888728    0.580243
     10          6           0        1.485792    2.069551    1.234125
     11         16           0        1.600369   -0.707168    0.834068
     12          6           0        3.228968   -0.429157    0.144254
     13          6           0        3.414949    0.336612   -1.013203
     14          6           0        4.694798    0.499861   -1.540527
     15          6           0        5.791982   -0.117999   -0.937020
     16          6           0        5.602587   -0.893495    0.207567
     17          6           0        4.328690   -1.041542    0.755814
     18          1           0       -6.371683    0.144049    1.217835
     19          1           0       -7.510938   -1.098628    0.688492
     20          1           0       -7.387609    0.427466   -0.202080
     21          1           0       -5.163239   -1.692675   -0.000716
     22          1           0       -6.220843   -1.498073   -1.384281
     23          1           0       -4.075399   -0.437479   -1.847773
     24          1           0       -5.351571    0.765633   -1.824737
     25          1           0       -3.336163    1.616787   -0.719292
     26          1           0       -4.678067    1.560616    0.399925
     27          1           0       -2.614406    0.813186    1.492280
     28          1           0       -3.804814   -0.472097    1.478535
     29          1           0       -1.563456   -1.344026    0.991255
     30          1           0       -2.634919   -1.620742   -0.373812
     31          1           0       -0.389875   -0.907676   -1.095907
     32          1           0       -1.619303    0.244256   -1.623905
     33          1           0       -0.819278    1.952601   -0.106932
     34          1           0        1.522632    1.941480    2.322336
     35          1           0        2.518844    2.182936    0.887954
     36          1           0        0.943880    2.993832    1.007402
     37          1           0        2.557726    0.801755   -1.490588
     38          1           0        4.832492    1.102663   -2.434120
     39          1           0        6.786730    0.005488   -1.355043
     40          1           0        6.450980   -1.374020    0.687003
     41          1           0        4.185100   -1.624465    1.660831
 ---------------------------------------------------------------------

 SCF Done:  E(UB3LYP) =  -1022.60192467     A.U. after   33 cycles
 SCF Done:  E(UB3LYP) =  -1022.60192467     a.u. after    1 cycles

 The electronic state is 2-A.
 Alpha  occ. eigenvalues --  -88.76441 -10.12391 -10.11807 -10.09599 -10.09553
 Alpha  occ. eigenvalues --  -10.09519 -10.09468 -10.09177 -10.08944 -10.08560
 Alpha  occ. eigenvalues --  -10.08364 -10.08112 -10.07946 -10.07715 -10.07682
 Alpha  occ. eigenvalues --  -10.07660 -10.07324  -7.85072  -5.81456  -5.81074
 Alpha  occ. eigenvalues --   -5.80478  -0.78452  -0.74889  -0.72697  -0.69949
 Alpha  occ. eigenvalues --   -0.68068  -0.66856  -0.65120  -0.61510  -0.61278
 Alpha  occ. eigenvalues --   -0.58051  -0.54599  -0.52887  -0.51324  -0.49934
 Alpha  occ. eigenvalues --   -0.45924  -0.44430  -0.42042  -0.39774  -0.39229
 Alpha  occ. eigenvalues --   -0.37723  -0.37371  -0.36780  -0.36167  -0.34677
 Alpha  occ. eigenvalues --   -0.34219  -0.34037  -0.33605  -0.32039  -0.31753
 Alpha  occ. eigenvalues --   -0.30717  -0.29978  -0.29320  -0.29197  -0.27243
 Alpha  occ. eigenvalues --   -0.27211  -0.26681  -0.26238  -0.25672  -0.25383
 Alpha  occ. eigenvalues --   -0.23686  -0.23228  -0.22648  -0.22314  -0.20350
 Alpha  occ. eigenvalues --   -0.17707  -0.17085  -0.13228   0.03728
 Alpha virt. eigenvalues --    0.04846   0.05709   0.06080   0.06266   0.06474
 Alpha virt. eigenvalues --    0.06774   0.06876   0.07769   0.07990   0.08080
 Alpha virt. eigenvalues --    0.08665   0.09364   0.09677   0.09871   0.10046

  Beta  occ. eigenvalues --  -88.76437 -10.12386 -10.11791 -10.09587 -10.09540
  Beta  occ. eigenvalues --  -10.09505 -10.09461 -10.09161 -10.08909 -10.08546
  Beta  occ. eigenvalues --  -10.08361 -10.08105 -10.07931 -10.07701 -10.07670
  Beta  occ. eigenvalues --  -10.07647 -10.07296  -7.85068  -5.81442  -5.81072
  Beta  occ. eigenvalues --   -5.80476  -0.78427  -0.74847  -0.72670  -0.69918
  Beta  occ. eigenvalues --   -0.68038  -0.66825  -0.65086  -0.61477  -0.61236
  Beta  occ. eigenvalues --   -0.58009  -0.54559  -0.52850  -0.51278  -0.49893
  Beta  occ. eigenvalues --   -0.45873  -0.44377  -0.41990  -0.39748  -0.39199
  Beta  occ. eigenvalues --   -0.37694  -0.37331  -0.36746  -0.36136  -0.34641
  Beta  occ. eigenvalues --   -0.34191  -0.34003  -0.33571  -0.32010  -0.31715
  Beta  occ. eigenvalues --   -0.30692  -0.29952  -0.29298  -0.29168  -0.27218
  Beta  occ. eigenvalues --   -0.27179  -0.26646  -0.26204  -0.25638  -0.25358
  Beta  occ. eigenvalues --   -0.23653  -0.23207  -0.22617  -0.22285  -0.20326
  Beta  occ. eigenvalues --   -0.17687  -0.16999  -0.13190
  Beta virt. eigenvalues --    0.05439   0.05707   0.05904   0.06238   0.06666
  Beta virt. eigenvalues --    0.06805   0.07031   0.07326   0.08026   0.08202
  Beta virt. eigenvalues --    0.08438   0.08901   0.09551   0.09852   0.10045

 Mulliken charges and spin densities:
               1          2
     1  C    0.594174  -1.227734
     2  C   -0.411406   0.205173
     3  C   -0.128013  -0.091908
     4  C    0.231763  -0.456488
     5  C   -0.107631  -0.209065
     6  C    0.057769  -0.251597
     7  C   -0.539213   0.063566
     8  C   -1.005269   0.119041
     9  C    0.827067   0.389553
    10  C    0.457803  -1.050750
    11  S    0.314197  -1.090004
    12  C    0.697157   0.130633
    13  C   -0.262710  -0.098760
    14  C   -0.518917   0.198098
    15  C    1.498108  -1.888146
    16  C    0.420275  -0.640303
    17  C   -1.600520   1.473449
    18  H   -0.032723   0.167362
    19  H   -0.200941   0.337506
    20  H   -0.067736   0.205031
    21  H    0.085247   0.038829
    22  H   -0.244357   0.394916
    23  H   -0.006562   0.148340
    24  H   -0.204996   0.360507
    25  H    0.031304   0.100314
    26  H   -0.097463   0.262856
    27  H    0.211978  -0.049333
    28  H   -0.048006   0.220721
    29  H    0.158706   0.002100
    30  H    0.057125   0.084067
    31  H    0.019771   0.151294
    32  H    0.007413   0.166009
    33  H   -0.061347   0.300144
    34  H    0.022666   0.150034
    35  H    0.185127  -0.027653
    36  H   -0.080258   0.207571
    37  H    0.270022  -0.049118
    38  H   -0.501318   0.696620
    39  H   -0.416283   0.580056
    40  H   -0.503077   0.686345
    41  H   -0.108927   0.290724
 Sum of Mulliken charges =  -1.00000   1.00000

 Dipole moment (field-independent basis, Debye):
    X=             -0.8607    Y=              0.2427    Z=              1.4648  Tot=              1.7162
 Quadrupole moment (field-independent basis, Debye-Ang):
   XX=           -293.9621   YY=           -149.1902   ZZ=           -151.0758
   XY=              0.9338   XZ=              3.2683   YZ=              0.9784

 Summary of Natural Population Analysis:

                                       Natural Population
                Natural  -----------------------------------------------
    Atom  No    Charge         Core      Valence    Rydberg      Total
 -----------------------------------------------------------------------
      C    1   -0.28610      0.99967     2.28194    0.00450     3.28610
      C    2   -0.19372      0.99964     2.18526    0.00882     3.19372
      C    3   -0.19162      0.99963     2.18287    0.00913     3.19162
      C    4   -0.19408      0.99963     2.18520    0.00926     3.19408
      C    5   -0.19346      0.99962     2.18659    0.00724     3.19346
      C    6   -0.18477      0.99962     2.17806    0.00709     3.18477
      C    7   -0.21261      0.99961     2.20477    0.00824     3.21261
      C    8   -0.08556      0.99942     2.07448    0.01166     3.08556
      C    9   -0.08814      0.99941     2.07444    0.01429     3.08814
      C   10   -0.29840      0.99960     2.29329    0.00551     3.29840
      S   11    0.13152      4.99945     2.84972    0.01932     7.86848
      C   12   -0.08803      0.99940     2.07581    0.01281     3.08803
      C   13   -0.11231      0.99949     2.10243    0.01039     3.11231
      C   14   -0.09529      0.99956     2.08498    0.01075     3.09529
      C   15   -0.10470      0.99956     2.09495    0.01019     3.10470
      C   16   -0.09604      0.99956     2.08600    0.01048     3.09604
      C   17   -0.10861      0.99949     2.09773    0.01139     3.10861
      H   18    0.09580      0.00000     0.40305    0.00115     0.40420
      H   19    0.09856      0.00000     0.40035    0.00109     0.40144
      H   20    0.09577      0.00000     0.40292    0.00132     0.40423
      H   21    0.09312      0.00000     0.40572    0.00117     0.40688
      H   22    0.09609      0.00000     0.40282    0.00110     0.40391
      H   23    0.09551      0.00000     0.40325    0.00124     0.40449
      H   24    0.09639      0.00000     0.40254    0.00107     0.40361
      H   25    0.09605      0.00000     0.40269    0.00126     0.40395
      H   26    0.09742      0.00000     0.40148    0.00110     0.40258
      H   27    0.09948      0.00000     0.39945    0.00107     0.40052
      H   28    0.09681      0.00000     0.40211    0.00108     0.40319
      H   29    0.09855      0.00000     0.40033    0.00112     0.40145
      H   30    0.09561      0.00000     0.40320    0.00119     0.40439
      H   31    0.11006      0.00000     0.38858    0.00136     0.38994
      H   32    0.10041      0.00000     0.39837    0.00123     0.39959
      H   33    0.09720      0.00000     0.40155    0.00125     0.40280
      H   34    0.10535      0.00000     0.39348    0.00117     0.39465
      H   35    0.10737      0.00000     0.39140    0.00123     0.39263
      H   36    0.10293      0.00000     0.39592    0.00115     0.39707
      H   37    0.10783      0.00000     0.39067    0.00151     0.39217
      H   38    0.10310      0.00000     0.39575    0.00115     0.39690
      H   39    0.10405      0.00000     0.39413    0.00182     0.39595
      H   40    0.10333      0.00000     0.39530    0.00137     0.39667
      H   41    0.10515      0.00000     0.39372    0.00113     0.39485
 =======================================================================
   * Total *    0.00000     20.99236    46.80728    0.20036    68.00000

 Normal termination of Gaussian 16 at Mon Dec 14 14:28:25 2020.
