 Gaussian 16, Revision A.03,

 -----------------------------------------------------------
 # opt freq B3LYP/6-31G(d) empiricaldispersion=gd3bj scf=xqc
 -----------------------------------------------------------

 -------------------------------
 CID_143172337_JID_2531_neutraal
 -------------------------------
 Symbolic Z-matrix:
 Charge =  0 Multiplicity = 1

 SCF Done:  E(RB3LYP) =  -574.432153016     A.U. after   14 cycles
 SCF Done:  E(RB3LYP) =  -574.434421362     A.U. after   12 cycles
 SCF Done:  E(RB3LYP) =  -574.435047768     A.U. after   12 cycles
 SCF Done:  E(RB3LYP) =  -574.436042871     A.U. after   14 cycles
 SCF Done:  E(RB3LYP) =  -574.436448105     A.U. after   12 cycles
 SCF Done:  E(RB3LYP) =  -574.436556727     A.U. after   10 cycles
 SCF Done:  E(RB3LYP) =  -574.436598533     A.U. after   12 cycles
 SCF Done:  E(RB3LYP) =  -574.436617826     A.U. after   11 cycles
 SCF Done:  E(RB3LYP) =  -574.436628249     A.U. after   10 cycles
 SCF Done:  E(RB3LYP) =  -574.436631681     A.U. after   10 cycles
 SCF Done:  E(RB3LYP) =  -574.436649371     A.U. after   10 cycles
 SCF Done:  E(RB3LYP) =  -574.436653508     A.U. after   10 cycles
 SCF Done:  E(RB3LYP) =  -574.436654556     A.U. after    9 cycles
 SCF Done:  E(RB3LYP) =  -574.436654949     A.U. after    8 cycles
 SCF Done:  E(RB3LYP) =  -574.436654711     A.U. after    7 cycles
 SCF Done:  E(RB3LYP) =  -574.436655057     A.U. after    8 cycles
 Optimization completed.
    -- Stationary point found.
 Normal termination of Gaussian 16 at Wed Dec  9 17:37:14 2020.

 --------------------------------------------------------------------
 #N Geom=AllCheck Guess=TCheck SCRF=Check GenChk RB3LYP/6-31G(d) Freq
 --------------------------------------------------------------------

 Structure from the checkpoint file:  "JID_2531.chk"
 -------------------------------
 CID_143172337_JID_2531_neutraal
 -------------------------------
 Charge =  0 Multiplicity = 1

 SCF Done:  E(RB3LYP) =  -574.436655057     A.U. after    1 cycles

  Exact polarizability: 112.438  -0.356  95.443   3.712   2.404  92.831
 Approx polarizability: 137.333   2.094 133.880   4.002  -0.473 152.643

                      1                      2                      3
                      A                      A                      A
 Frequencies --     32.7610                55.7960                80.6132
 Red. masses --      5.9867                 3.5098                 3.4306
 Frc consts  --      0.0038                 0.0064                 0.0131
 IR Inten    --      3.7954                 1.3690                 3.8438

                      4                      5                      6
                      A                      A                      A
 Frequencies --    114.5228               151.2632               174.3491
 Red. masses --      1.3151                 3.1364                 2.6026
 Frc consts  --      0.0102                 0.0423                 0.0466
 IR Inten    --    194.7502                 8.8914                 3.0887

                      7                      8                      9
                      A                      A                      A
 Frequencies --    233.4163               248.8763               291.6499
 Red. masses --      3.8994                 2.2835                 1.0496
 Frc consts  --      0.1252                 0.0833                 0.0526
 IR Inten    --      1.7816                 1.5396                11.8318

                     10                     11                     12
                      A                      A                      A
 Frequencies --    305.7142               335.6282               348.3574
 Red. masses --      2.3750                 3.0107                 3.7293
 Frc consts  --      0.1308                 0.1998                 0.2666
 IR Inten    --      1.4865                 5.2689                14.3601

                     13                     14                     15
                      A                      A                      A
 Frequencies --    369.8969               428.3560               475.2676
 Red. masses --      3.5048                 2.4295                 2.8739
 Frc consts  --      0.2825                 0.2627                 0.3825
 IR Inten    --      1.2136                10.8468                 2.3882

                     16                     17                     18
                      A                      A                      A
 Frequencies --    495.7382               520.0380               580.3850
 Red. masses --      2.3967                 2.7838                 2.9444
 Frc consts  --      0.3470                 0.4436                 0.5844
 IR Inten    --      7.8025                 7.8557                 9.0952

                     19                     20                     21
                      A                      A                      A
 Frequencies --    596.4711               634.3775               755.2991
 Red. masses --      2.1846                 1.4195                 2.9559
 Frc consts  --      0.4579                 0.3366                 0.9935
 IR Inten    --      4.8211                12.3981                 7.7199

                     22                     23                     24
                      A                      A                      A
 Frequencies --    772.4467               809.2723               831.8672
 Red. masses --      2.0846                 2.9685                 3.3079
 Frc consts  --      0.7328                 1.1455                 1.3487
 IR Inten    --      3.7752                 5.4222                18.4157

                     25                     26                     27
                      A                      A                      A
 Frequencies --    874.7386               897.4021               919.8937
 Red. masses --      2.0397                 1.9705                 2.2640
 Frc consts  --      0.9195                 0.9350                 1.1287
 IR Inten    --      1.1503                 0.5317                10.6495

                     28                     29                     30
                      A                      A                      A
 Frequencies --    944.0438               977.8581              1024.4202
 Red. masses --      2.2335                 1.7358                 2.2841
 Frc consts  --      1.1728                 0.9779                 1.4123
 IR Inten    --     11.8521                38.7031                24.1434

                     31                     32                     33
                      A                      A                      A
 Frequencies --   1053.6392              1064.6588              1071.0558
 Red. masses --      1.6342                 1.7451                 2.0121
 Frc consts  --      1.0689                 1.1654                 1.3600
 IR Inten    --      9.1181                15.2297                 3.8021

                     34                     35                     36
                      A                      A                      A
 Frequencies --   1090.1721              1094.3813              1128.5162
 Red. masses --      2.0053                 1.9850                 3.4144
 Frc consts  --      1.4042                 1.4007                 2.5620
 IR Inten    --      4.3400                 6.9597                24.5380

                     37                     38                     39
                      A                      A                      A
 Frequencies --   1143.7444              1164.5117              1194.9320
 Red. masses --      1.9356                 2.6141                 2.3279
 Frc consts  --      1.4918                 2.0887                 1.9584
 IR Inten    --      4.1192                11.0437                 8.3763

                     40                     41                     42
                      A                      A                      A
 Frequencies --   1250.1349              1265.8508              1298.6533
 Red. masses --      1.3512                 1.2523                 1.1851
 Frc consts  --      1.2442                 1.1823                 1.1776
 IR Inten    --      0.5019                 0.3575                 3.1313

                     43                     44                     45
                      A                      A                      A
 Frequencies --   1312.1387              1325.6601              1335.6653
 Red. masses --      1.2274                 1.3574                 1.1490
 Frc consts  --      1.2450                 1.4055                 1.2077
 IR Inten    --      3.8372                 1.9487                 1.6795

                     46                     47                     48
                      A                      A                      A
 Frequencies --   1357.6190              1374.7515              1383.0580
 Red. masses --      1.9837                 1.2952                 1.9807
 Frc consts  --      2.1542                 1.4422                 2.2323
 IR Inten    --     79.7704                 2.5749                45.9118

                     49                     50                     51
                      A                      A                      A
 Frequencies --   1405.8612              1416.7584              1428.8228
 Red. masses --      1.3881                 1.2515                 1.4261
 Frc consts  --      1.6164                 1.4800                 1.7154
 IR Inten    --      0.6977                 7.5398                 1.1495

                     52                     53                     54
                      A                      A                      A
 Frequencies --   1436.7354              1444.1790              1488.4706
 Red. masses --      1.3611                 1.2657                 1.1662
 Frc consts  --      1.6553                 1.5553                 1.5223
 IR Inten    --      7.9716                12.2309                 3.5621

                     55                     56                     57
                      A                      A                      A
 Frequencies --   1505.4660              1514.6310              1520.6775
 Red. masses --      1.1185                 1.0828                 1.1064
 Frc consts  --      1.4936                 1.4636                 1.5074
 IR Inten    --      0.4252                 4.7023                 4.2028

                     58                     59                     60
                      A                      A                      A
 Frequencies --   1527.9282              1540.2156              1543.8089
 Red. masses --      1.0972                 1.0447                 1.0643
 Frc consts  --      1.5092                 1.4601                 1.4945
 IR Inten    --      1.4827                 6.6528                12.2712

                     61                     62                     63
                      A                      A                      A
 Frequencies --   1642.8866              1792.7715              3007.0777
 Red. masses --      1.2603                 8.8994                 1.0620
 Frc consts  --      2.0042                16.8523                 5.6580
 IR Inten    --    118.1035               250.7764                48.7712

                     64                     65                     66
                      A                      A                      A
 Frequencies --   3024.2165              3034.1913              3039.0023
 Red. masses --      1.0643                 1.0823                 1.0617
 Frc consts  --      5.7351                 5.8707                 5.7771
 IR Inten    --     67.3663                12.6303                28.4477

                     67                     68                     69
                      A                      A                      A
 Frequencies --   3050.5722              3054.2613              3060.3095
 Red. masses --      1.0610                 1.0449                 1.0923
 Frc consts  --      5.8176                 5.7428                 6.0274
 IR Inten    --     43.3558                21.2015                19.2272

                     70                     71                     72
                      A                      A                      A
 Frequencies --   3073.9428              3079.9525              3087.0290
 Red. masses --      1.0958                 1.0971                 1.0963
 Frc consts  --      6.1005                 6.1320                 6.1552
 IR Inten    --     22.0381                17.4603                17.7567

                     73                     74                     75
                      A                      A                      A
 Frequencies --   3105.2417              3115.0433              3131.4671
 Red. masses --      1.0998                 1.1024                 1.0990
 Frc consts  --      6.2481                 6.3023                 6.3497
 IR Inten    --     56.6116                35.6143                23.8673

                     76                     77                     78
                      A                      A                      A
 Frequencies --   3470.3785              3604.5006              3735.0698
 Red. masses --      1.0761                 1.0455                 1.1040
 Frc consts  --      7.6357                 8.0036                 9.0744
 IR Inten    --      2.1455                30.6347                34.6185

 - Thermochemistry -
 -------------------
 Temperature   298.150 Kelvin.  Pressure   1.00000 Atm.
 Atom     1 has atomic number  6 and mass  12.00000

 Molecular mass:   172.12118 amu.
 Principal axes and moments of inertia in atomic units:
                           1         2         3
     Eigenvalues --  1047.801853362.763493594.45770
           X            0.99969  -0.01792   0.01706
           Y            0.01748   0.99951   0.02583
           Z           -0.01751  -0.02552   0.99952
 This molecule is an asymmetric top.
 Rotational symmetry number  1.
 Warning -- assumption of classical behavior for rotation
           may cause significant error
 Rotational temperatures (Kelvin)      0.08266     0.02576     0.02410
 Rotational constants (GHZ):           1.72241     0.53668     0.50209
 Zero-point vibrational energy     652391.4 (Joules/Mol)
                                  155.92530 (Kcal/Mol)
 Warning -- explicit consideration of  19 degrees of freedom as
           vibrations may cause significant error
 Vibrational temperatures:     47.14    80.28   115.98   164.77   217.63
          (Kelvin)            250.85   335.83   358.08   419.62   439.85
                              482.89   501.21   532.20   616.31   683.80
                              713.26   748.22   835.04   858.19   912.73
                             1086.71  1111.38  1164.36  1196.87  1258.55
                             1291.16  1323.52  1358.27  1406.92  1473.91
                             1515.95  1531.81  1541.01  1568.51  1574.57
                             1623.68  1645.59  1675.47  1719.24  1798.67
                             1821.28  1868.47  1887.87  1907.33  1921.72
                             1953.31  1977.96  1989.91  2022.72  2038.40
                             2055.76  2067.14  2077.85  2141.58  2166.03
                             2179.22  2187.92  2198.35  2216.03  2221.20
                             2363.75  2579.40  4326.51  4351.17  4365.52
                             4372.45  4389.09  4394.40  4403.10  4422.72
                             4431.36  4441.55  4467.75  4481.85  4505.48
                             4993.10  5186.07  5373.93

 Zero-point correction=                           0.248483 (Hartree/Particle)
 Thermal correction to Energy=                    0.261081
 Thermal correction to Enthalpy=                  0.262025
 Thermal correction to Gibbs Free Energy=         0.209155
 Sum of electronic and zero-point Energies=           -574.188172
 Sum of electronic and thermal Energies=              -574.175574
 Sum of electronic and thermal Enthalpies=            -574.174630
 Sum of electronic and thermal Free Energies=         -574.227500

                     E (Thermal)             CV                S
                      KCal/Mol        Cal/Mol-Kelvin    Cal/Mol-Kelvin
 Total                  163.831             47.583            111.274
 Electronic               0.000              0.000              0.000
 Translational            0.889              2.981             41.337
 Rotational               0.889              2.981             30.916
 Vibrational            162.053             41.622             39.021
 Vibration     1          0.594              1.983              5.655
 Vibration     2          0.596              1.975              4.601
 Vibration     3          0.600              1.962              3.876
 Vibration     4          0.607              1.937              3.191
 Vibration     5          0.619              1.901              2.656
 Vibration     6          0.627              1.874              2.388
 Vibration     7          0.654              1.790              1.853
 Vibration     8          0.662              1.765              1.739
 Vibration     9          0.687              1.689              1.464
 Vibration    10          0.696              1.663              1.385
 Vibration    11          0.717              1.604              1.233
 Vibration    12          0.726              1.579              1.174
 Vibration    13          0.742              1.534              1.080
 Vibration    14          0.790              1.409              0.864
 Vibration    15          0.832              1.305              0.723
 Vibration    16          0.851              1.259              0.669
 Vibration    17          0.875              1.206              0.610
 Vibration    18          0.937              1.074              0.485
 Vibration    19          0.954              1.039              0.456

 Optimization completed.
    -- Stationary point found.
 Normal termination of Gaussian 16 at Wed Dec  9 17:45:21 2020.

 ----------------------------------------------------------------------
 # B3LYP/6-311++G(d,p) empiricaldispersion=gd3bj scf=xqc pop=npa geom=c
 heck
 ----------------------------------------------------------------------

 ---------------------------------------
 CID_143172337_JID_2531_Energie_neutraal
 ---------------------------------------
 Structure from the checkpoint file:  "JID_2531.chk"
 Charge =  0 Multiplicity = 1

 SCF Done:  E(RB3LYP) =  -574.614688394     A.U. after   15 cycles
 Normal termination of Gaussian 16 at Wed Dec  9 17:49:21 2020.

 ----------------------------------------------------------------------
 # B3LYP/6-311++G(d,p) empiricaldispersion=gd3bj scf=xqc pop=npa geom=c
 heck
 ----------------------------------------------------------------------

 -------------------------------------
 CID_143172337_JID_2531_Energie_kation
 -------------------------------------
 Structure from the checkpoint file:  "JID_2531.chk"
 Charge =  1 Multiplicity = 2

 SCF Done:  E(UB3LYP) =  -574.296960282     A.U. after   29 cycles
 Normal termination of Gaussian 16 at Wed Dec  9 17:59:13 2020.
 Gaussian 16:  ES64L-G16RevA.03 25-Dec-2016

 ----------------------------------------------------------------------
 # B3LYP/6-311++G(d,p) empiricaldispersion=gd3bj scf=xqc pop=npa geom=c
 heck
 ----------------------------------------------------------------------

 ------------------------------------
 CID_143172337_JID_2531_Energie_anion
 ------------------------------------
 Structure from the checkpoint file:  "JID_2531.chk"
 Charge = -1 Multiplicity = 2

                         Standard orientation:
 ---------------------------------------------------------------------
 Center     Atomic      Atomic             Coordinates (Angstroms)
 Number     Number       Type             X           Y           Z
 ---------------------------------------------------------------------
      1          6           0        1.566469   -1.447554    1.286913
      2          6           0        1.436975   -0.801018   -0.098877
      3          6           0        0.027893   -0.226903   -0.408426
      4          6           0       -0.407417    0.835940    0.621893
      5          6           0       -1.621772    1.662969    0.165452
      6          6           0       -2.966856    0.975522    0.434141
      7          8           0       -2.904790   -0.445013    0.357204
      8          7           0       -2.324110   -0.829329   -0.908985
      9          6           0       -0.989566   -1.357208   -0.603373
     10          6           0        2.474790    0.288447   -0.412734
     11          8           0        2.522449    0.817757   -1.515294
     12          7           0        3.339965    0.635684    0.585632
     13          1           0        1.395468   -0.728253    2.095812
     14          1           0        2.557446   -1.894711    1.423928
     15          1           0        0.832063   -2.247978    1.413156
     16          1           0        1.635607   -1.575453   -0.852751
     17          1           0        0.124829    0.282235   -1.373647
     18          1           0        0.437972    1.517554    0.779071
     19          1           0       -0.621402    0.368338    1.591356
     20          1           0       -1.629953    2.632831    0.679693
     21          1           0       -1.521436    1.876993   -0.903685
     22          1           0       -3.293543    1.152252    1.465611
     23          1           0       -3.739896    1.364202   -0.244108
     24          1           0       -2.920778   -1.608928   -1.185920
     25          1           0       -0.685424   -1.968665   -1.463770
     26          1           0       -1.033755   -2.012285    0.279850
     27          1           0        3.284725    0.260567    1.518219
     28          1           0        4.002717    1.373704    0.395447
 ---------------------------------------------------------------------

 SCF Done:  E(UB3LYP) =  -574.603579529     A.U. after   32 cycles

 The electronic state is 2-A.
 Alpha  occ. eigenvalues --  -19.05167 -18.97969 -14.25519 -14.22352 -10.16648
 Alpha  occ. eigenvalues --  -10.12011 -10.09490 -10.08190 -10.07271 -10.06985
 Alpha  occ. eigenvalues --  -10.06453 -10.05959  -0.97159  -0.93107  -0.79674
 Alpha  occ. eigenvalues --   -0.76305  -0.72063  -0.66973  -0.60547  -0.58509
 Alpha  occ. eigenvalues --   -0.55179  -0.49193  -0.48545  -0.45278  -0.43609
 Alpha  occ. eigenvalues --   -0.41088  -0.39956  -0.37454  -0.36674  -0.35141
 Alpha  occ. eigenvalues --   -0.34278  -0.33609  -0.31416  -0.31034  -0.29010
 Alpha  occ. eigenvalues --   -0.28751  -0.27802  -0.27432  -0.26110  -0.24574
 Alpha  occ. eigenvalues --   -0.22482  -0.22054  -0.21726  -0.17713  -0.16606
 Alpha  occ. eigenvalues --   -0.15307  -0.14954   0.04404
 Alpha virt. eigenvalues --    0.06419   0.07088   0.08281   0.09070   0.09382
 Alpha virt. eigenvalues --    0.09989   0.10572   0.11233   0.11903   0.11949
 Alpha virt. eigenvalues --    0.12340   0.13105   0.13942   0.14475   0.15176

  Beta  occ. eigenvalues --  -19.05162 -18.97959 -14.25500 -14.22283 -10.16643
  Beta  occ. eigenvalues --  -10.12004 -10.09470 -10.08177 -10.07271 -10.06979
  Beta  occ. eigenvalues --  -10.06435 -10.05907  -0.97147  -0.93087  -0.79580
  Beta  occ. eigenvalues --   -0.76280  -0.72035  -0.66937  -0.60500  -0.58474
  Beta  occ. eigenvalues --   -0.55097  -0.49123  -0.48495  -0.45210  -0.43549
  Beta  occ. eigenvalues --   -0.41047  -0.39923  -0.37431  -0.36635  -0.35100
  Beta  occ. eigenvalues --   -0.34238  -0.33587  -0.31382  -0.31002  -0.28969
  Beta  occ. eigenvalues --   -0.28724  -0.27772  -0.27397  -0.26069  -0.24553
  Beta  occ. eigenvalues --   -0.22456  -0.22031  -0.21695  -0.17696  -0.16552
  Beta  occ. eigenvalues --   -0.15267  -0.14907
  Beta virt. eigenvalues --    0.06648   0.07527   0.07849   0.08883   0.09585
  Beta virt. eigenvalues --    0.09767   0.10294   0.11279   0.11606   0.12151
  Beta virt. eigenvalues --    0.12342   0.12604   0.13767   0.14132   0.14607

 Mulliken charges and spin densities:
               1          2
     1  C    2.693930  -3.426543
     2  C   -0.688768   1.068491
     3  C   -0.119254   0.202916
     4  C   -0.847297   0.453926
     5  C   -0.212344   0.002608
     6  C    0.156162  -0.582886
     7  O   -0.053142   0.033191
     8  N   -0.355780   0.059663
     9  C    0.715938  -1.283905
    10  C   -0.029170  -0.213394
    11  O   -0.335166  -0.000131
    12  N   -0.367461   0.020271
    13  H   -0.406934   0.595688
    14  H   -0.570786   0.745304
    15  H   -0.032963   0.164178
    16  H    0.000493   0.229433
    17  H    0.427116  -0.184949
    18  H   -0.247923   0.450790
    19  H    0.063152   0.109160
    20  H   -0.004629   0.142945
    21  H    0.069177   0.097443
    22  H   -0.061642   0.216799
    23  H    0.095093   0.025946
    24  H    0.084335   0.208074
    25  H   -0.337248   0.488800
    26  H    0.034998   0.135177
    27  H   -0.397513   0.670090
    28  H   -0.272376   0.570914
 Sum of Mulliken charges =  -1.00000   1.00000

 Dipole moment (field-independent basis, Debye):
    X=             -6.6123    Y=              0.8300    Z=             -2.8714  Tot=              7.2565
 Quadrupole moment (field-independent basis, Debye-Ang):
   XX=           -140.9822   YY=           -109.1171   ZZ=           -116.7584
   XY=             -5.3081   XZ=             -9.6130   YZ=              2.0671

 Summary of Natural Population Analysis:

                                       Natural Population
                Natural  -----------------------------------------------
    Atom  No    Charge         Core      Valence    Rydberg      Total
 -----------------------------------------------------------------------
      C    1   -0.29738      0.99965     2.29093    0.00680     3.29738
      C    2   -0.14494      0.99954     2.13333    0.01208     3.14494
      C    3   -0.11184      0.99957     2.10030    0.01198     3.11184
      C    4   -0.19642      0.99960     2.18672    0.01009     3.19642
      C    5   -0.20616      0.99963     2.19805    0.00848     3.20616
      C    6   -0.00252      0.99959     1.99118    0.01175     3.00252
      O    7   -0.23818      0.99990     3.22822    0.01006     4.23818
      N    8   -0.18035      0.99973     2.66789    0.01273     3.68035
      C    9   -0.09280      0.99959     2.08109    0.01213     3.09280
      C   10    0.34431      0.99966     1.63169    0.02434     2.65569
      O   11   -0.33108      0.99988     3.32545    0.00575     4.33108
      N   12   -0.39954      0.99970     2.89112    0.00871     3.89954
      H   13    0.10187      0.00000     0.39597    0.00215     0.39813
      H   14    0.10594      0.00000     0.39225    0.00180     0.39406
      H   15    0.10446      0.00000     0.39418    0.00136     0.39554
      H   16    0.10874      0.00000     0.38954    0.00172     0.39126
      H   17    0.10919      0.00000     0.38876    0.00205     0.39081
      H   18    0.10460      0.00000     0.39392    0.00148     0.39540
      H   19    0.09963      0.00000     0.39876    0.00161     0.40037
      H   20    0.10022      0.00000     0.39886    0.00091     0.39978
      H   21    0.09927      0.00000     0.39917    0.00156     0.40073
      H   22    0.08721      0.00000     0.41139    0.00140     0.41279
      H   23    0.07856      0.00000     0.42013    0.00131     0.42144
      H   24    0.17078      0.00000     0.32681    0.00241     0.32922
      H   25    0.09690      0.00000     0.40177    0.00133     0.40310
      H   26    0.08902      0.00000     0.40918    0.00180     0.41098
      H   27    0.20342      0.00000     0.28493    0.01165     0.29658
      H   28    0.19710      0.00000     0.29984    0.00306     0.30290
 =======================================================================
   * Total *   -0.00000     11.99603    34.83145    0.17252    47.00000

 Normal termination of Gaussian 16 at Wed Dec  9 18:10:06 2020.
