 Gaussian 16, Revision A.03,

 -----------------------------------------------------------
 # opt freq B3LYP/6-31G(d) empiricaldispersion=gd3bj scf=xqc
 -----------------------------------------------------------

 ------------------------------
 CID_58182943_JID_6300_neutraal
 ------------------------------
 Symbolic Z-matrix:
 Charge =  0 Multiplicity = 1

 SCF Done:  E(RB3LYP) =  -746.816749349     A.U. after   15 cycles
 SCF Done:  E(RB3LYP) =  -746.821084901     A.U. after   12 cycles
 SCF Done:  E(RB3LYP) =  -746.821111300     A.U. after   12 cycles
 SCF Done:  E(RB3LYP) =  -746.821522934     A.U. after   12 cycles
 SCF Done:  E(RB3LYP) =  -746.821823482     A.U. after   11 cycles
 SCF Done:  E(RB3LYP) =  -746.821906532     A.U. after   11 cycles
 SCF Done:  E(RB3LYP) =  -746.821953982     A.U. after   11 cycles
 SCF Done:  E(RB3LYP) =  -746.821983790     A.U. after   11 cycles
 SCF Done:  E(RB3LYP) =  -746.822002321     A.U. after   10 cycles
 SCF Done:  E(RB3LYP) =  -746.822015168     A.U. after   10 cycles
 SCF Done:  E(RB3LYP) =  -746.826460405     A.U. after    8 cycles
 SCF Done:  E(RB3LYP) =  -746.826460658     A.U. after    8 cycles
 SCF Done:  E(RB3LYP) =  -746.826460858     A.U. after    8 cycles
 SCF Done:  E(RB3LYP) =  -746.826460934     A.U. after    7 cycles
 SCF Done:  E(RB3LYP) =  -746.826460954     A.U. after    6 cycles
 Optimization completed.
    -- Stationary point found.
 Normal termination of Gaussian 16 at Thu Dec 10 22:30:22 2020.

 --------------------------------------------------------------------
 #N Geom=AllCheck Guess=TCheck SCRF=Check GenChk RB3LYP/6-31G(d) Freq
 --------------------------------------------------------------------

 Structure from the checkpoint file:  "JID_6300.chk"
 ------------------------------
 CID_58182943_JID_6300_neutraal
 ------------------------------
 Charge =  0 Multiplicity = 1

 SCF Done:  E(RB3LYP) =  -746.826460954     A.U. after    1 cycles

  Exact polarizability: 174.706  -4.634 137.971  14.572   0.228  95.392
 Approx polarizability: 250.431 -10.239 216.845  38.398  -9.530 151.117

                      1                      2                      3
                      A                      A                      A
 Frequencies --     33.9805                38.0076                65.5171
 Red. masses --      3.8266                 1.0389                 7.9310
 Frc consts  --      0.0026                 0.0009                 0.0201
 IR Inten    --      0.3265                 0.2286                 2.8984

                      4                      5                      6
                      A                      A                      A
 Frequencies --     71.3188                84.9507                96.1141
 Red. masses --      8.7710                 3.3021                 4.0571
 Frc consts  --      0.0263                 0.0140                 0.0221
 IR Inten    --      0.0708                 1.9868                 0.4670

                      7                      8                      9
                      A                      A                      A
 Frequencies --     98.6621               138.7112               161.1465
 Red. masses --      3.6535                 3.3232                 1.1045
 Frc consts  --      0.0210                 0.0377                 0.0169
 IR Inten    --      0.1143                 0.8420                 0.0398

                     10                     11                     12
                      A                      A                      A
 Frequencies --    175.2761               202.8157               241.4652
 Red. masses --      1.0575                 4.0762                 3.3675
 Frc consts  --      0.0191                 0.0988                 0.1157
 IR Inten    --      0.6336                 4.8641                 2.9260

                     13                     14                     15
                      A                      A                      A
 Frequencies --    275.8643               278.5387               304.3170
 Red. masses --      3.8471                 3.2844                 3.5425
 Frc consts  --      0.1725                 0.1501                 0.1933
 IR Inten    --      4.8426                 4.3470                 2.4175

                     16                     17                     18
                      A                      A                      A
 Frequencies --    336.0758               374.8045               406.3484
 Red. masses --      3.9521                 4.8467                 4.7976
 Frc consts  --      0.2630                 0.4011                 0.4667
 IR Inten    --      3.0402                 3.6104                15.7416

                     19                     20                     21
                      A                      A                      A
 Frequencies --    456.8962               471.2589               500.8442
 Red. masses --      3.9189                 2.9921                 3.5295
 Frc consts  --      0.4820                 0.3915                 0.5216
 IR Inten    --      1.9223                 6.0978                 2.5450

                     22                     23                     24
                      A                      A                      A
 Frequencies --    524.3344               541.5865               587.5318
 Red. masses --      1.4522                 4.1652                 3.8691
 Frc consts  --      0.2352                 0.7198                 0.7869
 IR Inten    --     61.0424                 5.7230                 4.1444

                     25                     26                     27
                      A                      A                      A
 Frequencies --    606.5910               642.1912               671.7110
 Red. masses --      3.6461                 2.4232                 3.7637
 Frc consts  --      0.7904                 0.5888                 1.0005
 IR Inten    --     23.2878                66.7484                12.6939

                     28                     29                     30
                      A                      A                      A
 Frequencies --    707.8238               733.4401               798.6605
 Red. masses --      3.8881                 4.6869                 4.2594
 Frc consts  --      1.1477                 1.4855                 1.6008
 IR Inten    --     14.9850                 2.9597                 0.8433

                     31                     32                     33
                      A                      A                      A
 Frequencies --    808.6697               844.6074               859.3634
 Red. masses --      2.2928                 1.8590                 3.9551
 Frc consts  --      0.8834                 0.7814                 1.7209
 IR Inten    --     14.4911                 6.2987                 3.8734

                     34                     35                     36
                      A                      A                      A
 Frequencies --    880.6497               910.6683               951.3286
 Red. masses --      3.7292                 1.3490                 1.7291
 Frc consts  --      1.7040                 0.6592                 0.9220
 IR Inten    --      7.6114                 4.4197                 1.4617

                     37                     38                     39
                      A                      A                      A
 Frequencies --    963.6591               999.5347              1040.5161
 Red. masses --      1.7404                 2.3886                 1.6351
 Frc consts  --      0.9523                 1.4060                 1.0430
 IR Inten    --      0.8920                 4.8167                11.1399

                     40                     41                     42
                      A                      A                      A
 Frequencies --   1043.2258              1049.5296              1069.9160
 Red. masses --      1.6888                 5.2496                 1.7405
 Frc consts  --      1.0829                 3.4069                 1.1739
 IR Inten    --      3.5994                55.1406                10.0334

                     43                     44                     45
                      A                      A                      A
 Frequencies --   1075.8861              1149.9990              1194.8592
 Red. masses --      1.5160                 2.2141                 1.2774
 Frc consts  --      1.0339                 1.7252                 1.0745
 IR Inten    --      8.4673                10.3855                 1.3486

                     46                     47                     48
                      A                      A                      A
 Frequencies --   1196.0008              1213.9835              1223.6520
 Red. masses --      1.7920                 1.3851                 1.4431
 Frc consts  --      1.5102                 1.2027                 1.2731
 IR Inten    --      1.3685                60.3101                 4.6272

                     49                     50                     51
                      A                      A                      A
 Frequencies --   1234.9885              1277.3062              1301.5899
 Red. masses --      1.7222                 2.2378                 3.2558
 Frc consts  --      1.5476                 2.1511                 3.2498
 IR Inten    --      3.7697                72.6015                61.5853

                     52                     53                     54
                      A                      A                      A
 Frequencies --   1321.4786              1335.6498              1345.4653
 Red. masses --      1.8108                 3.1854                 2.4656
 Frc consts  --      1.8631                 3.3481                 2.6298
 IR Inten    --      8.4489                 4.3023               312.0245

                     55                     56                     57
                      A                      A                      A
 Frequencies --   1373.2862              1424.9600              1443.3972
 Red. masses --      2.1173                 1.4448                 1.2451
 Frc consts  --      2.3527                 1.7284                 1.5284
 IR Inten    --     26.2549                82.2643                 0.7623

                     58                     59                     60
                      A                      A                      A
 Frequencies --   1455.7213              1466.2541              1493.1382
 Red. masses --      1.8322                 2.8796                 1.1313
 Frc consts  --      2.2876                 3.6475                 1.4861
 IR Inten    --     35.1313                 6.6944                 9.1310

                     61                     62                     63
                      A                      A                      A
 Frequencies --   1496.2776              1500.8428              1511.7447
 Red. masses --      1.1661                 1.0639                 1.0507
 Frc consts  --      1.5382                 1.4120                 1.4148
 IR Inten    --      8.6283                15.2608                14.9308

                     64                     65                     66
                      A                      A                      A
 Frequencies --   1517.7161              1518.3224              1524.1727
 Red. masses --      1.0472                 1.0495                 1.1474
 Frc consts  --      1.4213                 1.4254                 1.5705
 IR Inten    --      3.4253                 6.0149                17.6069

                     67                     68                     69
                      A                      A                      A
 Frequencies --   1531.0238              1559.8143              1631.8148
 Red. masses --      1.0510                 2.9375                 5.9234
 Frc consts  --      1.4515                 4.2109                 9.2932
 IR Inten    --      7.9705                47.4475                 9.8106

                     70                     71                     72
                      A                      A                      A
 Frequencies --   1676.4457              1794.6111              1829.7051
 Red. masses --      6.3869                 8.1276                10.9505
 Frc consts  --     10.5760                15.4224                21.5997
 IR Inten    --     21.1115               294.3651               288.8380

                     73                     74                     75
                      A                      A                      A
 Frequencies --   3044.2740              3058.8601              3076.0533
 Red. masses --      1.0406                 1.0600                 1.0365
 Frc consts  --      5.6821                 5.8435                 5.7781
 IR Inten    --     29.0517                11.2017                 3.0381

                     76                     77                     78
                      A                      A                      A
 Frequencies --   3082.7468              3097.9556              3102.5260
 Red. masses --      1.0289                 1.1025                 1.0955
 Frc consts  --      5.7611                 6.2344                 6.2131
 IR Inten    --     31.4498                 5.2031                20.2285

                     79                     80                     81
                      A                      A                      A
 Frequencies --   3129.5948              3142.4640              3165.6005
 Red. masses --      1.1029                 1.1001                 1.1076
 Frc consts  --      6.3646                 6.4007                 6.5398
 IR Inten    --     15.0973                 6.6329                11.1978

                     82                     83                     84
                      A                      A                      A
 Frequencies --   3178.5647              3179.4078              3187.8169
 Red. masses --      1.1037                 1.0871                 1.1085
 Frc consts  --      6.5698                 6.4747                 6.6371
 IR Inten    --     11.5679                10.2437                11.6981

                     85                     86                     87
                      A                      A                      A
 Frequencies --   3195.9543              3198.5152              3567.1857
 Red. masses --      1.0932                 1.0921                 1.0754
 Frc consts  --      6.5786                 6.5827                 8.0627
 IR Inten    --     28.8832                 2.2100                22.1083

 - Thermochemistry -
 -------------------
 Temperature   298.150 Kelvin.  Pressure   1.00000 Atm.
 Atom     1 has atomic number  6 and mass  12.00000

 Molecular mass:   221.10519 amu.
 Principal axes and moments of inertia in atomic units:
                           1         2         3
     Eigenvalues --  2128.217574495.644135602.31835
           X            0.99993   0.00990  -0.00664
           Y           -0.00971   0.99954   0.02863
           Z            0.00692  -0.02856   0.99957
 This molecule is an asymmetric top.
 Rotational symmetry number  1.
 Warning -- assumption of classical behavior for rotation
           may cause significant error
 Rotational temperatures (Kelvin)      0.04070     0.01927     0.01546
 Rotational constants (GHZ):           0.84801     0.40144     0.32214
 Zero-point vibrational energy     670363.8 (Joules/Mol)
                                  160.22080 (Kcal/Mol)
 Warning -- explicit consideration of  25 degrees of freedom as
           vibrations may cause significant error
 Vibrational temperatures:     48.89    54.68    94.26   102.61   122.23
          (Kelvin)            138.29   141.95   199.57   231.85   252.18
                              291.81   347.41   396.91   400.76   437.84
                              483.54   539.26   584.64   657.37   678.04
                              720.60   754.40   779.22   845.33   872.75
                              923.97   966.44  1018.40  1055.26  1149.09
                             1163.50  1215.20  1236.43  1267.06  1310.25
                             1368.75  1386.49  1438.11  1497.07  1500.97
                             1510.04  1539.37  1547.96  1654.59  1719.14
                             1720.78  1746.65  1760.56  1776.87  1837.76
                             1872.70  1901.31  1921.70  1935.82  1975.85
                             2050.20  2076.73  2094.46  2109.61  2148.29
                             2152.81  2159.38  2175.06  2183.66  2184.53
                             2192.94  2202.80  2244.22  2347.82  2412.03
                             2582.05  2632.54  4380.03  4401.02  4425.75
                             4435.39  4457.27  4463.84  4502.79  4521.30
                             4554.59  4573.25  4574.46  4586.56  4598.27
                             4601.95  5132.38

 Zero-point correction=                           0.255328 (Hartree/Particle)
 Thermal correction to Energy=                    0.271824
 Thermal correction to Enthalpy=                  0.272768
 Thermal correction to Gibbs Free Energy=         0.210174
 Sum of electronic and zero-point Energies=           -746.571133
 Sum of electronic and thermal Energies=              -746.554637
 Sum of electronic and thermal Enthalpies=            -746.553693
 Sum of electronic and thermal Free Energies=         -746.616287

                     E (Thermal)             CV                S
                      KCal/Mol        Cal/Mol-Kelvin    Cal/Mol-Kelvin
 Total                  170.572             59.893            131.742
 Electronic               0.000              0.000              0.000
 Translational            0.889              2.981             42.083
 Rotational               0.889              2.981             32.350
 Vibrational            168.795             53.931             57.309
 Vibration     1          0.594              1.983              5.582
 Vibration     2          0.594              1.982              5.360
 Vibration     3          0.597              1.971              4.284
 Vibration     4          0.598              1.968              4.117
 Vibration     5          0.601              1.960              3.773
 Vibration     6          0.603              1.952              3.532
 Vibration     7          0.604              1.950              3.481
 Vibration     8          0.614              1.915              2.822
 Vibration     9          0.622              1.890              2.536
 Vibration    10          0.627              1.873              2.378
 Vibration    11          0.639              1.836              2.107
 Vibration    12          0.658              1.777              1.792
 Vibration    13          0.678              1.718              1.559
 Vibration    14          0.679              1.713              1.543
 Vibration    15          0.695              1.666              1.393
 Vibration    16          0.717              1.603              1.231
 Vibration    17          0.746              1.524              1.060
 Vibration    18          0.771              1.456              0.940
 Vibration    19          0.815              1.346              0.775
 Vibration    20          0.828              1.314              0.734
 Vibration    21          0.856              1.248              0.656
 Vibration    22          0.879              1.196              0.600
 Vibration    23          0.897              1.158              0.562
 Vibration    24          0.945              1.058              0.472
 Vibration    25          0.965              1.018              0.438

                           ! Non-Optimized Parameters !
 Normal termination of Gaussian 16 at Thu Dec 10 22:41:49 2020.

 ----------------------------------------------------------------------
 # B3LYP/6-311++G(d,p) empiricaldispersion=gd3bj scf=xqc pop=npa geom=c
 heck
 ----------------------------------------------------------------------

 --------------------------------------
 CID_58182943_JID_6300_Energie_neutraal
 --------------------------------------
 Structure from the checkpoint file:  "JID_6300.chk"
 Charge =  0 Multiplicity = 1

 SCF Done:  E(RB3LYP) =  -747.039966302     A.U. after   16 cycles
 Normal termination of Gaussian 16 at Thu Dec 10 22:47:05 2020.

 ----------------------------------------------------------------------
 # B3LYP/6-311++G(d,p) empiricaldispersion=gd3bj scf=xqc pop=npa geom=c
 heck
 ----------------------------------------------------------------------

 ------------------------------------
 CID_58182943_JID_6300_Energie_kation
 ------------------------------------
 Structure from the checkpoint file:  "JID_6300.chk"
 Charge =  1 Multiplicity = 2

 SCF Done:  E(UB3LYP) =  -746.730335456     A.U. after   27 cycles
 Normal termination of Gaussian 16 at Thu Dec 10 22:58:58 2020.
 Gaussian 16:  ES64L-G16RevA.03 25-Dec-2016

 ----------------------------------------------------------------------
 # B3LYP/6-311++G(d,p) empiricaldispersion=gd3bj scf=xqc pop=npa geom=c
 heck
 ----------------------------------------------------------------------

 -----------------------------------
 CID_58182943_JID_6300_Energie_anion
 -----------------------------------
 Structure from the checkpoint file:  "JID_6300.chk"
 Charge = -1 Multiplicity = 2

                         Standard orientation:
 ---------------------------------------------------------------------
 Center     Atomic      Atomic             Coordinates (Angstroms)
 Number     Number       Type             X           Y           Z
 ---------------------------------------------------------------------
      1          6           0        4.385186    0.801495    0.366294
      2          6           0        3.082045    0.087314    0.104874
      3          6           0        1.981683    0.774493   -0.414862
      4          6           0        0.756276    0.139481   -0.625487
      5          6           0        0.609932   -1.231231   -0.346127
      6          6           0        1.718019   -1.918561    0.154338
      7          6           0        2.931997   -1.274719    0.383741
      8          6           0       -0.681760   -1.963060   -0.628208
      9          6           0       -1.964174   -1.288296   -0.163252
     10          8           0       -2.976258   -1.232844   -0.825037
     11          8           0       -1.857904   -0.801067    1.089920
     12          6           0       -3.041893   -0.138365    1.579394
     13          7           0       -0.348352    0.892979   -1.111382
     14          6           0       -1.051399    1.856896   -0.407815
     15          8           0       -2.091671    2.313958   -0.857429
     16          6           0       -0.477111    2.287674    0.928566
     17          1           0        4.535354    1.628987   -0.334686
     18          1           0        4.408146    1.223873    1.379434
     19          1           0        5.238166    0.121134    0.277528
     20          1           0        2.070547    1.825278   -0.674553
     21          1           0        1.624899   -2.979012    0.374428
     22          1           0        3.772561   -1.838183    0.780370
     23          1           0       -0.814654   -2.142373   -1.701119
     24          1           0       -0.642869   -2.949638   -0.150813
     25          1           0       -3.291306    0.705631    0.933023
     26          1           0       -3.882061   -0.836182    1.608556
     27          1           0       -2.787181    0.200716    2.583499
     28          1           0       -0.861233    0.547113   -1.915521
     29          1           0       -0.228169    1.421316    1.547654
     30          1           0        0.435946    2.876444    0.797228
     31          1           0       -1.225815    2.904943    1.426271
 ---------------------------------------------------------------------

 SCF Done:  E(UB3LYP) =  -747.028973723     A.U. after   33 cycles
 SCF Done:  E(UB3LYP) =  -747.028973739     a.u. after    2 cycles

 The electronic state is 2-A.
 Alpha  occ. eigenvalues --  -19.08313 -19.02471 -19.00193 -14.25124 -10.21468
 Alpha  occ. eigenvalues --  -10.18815 -10.13662 -10.12226 -10.10239 -10.09584
 Alpha  occ. eigenvalues --  -10.09000 -10.08129 -10.08051 -10.08006 -10.07502
 Alpha  occ. eigenvalues --  -10.06974  -1.02281  -0.95343  -0.93511  -0.84667
 Alpha  occ. eigenvalues --   -0.76394  -0.71218  -0.66259  -0.65458  -0.64692
 Alpha  occ. eigenvalues --   -0.62487  -0.57816  -0.53528  -0.50288  -0.48656
 Alpha  occ. eigenvalues --   -0.48116  -0.43604  -0.41659  -0.40699  -0.39756
 Alpha  occ. eigenvalues --   -0.38947  -0.38285  -0.37486  -0.35623  -0.34042
 Alpha  occ. eigenvalues --   -0.33634  -0.32872  -0.32604  -0.32054  -0.31916
 Alpha  occ. eigenvalues --   -0.31006  -0.29542  -0.29199  -0.28095  -0.27483
 Alpha  occ. eigenvalues --   -0.26476  -0.25994  -0.25437  -0.22504  -0.19505
 Alpha  occ. eigenvalues --   -0.19277  -0.17458  -0.15507  -0.14368   0.04198
 Alpha virt. eigenvalues --    0.06274   0.06506   0.06892   0.07385   0.07885
 Alpha virt. eigenvalues --    0.08290   0.08582   0.09245   0.09591   0.10053
 Alpha virt. eigenvalues --    0.10437   0.10837   0.11056   0.12041   0.12677

  Beta  occ. eigenvalues --  -19.08305 -19.02458 -19.00183 -14.25124 -10.21447
  Beta  occ. eigenvalues --  -10.18801 -10.13650 -10.12187 -10.10224 -10.09573
  Beta  occ. eigenvalues --  -10.08992 -10.08115 -10.08030 -10.07992 -10.07454
  Beta  occ. eigenvalues --  -10.06931  -1.02258  -0.95321  -0.93491  -0.84636
  Beta  occ. eigenvalues --   -0.76350  -0.71172  -0.66213  -0.65401  -0.64644
  Beta  occ. eigenvalues --   -0.62445  -0.57741  -0.53461  -0.50233  -0.48611
  Beta  occ. eigenvalues --   -0.48077  -0.43560  -0.41604  -0.40649  -0.39718
  Beta  occ. eigenvalues --   -0.38915  -0.38245  -0.37447  -0.35573  -0.33980
  Beta  occ. eigenvalues --   -0.33588  -0.32836  -0.32548  -0.32028  -0.31867
  Beta  occ. eigenvalues --   -0.30982  -0.29484  -0.29144  -0.28055  -0.27450
  Beta  occ. eigenvalues --   -0.26422  -0.25910  -0.25381  -0.22463  -0.19484
  Beta  occ. eigenvalues --   -0.19214  -0.17433  -0.15439  -0.14240
  Beta virt. eigenvalues --    0.06396   0.06941   0.07100   0.07295   0.07717
  Beta virt. eigenvalues --    0.08246   0.08602   0.09089   0.09557   0.09874
  Beta virt. eigenvalues --    0.10464   0.10667   0.11049   0.11442   0.12248

 Mulliken charges and spin densities:
               1          2
     1  C    3.024917  -3.624076
     2  C    0.046209   0.579214
     3  C   -1.038810   0.663296
     4  C   -1.282534   0.484862
     5  C    0.483778   0.700035
     6  C   -0.284971   0.125452
     7  C   -0.021247  -0.664979
     8  C    1.219248  -1.685688
     9  C   -0.309764  -0.008351
    10  O   -0.210511   0.021810
    11  O    0.003101   0.033548
    12  C    0.043406  -0.255534
    13  N   -0.026905   0.002533
    14  C   -0.902139   0.726584
    15  O   -0.279994  -0.003262
    16  C    0.638507  -0.988023
    17  H   -0.346002   0.497084
    18  H   -0.072010   0.248247
    19  H   -0.402785   0.551352
    20  H   -0.107614   0.277822
    21  H   -0.779088   0.949822
    22  H   -0.724922   0.895495
    23  H    0.131197   0.093163
    24  H   -0.276531   0.473739
    25  H    0.209104   0.005059
    26  H    0.087727   0.074772
    27  H   -0.135719   0.284994
    28  H    0.265551   0.084618
    29  H    0.179242  -0.015425
    30  H   -0.273793   0.436317
    31  H    0.143350   0.035520
 Sum of Mulliken charges =  -1.00000   1.00000

 Dipole moment (field-independent basis, Debye):
    X=             -5.5538    Y=              1.0515    Z=             -0.3562  Tot=              5.6637
 Quadrupole moment (field-independent basis, Debye-Ang):
   XX=           -179.6393   YY=           -149.7575   ZZ=           -122.7325
   XY=              5.9135   XZ=             -9.9872   YZ=              3.4686

 Summary of Natural Population Analysis:

                                       Natural Population
                Natural  -----------------------------------------------
    Atom  No    Charge         Core      Valence    Rydberg      Total
 -----------------------------------------------------------------------
      C    1   -0.29088      0.99964     2.28589    0.00535     3.29088
      C    2   -0.01028      0.99952     2.00044    0.01033     3.01028
      C    3   -0.09940      0.99947     2.09043    0.00951     3.09940
      C    4    0.07677      0.99941     1.91180    0.01202     2.92323
      C    5   -0.02264      0.99946     2.01260    0.01058     3.02264
      C    6   -0.08785      0.99952     2.07770    0.01063     3.08785
      C    7   -0.08998      0.99951     2.08026    0.01021     3.08998
      C    8   -0.24253      0.99955     2.23311    0.00987     3.24253
      C    9    0.41182      0.99969     1.56192    0.02657     2.58818
      O   10   -0.30395      0.99987     3.29865    0.00544     4.30395
      O   11   -0.27922      0.99986     3.26978    0.00958     4.27922
      C   12   -0.11058      0.99959     2.10206    0.00894     3.11058
      N   13   -0.32545      0.99965     2.81643    0.00937     3.82545
      C   14    0.34707      0.99969     1.62978    0.02347     2.65293
      O   15   -0.31897      0.99987     3.31346    0.00564     4.31897
      C   16   -0.33793      0.99962     2.33325    0.00506     3.33793
      H   17    0.10319      0.00000     0.39524    0.00157     0.39681
      H   18    0.10596      0.00000     0.39274    0.00130     0.39404
      H   19    0.10627      0.00000     0.39161    0.00212     0.39373
      H   20    0.10270      0.00000     0.39558    0.00172     0.39730
      H   21    0.10277      0.00000     0.39509    0.00215     0.39723
      H   22    0.10351      0.00000     0.39462    0.00188     0.39649
      H   23    0.11367      0.00000     0.38530    0.00103     0.38633
      H   24    0.12153      0.00000     0.37666    0.00180     0.37847
      H   25    0.10140      0.00000     0.39768    0.00092     0.39860
      H   26    0.09070      0.00000     0.40855    0.00075     0.40930
      H   27    0.09187      0.00000     0.40729    0.00083     0.40813
      H   28    0.19944      0.00000     0.29847    0.00209     0.30056
      H   29    0.11623      0.00000     0.38246    0.00130     0.38377
      H   30    0.11480      0.00000     0.38394    0.00125     0.38520
      H   31    0.10994      0.00000     0.38921    0.00084     0.39006
 =======================================================================
   * Total *    0.00000     15.99390    42.81200    0.19410    59.00000

 Normal termination of Gaussian 16 at Thu Dec 10 23:22:54 2020.
