 Gaussian 16, Revision A.03,

 -----------------------------------------------------------
 # opt freq B3LYP/6-31G(d) empiricaldispersion=gd3bj scf=xqc
 -----------------------------------------------------------

 -------------------------------
 CID_101775579_JID_8597_neutraal
 -------------------------------
 Symbolic Z-matrix:
 Charge =  0 Multiplicity = 1

 SCF Done:  E(RB3LYP) =  -772.224218212     A.U. after   15 cycles
 SCF Done:  E(RB3LYP) =  -772.228562950     A.U. after   12 cycles
 SCF Done:  E(RB3LYP) =  -772.228659838     A.U. after   13 cycles
 SCF Done:  E(RB3LYP) =  -772.229138435     A.U. after   13 cycles
 SCF Done:  E(RB3LYP) =  -772.229471306     A.U. after   12 cycles
 SCF Done:  E(RB3LYP) =  -772.229489265     A.U. after   13 cycles
 SCF Done:  E(RB3LYP) =  -772.229855807     A.U. after   12 cycles
 SCF Done:  E(RB3LYP) =  -772.230416388     A.U. after   15 cycles
 SCF Done:  E(RB3LYP) =  -772.223133122     A.U. after   16 cycles
 SCF Done:  E(RB3LYP) =  -772.231249642     A.U. after   13 cycles
 SCF Done:  E(RB3LYP) =  -772.234622731     A.U. after   11 cycles
 SCF Done:  E(RB3LYP) =  -772.234628353     A.U. after   10 cycles
 SCF Done:  E(RB3LYP) =  -772.234629092     A.U. after    8 cycles
 SCF Done:  E(RB3LYP) =  -772.234629341     A.U. after    8 cycles
 SCF Done:  E(RB3LYP) =  -772.234629379     A.U. after    7 cycles
 Optimization completed.
    -- Stationary point found.
 Normal termination of Gaussian 16 at Fri Dec 11 21:45:57 2020.

 --------------------------------------------------------------------
 #N Geom=AllCheck Guess=TCheck SCRF=Check GenChk RB3LYP/6-31G(d) Freq
 --------------------------------------------------------------------

 Structure from the checkpoint file:  "JID_8597.chk"
 -------------------------------
 CID_101775579_JID_8597_neutraal
 -------------------------------
 Charge =  0 Multiplicity = 1

 SCF Done:  E(RB3LYP) =  -772.234629379     A.U. after    1 cycles

  Exact polarizability: 194.239  -9.992 159.331  -2.102 -14.396 141.529
 Approx polarizability: 277.710 -14.044 231.886 -12.450 -34.612 227.429

                      1                      2                      3
                      A                      A                      A
 Frequencies --     31.7166                36.7456                53.5476
 Red. masses --      3.6745                 4.0072                 3.5286
 Frc consts  --      0.0022                 0.0032                 0.0060
 IR Inten    --      0.0835                 0.2925                 0.5019

                      4                      5                      6
                      A                      A                      A
 Frequencies --     62.7230                65.1068                73.6744
 Red. masses --      2.8039                 3.1063                 3.7926
 Frc consts  --      0.0065                 0.0078                 0.0121
 IR Inten    --      0.0851                 0.0292                 0.1802

                      7                      8                      9
                      A                      A                      A
 Frequencies --     96.4234               101.2152               119.8656
 Red. masses --      3.0583                 4.4734                 3.3979
 Frc consts  --      0.0168                 0.0270                 0.0288
 IR Inten    --      0.3172                 0.4486                 0.5331

                     10                     11                     12
                      A                      A                      A
 Frequencies --    145.8103               175.4436               198.4793
 Red. masses --      2.6690                 2.7760                 2.6122
 Frc consts  --      0.0334                 0.0503                 0.0606
 IR Inten    --      0.3618                 1.1664                 0.8487

                     13                     14                     15
                      A                      A                      A
 Frequencies --    228.9149               240.0842               275.2316
 Red. masses --      2.4136                 1.4908                 3.8859
 Frc consts  --      0.0745                 0.0506                 0.1734
 IR Inten    --      1.3045                 1.1238                 0.5803

                     16                     17                     18
                      A                      A                      A
 Frequencies --    304.0534               308.2317               339.1497
 Red. masses --      3.4918                 3.1506                 2.8218
 Frc consts  --      0.1902                 0.1764                 0.1912
 IR Inten    --      1.5368                 0.6279                10.2805

                     19                     20                     21
                      A                      A                      A
 Frequencies --    381.2542               387.4836               416.1611
 Red. masses --      4.8704                 2.5352                 3.0008
 Frc consts  --      0.4171                 0.2243                 0.3062
 IR Inten    --      4.4497                 0.3991                 0.0394

                     22                     23                     24
                      A                      A                      A
 Frequencies --    426.6864               450.7353               491.0990
 Red. masses --      2.4270                 2.4236                 2.5128
 Frc consts  --      0.2603                 0.2901                 0.3571
 IR Inten    --      0.2452                 7.1233                 4.3963

                     25                     26                     27
                      A                      A                      A
 Frequencies --    517.4796               556.6706               634.7891
 Red. masses --      2.4178                 2.4801                 3.9208
 Frc consts  --      0.3815                 0.4528                 0.9309
 IR Inten    --      4.7500                 3.6303                 3.9906

                     28                     29                     30
                      A                      A                      A
 Frequencies --    638.5470               669.0127               705.4839
 Red. masses --      4.8322                 2.1956                 2.5333
 Frc consts  --      1.1609                 0.5790                 0.7429
 IR Inten    --      3.0988                 4.7168                 8.7851

                     31                     32                     33
                      A                      A                      A
 Frequencies --    716.4177               753.7985               782.1024
 Red. masses --      1.4923                 4.3729                 2.0507
 Frc consts  --      0.4513                 1.4640                 0.7390
 IR Inten    --     49.4817                 2.5462                 7.9511

                     34                     35                     36
                      A                      A                      A
 Frequencies --    795.4193               833.3942               855.8048
 Red. masses --      1.6835                 2.3923                 1.2508
 Frc consts  --      0.6276                 0.9790                 0.5397
 IR Inten    --      2.2456                 0.9250                 0.3212

                     37                     38                     39
                      A                      A                      A
 Frequencies --    870.4172               894.3230               905.1696
 Red. masses --      2.4762                 1.9152                 1.9939
 Frc consts  --      1.1053                 0.9025                 0.9625
 IR Inten    --     10.4699                 5.9943                 0.4889

                     40                     41                     42
                      A                      A                      A
 Frequencies --    924.2662               937.6645               944.3763
 Red. masses --      1.4610                 1.3535                 1.3599
 Frc consts  --      0.7354                 0.7011                 0.7146
 IR Inten    --      2.8055                33.7537                36.9142

                     43                     44                     45
                      A                      A                      A
 Frequencies --    954.4131               965.0101               970.1999
 Red. masses --      2.1513                 1.3673                 1.6261
 Frc consts  --      1.1546                 0.7502                 0.9018
 IR Inten    --      2.3540                 0.2717                 4.6957

                     46                     47                     48
                      A                      A                      A
 Frequencies --    991.8353              1008.2753              1023.6896
 Red. masses --      1.2456                 2.4523                 5.7441
 Frc consts  --      0.7220                 1.4688                 3.5466
 IR Inten    --      0.2145                 3.3623                 1.3536

                     49                     50                     51
                      A                      A                      A
 Frequencies --   1033.3041              1042.8095              1053.6895
 Red. masses --      1.3437                 2.1804                 1.2034
 Frc consts  --      0.8453                 1.3970                 0.7872
 IR Inten    --     11.6870                 8.7874                24.5773

                     52                     53                     54
                      A                      A                      A
 Frequencies --   1063.0019              1071.8822              1084.4761
 Red. masses --      2.9289                 2.3913                 2.2807
 Frc consts  --      1.9500                 1.6188                 1.5804
 IR Inten    --     12.8196                 2.4647                19.6476

                     55                     56                     57
                      A                      A                      A
 Frequencies --   1127.3735              1132.1408              1156.2059
 Red. masses --      1.6497                 1.9471                 2.2694
 Frc consts  --      1.2354                 1.4704                 1.7874
 IR Inten    --      7.4642                23.3617                47.3210

                     58                     59                     60
                      A                      A                      A
 Frequencies --   1179.0331              1195.6652              1210.0427
 Red. masses --      2.6526                 1.0954                 1.8401
 Frc consts  --      2.1726                 0.9227                 1.5874
 IR Inten    --    120.1245                 1.2087                 5.9063

                     61                     62                     63
                      A                      A                      A
 Frequencies --   1222.6214              1228.7133              1249.4184
 Red. masses --      1.9234                 1.5382                 2.3604
 Frc consts  --      1.6940                 1.3682                 2.1710
 IR Inten    --      1.4926                40.5586               205.0477

                     64                     65                     66
                      A                      A                      A
 Frequencies --   1297.6032              1314.0622              1326.1705
 Red. masses --      1.3324                 1.4118                 1.2661
 Frc consts  --      1.3218                 1.4363                 1.3119
 IR Inten    --     15.7777                17.9991                 3.5515

                     67                     68                     69
                      A                      A                      A
 Frequencies --   1339.4629              1341.8674              1346.1098
 Red. masses --      1.6296                 1.2152                 1.8878
 Frc consts  --      1.7226                 1.2892                 2.0154
 IR Inten    --      3.5995                16.3996                 1.0851

                     70                     71                     72
                      A                      A                      A
 Frequencies --   1364.8513              1375.3944              1380.5754
 Red. masses --      1.4805                 1.4624                 1.5466
 Frc consts  --      1.6249                 1.6299                 1.7368
 IR Inten    --      5.5932                11.1572                 1.5189

                     73                     74                     75
                      A                      A                      A
 Frequencies --   1418.5374              1443.1839              1472.3663
 Red. masses --      1.2864                 1.3174                 1.1697
 Frc consts  --      1.5252                 1.6166                 1.4941
 IR Inten    --      3.7480                11.4598                 0.8853

                     76                     77                     78
                      A                      A                      A
 Frequencies --   1475.7527              1497.4570              1507.3113
 Red. masses --      1.1831                 2.2352                 1.1205
 Frc consts  --      1.5181                 2.9530                 1.4999
 IR Inten    --      0.4675                 5.6809                 9.8362

                     79                     80                     81
                      A                      A                      A
 Frequencies --   1514.9966              1515.0827              1519.7226
 Red. masses --      1.0760                 1.0817                 1.0863
 Frc consts  --      1.4551                 1.4630                 1.4781
 IR Inten    --      1.8233                 9.5226                 4.3038

                     82                     83                     84
                      A                      A                      A
 Frequencies --   1537.2293              1551.9714              1644.9796
 Red. masses --      1.0586                 2.1209                 5.4267
 Frc consts  --      1.4739                 3.0099                 8.6518
 IR Inten    --     11.3548                13.5553                 1.6696

                     85                     86                     87
                      A                      A                      A
 Frequencies --   1668.0475              1732.3488              1734.6318
 Red. masses --      5.4583                 4.4737                 4.4714
 Frc consts  --      8.9480                 7.9102                 7.9269
 IR Inten    --      6.9292                 5.1334                 5.7710

                     88                     89                     90
                      A                      A                      A
 Frequencies --   1807.1098              3050.1538              3061.1770
 Red. masses --     11.5344                 1.0591                 1.0583
 Frc consts  --     22.1929                 5.8051                 5.8431
 IR Inten    --    177.5827                14.2455                14.8194

                     91                     92                     93
                      A                      A                      A
 Frequencies --   3063.0956              3094.8193              3096.9855
 Red. masses --      1.0360                 1.0588                 1.1032
 Frc consts  --      5.7271                 5.9750                 6.2343
 IR Inten    --     13.5710                27.0947                11.8906

                     94                     95                     96
                      A                      A                      A
 Frequencies --   3107.8029              3131.7206              3138.5564
 Red. masses --      1.1040                 1.1014                 1.1047
 Frc consts  --      6.2822                 6.3642                 6.4113
 IR Inten    --     12.6258                29.8280                 7.1853

                     97                     98                     99
                      A                      A                      A
 Frequencies --   3152.3260              3153.6658              3159.4479
 Red. masses --      1.0697                 1.0596                 1.1078
 Frc consts  --      6.2627                 6.2089                 6.5153
 IR Inten    --     20.1421                11.6626                26.8188

                    100                    101                    102
                      A                      A                      A
 Frequencies --   3160.6084              3181.7570              3190.2989
 Red. masses --      1.0803                 1.0847                 1.0883
 Frc consts  --      6.3582                 6.4701                 6.5264
 IR Inten    --      5.7660                 1.1048                 8.3192

                    103                    104                    105
                      A                      A                      A
 Frequencies --   3195.6622              3201.8397              3210.2788
 Red. masses --      1.0918                 1.0919                 1.0956
 Frc consts  --      6.5694                 6.5954                 6.6525
 IR Inten    --      0.5775                33.3142                25.7489

                    106                    107                    108
                      A                      A                      A
 Frequencies --   3219.3607              3234.5677              3238.3848
 Red. masses --      1.0930                 1.1145                 1.1156
 Frc consts  --      6.6746                 6.8702                 6.8934
 IR Inten    --     11.9825                21.9554                19.6474

 - Thermochemistry -
 -------------------
 Temperature   298.150 Kelvin.  Pressure   1.00000 Atm.
 Atom     1 has atomic number  6 and mass  12.00000

 Molecular mass:   244.14633 amu.
 Principal axes and moments of inertia in atomic units:
                           1         2         3
     Eigenvalues --  3879.917934914.580535958.75985
           X            0.99984  -0.00802   0.01594
           Y            0.00829   0.99983  -0.01653
           Z           -0.01580   0.01666   0.99974
 This molecule is an asymmetric top.
 Rotational symmetry number  1.
 Warning -- assumption of classical behavior for rotation
           may cause significant error
 Rotational temperatures (Kelvin)      0.02232     0.01762     0.01454
 Rotational constants (GHZ):           0.46515     0.36722     0.30287
 Zero-point vibrational energy     852208.3 (Joules/Mol)
                                  203.68268 (Kcal/Mol)
 Warning -- explicit consideration of  26 degrees of freedom as
           vibrations may cause significant error
 Vibrational temperatures:     45.63    52.87    77.04    90.24    93.67
          (Kelvin)            106.00   138.73   145.63   172.46   209.79
                              252.42   285.57   329.36   345.43   396.00
                              437.46   443.48   487.96   548.54   557.50
                              598.76   613.91   648.51   706.58   744.54
                              800.92   913.32   918.73   962.56  1015.03
                             1030.77  1084.55  1125.27  1144.43  1199.07
                             1231.31  1252.34  1286.73  1302.34  1329.81
                             1349.09  1358.75  1373.19  1388.43  1395.90
                             1427.03  1450.68  1472.86  1486.69  1500.37
                             1516.02  1529.42  1542.20  1560.32  1622.04
                             1628.90  1663.52  1696.37  1720.30  1740.98
                             1759.08  1767.84  1797.63  1866.96  1890.64
                             1908.06  1927.19  1930.65  1936.75  1963.72
                             1978.89  1986.34  2040.96  2076.42  2118.41
                             2123.28  2154.51  2168.68  2179.74  2179.87
                             2186.54  2211.73  2232.94  2366.76  2399.95
                             2492.46  2495.75  2600.03  4388.49  4404.35
                             4407.11  4452.75  4455.87  4471.44  4505.85
                             4515.68  4535.49  4537.42  4545.74  4547.41
                             4577.84  4590.13  4597.85  4606.73  4618.88
                             4631.94  4653.82  4659.31

 Zero-point correction=                           0.324589 (Hartree/Particle)
 Thermal correction to Energy=                    0.343202
 Thermal correction to Enthalpy=                  0.344146
 Thermal correction to Gibbs Free Energy=         0.276511
 Sum of electronic and zero-point Energies=           -771.910040
 Sum of electronic and thermal Energies=              -771.891428
 Sum of electronic and thermal Enthalpies=            -771.890484
 Sum of electronic and thermal Free Energies=         -771.958118

                     E (Thermal)             CV                S
                      KCal/Mol        Cal/Mol-Kelvin    Cal/Mol-Kelvin
 Total                  215.362             69.229            142.350
 Electronic               0.000              0.000              0.000
 Translational            0.889              2.981             42.379
 Rotational               0.889              2.981             33.096
 Vibrational            213.585             63.267             66.875
 Vibration     1          0.594              1.983              5.719
 Vibration     2          0.594              1.982              5.427
 Vibration     3          0.596              1.976              4.682
 Vibration     4          0.597              1.972              4.370
 Vibration     5          0.597              1.971              4.296
 Vibration     6          0.599              1.966              4.053
 Vibration     7          0.603              1.952              3.525
 Vibration     8          0.604              1.948              3.431
 Vibration     9          0.609              1.933              3.103
 Vibration    10          0.617              1.907              2.726
 Vibration    11          0.627              1.873              2.376
 Vibration    12          0.637              1.842              2.147
 Vibration    13          0.652              1.797              1.887
 Vibration    14          0.657              1.779              1.802
 Vibration    15          0.677              1.719              1.563
 Vibration    16          0.695              1.666              1.394
 Vibration    17          0.698              1.658              1.372
 Vibration    18          0.719              1.597              1.216
 Vibration    19          0.751              1.510              1.034
 Vibration    20          0.756              1.497              1.010
 Vibration    21          0.779              1.435              0.905
 Vibration    22          0.788              1.412              0.870
 Vibration    23          0.810              1.359              0.794
 Vibration    24          0.847              1.270              0.681
 Vibration    25          0.872              1.211              0.616
 Vibration    26          0.912              1.125              0.531

 Optimization completed.
    -- Stationary point found.
 Normal termination of Gaussian 16 at Fri Dec 11 22:05:12 2020.

 ----------------------------------------------------------------------
 # B3LYP/6-311++G(d,p) empiricaldispersion=gd3bj scf=xqc pop=npa geom=c
 heck
 ----------------------------------------------------------------------

 ---------------------------------------
 CID_101775579_JID_8597_Energie_neutraal
 ---------------------------------------
 Structure from the checkpoint file:  "JID_8597.chk"
 Charge =  0 Multiplicity = 1

 SCF Done:  E(RB3LYP) =  -772.448303783     A.U. after   15 cycles
 Normal termination of Gaussian 16 at Fri Dec 11 22:13:06 2020.

 ----------------------------------------------------------------------
 # B3LYP/6-311++G(d,p) empiricaldispersion=gd3bj scf=xqc pop=npa geom=c
 heck
 ----------------------------------------------------------------------

 -------------------------------------
 CID_101775579_JID_8597_Energie_kation
 -------------------------------------
 Structure from the checkpoint file:  "JID_8597.chk"
 Charge =  1 Multiplicity = 2

 SCF Done:  E(UB3LYP) =  -772.140842961     A.U. after   31 cycles
 Normal termination of Gaussian 16 at Fri Dec 11 22:35:21 2020.
 Gaussian 16:  ES64L-G16RevA.03 25-Dec-2016

 ----------------------------------------------------------------------
 # B3LYP/6-311++G(d,p) empiricaldispersion=gd3bj scf=xqc pop=npa geom=c
 heck
 ----------------------------------------------------------------------

 ------------------------------------
 CID_101775579_JID_8597_Energie_anion
 ------------------------------------
 Structure from the checkpoint file:  "JID_8597.chk"
 Charge = -1 Multiplicity = 2

                         Standard orientation:
 ---------------------------------------------------------------------
 Center     Atomic      Atomic             Coordinates (Angstroms)
 Number     Number       Type             X           Y           Z
 ---------------------------------------------------------------------
      1          6           0       -0.731890   -3.745627    0.406745
      2          6           0       -1.756211   -2.856041   -0.278830
      3          8           0       -1.183860   -1.568967   -0.607100
      4          6           0       -1.130705   -0.657919    0.388229
      5          8           0       -1.598345   -0.846089    1.491814
      6          6           0       -0.428002    0.618882   -0.085453
      7          6           0       -1.214818    1.151101   -1.325078
      8          6           0       -2.695797    1.269202   -1.099256
      9          6           0       -3.372087    2.417682   -1.083172
     10          6           0       -0.473228    1.706513    1.030115
     11          6           0        0.247124    1.383584    2.307827
     12          6           0        1.359510    1.996219    2.712501
     13          6           0        1.023659    0.281039   -0.436997
     14          6           0        1.697232    0.911664   -1.487919
     15          6           0        3.037025    0.624357   -1.756512
     16          6           0        3.727850   -0.302240   -0.978300
     17          6           0        3.068649   -0.934412    0.076903
     18          6           0        1.734657   -0.639709    0.345569
     19          1           0        0.174593   -3.826393   -0.201159
     20          1           0       -1.145756   -4.749734    0.552046
     21          1           0       -0.466250   -3.338661    1.386049
     22          1           0       -2.064461   -3.265591   -1.243239
     23          1           0       -2.636057   -2.701869    0.350561
     24          1           0       -0.815558    2.134747   -1.592680
     25          1           0       -1.023065    0.473532   -2.164327
     26          1           0       -3.234248    0.334270   -0.944012
     27          1           0       -4.445915    2.448066   -0.921290
     28          1           0       -2.875019    3.373516   -1.235912
     29          1           0       -0.045945    2.617565    0.594502
     30          1           0       -1.528712    1.910881    1.244367
     31          1           0       -0.195645    0.600341    2.917428
     32          1           0        1.845083    1.740860    3.650597
     33          1           0        1.831529    2.775376    2.117167
     34          1           0        1.183799    1.634307   -2.112382
     35          1           0        3.537031    1.126385   -2.580317
     36          1           0        4.768911   -0.529226   -1.189856
     37          1           0        3.594483   -1.655480    0.696611
     38          1           0        1.241032   -1.128221    1.179904
 ---------------------------------------------------------------------

 SCF Done:  E(UB3LYP) =  -772.433762360     A.U. after   33 cycles
 SCF Done:  E(UB3LYP) =  -772.433762360     a.u. after    1 cycles

 The electronic state is 2-A.
 Alpha  occ. eigenvalues --  -19.07457 -19.02351 -10.20982 -10.13532 -10.11899
 Alpha  occ. eigenvalues --  -10.09359 -10.09353 -10.09137 -10.08602 -10.08280
 Alpha  occ. eigenvalues --  -10.08242 -10.08130 -10.08113 -10.08037 -10.08020
 Alpha  occ. eigenvalues --  -10.07983 -10.07397 -10.07012  -1.01766  -0.93172
 Alpha  occ. eigenvalues --   -0.77748  -0.74324  -0.70259  -0.68752  -0.67115
 Alpha  occ. eigenvalues --   -0.65483  -0.63693  -0.59641  -0.58168  -0.53893
 Alpha  occ. eigenvalues --   -0.51713  -0.49780  -0.48207  -0.46974  -0.45711
 Alpha  occ. eigenvalues --   -0.43450  -0.40516  -0.40093  -0.38790  -0.38401
 Alpha  occ. eigenvalues --   -0.37365  -0.36571  -0.35718  -0.35269  -0.34747
 Alpha  occ. eigenvalues --   -0.33395  -0.32709  -0.32196  -0.31697  -0.30132
 Alpha  occ. eigenvalues --   -0.29393  -0.28759  -0.28488  -0.27390  -0.26715
 Alpha  occ. eigenvalues --   -0.26571  -0.25700  -0.25103  -0.24839  -0.24208
 Alpha  occ. eigenvalues --   -0.21674  -0.19289  -0.18368  -0.17188  -0.15906
 Alpha  occ. eigenvalues --   -0.15580   0.04235
 Alpha virt. eigenvalues --    0.05910   0.06244   0.06982   0.07165   0.07438
 Alpha virt. eigenvalues --    0.07528   0.08014   0.08172   0.08561   0.08718
 Alpha virt. eigenvalues --    0.09127   0.09493   0.09778   0.10166   0.10691

  Beta  occ. eigenvalues --  -19.07458 -19.02325 -10.20945 -10.13514 -10.11903
  Beta  occ. eigenvalues --  -10.09342 -10.09340 -10.09125 -10.08594 -10.08278
  Beta  occ. eigenvalues --  -10.08224 -10.08118 -10.08101 -10.08032 -10.08000
  Beta  occ. eigenvalues --  -10.07963 -10.07391 -10.06973  -1.01734  -0.93139
  Beta  occ. eigenvalues --   -0.77719  -0.74296  -0.70237  -0.68717  -0.67080
  Beta  occ. eigenvalues --   -0.65451  -0.63658  -0.59619  -0.58104  -0.53845
  Beta  occ. eigenvalues --   -0.51675  -0.49728  -0.48155  -0.46946  -0.45679
  Beta  occ. eigenvalues --   -0.43405  -0.40468  -0.40062  -0.38753  -0.38362
  Beta  occ. eigenvalues --   -0.37311  -0.36537  -0.35682  -0.35236  -0.34720
  Beta  occ. eigenvalues --   -0.33363  -0.32675  -0.32170  -0.31662  -0.30089
  Beta  occ. eigenvalues --   -0.29327  -0.28713  -0.28456  -0.27353  -0.26687
  Beta  occ. eigenvalues --   -0.26539  -0.25673  -0.25080  -0.24813  -0.24175
  Beta  occ. eigenvalues --   -0.21622  -0.19245  -0.18329  -0.17157  -0.15869
  Beta  occ. eigenvalues --   -0.15526
  Beta virt. eigenvalues --    0.06226   0.06724   0.06882   0.07155   0.07449
  Beta virt. eigenvalues --    0.07608   0.07882   0.08153   0.08379   0.08752
  Beta virt. eigenvalues --    0.09213   0.09520   0.09711   0.10052   0.10261

 Mulliken charges and spin densities:
               1          2
     1  C    0.692082  -1.222829
     2  C   -0.079935   0.095915
     3  O    0.108980   0.025230
     4  C   -1.336248  -0.118472
     5  O   -0.101764   0.032654
     6  C    0.951498  -0.159658
     7  C    0.993703  -1.426361
     8  C   -0.628212   0.882334
     9  C   -0.120780  -0.428549
    10  C    0.000098  -0.637460
    11  C   -0.279158   0.500509
    12  C   -0.456692  -0.265061
    13  C    1.118843  -0.486157
    14  C   -0.183509   0.147664
    15  C   -0.069226  -0.282043
    16  C    0.900262  -1.231915
    17  C   -0.723908   0.519482
    18  C   -0.157621   0.120511
    19  H    0.186930  -0.025379
    20  H   -0.651996   0.810262
    21  H   -0.209538   0.393272
    22  H   -0.458511   0.627828
    23  H    0.219830  -0.069025
    24  H    0.016886   0.103358
    25  H    0.163607   0.055268
    26  H   -0.105366   0.304098
    27  H    0.066647   0.057634
    28  H   -0.226966   0.353999
    29  H    0.109942   0.043624
    30  H    0.263649  -0.055242
    31  H    0.069475   0.146409
    32  H    0.044758   0.078810
    33  H    0.016404   0.091648
    34  H   -0.418489   0.571703
    35  H   -0.502885   0.690928
    36  H   -0.229824   0.379194
    37  H   -0.417641   0.602112
    38  H    0.434678  -0.226295
 Sum of Mulliken charges =  -1.00000   1.00000

 Dipole moment (field-independent basis, Debye):
    X=             -2.0154    Y=              3.5620    Z=              2.4876  Tot=              4.7893
 Quadrupole moment (field-independent basis, Debye-Ang):
   XX=           -169.0520   YY=           -178.2722   ZZ=           -155.2280
   XY=             -4.8118   XZ=              5.8624   YZ=              6.4830

 Summary of Natural Population Analysis:

                                       Natural Population
                Natural  -----------------------------------------------
    Atom  No    Charge         Core      Valence    Rydberg      Total
 -----------------------------------------------------------------------
      C    1   -0.29954      0.99966     2.29481    0.00507     3.29954
      C    2   -0.01549      0.99957     2.00397    0.01195     3.01549
      O    3   -0.28501      0.99985     3.27564    0.00952     4.28501
      C    4    0.42753      0.99961     1.54392    0.02894     2.57247
      O    5   -0.30822      0.99987     3.30317    0.00518     4.30822
      C    6   -0.07388      0.99947     2.06075    0.01366     3.07388
      C    7   -0.20694      0.99959     2.19515    0.01220     3.20694
      C    8   -0.08085      0.99956     2.07101    0.01028     3.08085
      C    9   -0.18765      0.99955     2.18192    0.00617     3.18765
      C   10   -0.20501      0.99958     2.19437    0.01106     3.20501
      C   11   -0.08217      0.99956     2.07308    0.00953     3.08217
      C   12   -0.18971      0.99956     2.18395    0.00620     3.18971
      C   13   -0.00801      0.99948     1.99493    0.01360     3.00801
      C   14   -0.10034      0.99950     2.09106    0.00978     3.10034
      C   15   -0.09692      0.99956     2.08721    0.01015     3.09692
      C   16   -0.10077      0.99956     2.09156    0.00965     3.10077
      C   17   -0.09616      0.99956     2.08630    0.01031     3.09616
      C   18   -0.09594      0.99950     2.08663    0.00981     3.09594
      H   19    0.10397      0.00000     0.39477    0.00127     0.39603
      H   20    0.10462      0.00000     0.39346    0.00192     0.39538
      H   21    0.10361      0.00000     0.39499    0.00140     0.39639
      H   22    0.09216      0.00000     0.40642    0.00143     0.40784
      H   23    0.09279      0.00000     0.40584    0.00137     0.40721
      H   24    0.10304      0.00000     0.39480    0.00216     0.39696
      H   25    0.11700      0.00000     0.38126    0.00174     0.38300
      H   26    0.09472      0.00000     0.40363    0.00166     0.40528
      H   27    0.09300      0.00000     0.40613    0.00087     0.40700
      H   28    0.09106      0.00000     0.40781    0.00113     0.40894
      H   29    0.10075      0.00000     0.39763    0.00162     0.39925
      H   30    0.11326      0.00000     0.38527    0.00147     0.38674
      H   31    0.10293      0.00000     0.39590    0.00117     0.39707
      H   32    0.09164      0.00000     0.40737    0.00100     0.40836
      H   33    0.08972      0.00000     0.40913    0.00115     0.41028
      H   34    0.10273      0.00000     0.39510    0.00216     0.39727
      H   35    0.10184      0.00000     0.39681    0.00135     0.39816
      H   36    0.10104      0.00000     0.39784    0.00112     0.39896
      H   37    0.10150      0.00000     0.39752    0.00097     0.39850
      H   38    0.10369      0.00000     0.39429    0.00202     0.39631
 =======================================================================
   * Total *    0.00000     17.99258    47.78540    0.22202    66.00000

 Normal termination of Gaussian 16 at Fri Dec 11 22:58:43 2020.
