 Gaussian 16, Revision A.03,

 -----------------------------------------------------------
 # opt freq B3LYP/6-31G(d) empiricaldispersion=gd3bj scf=xqc
 -----------------------------------------------------------

 --------------------------
 CID_23468_JID_443_neutraal
 --------------------------
 Symbolic Z-matrix:
 Charge =  0 Multiplicity = 1

 SCF Done:  E(RB3LYP) =  -393.176810470     A.U. after   12 cycles
 SCF Done:  E(RB3LYP) =  -393.177683589     A.U. after   10 cycles
 SCF Done:  E(RB3LYP) =  -393.177766358     A.U. after   10 cycles
 SCF Done:  E(RB3LYP) =  -393.177874927     A.U. after    9 cycles
 SCF Done:  E(RB3LYP) =  -393.177899455     A.U. after    9 cycles
 SCF Done:  E(RB3LYP) =  -393.177932911     A.U. after    9 cycles
 SCF Done:  E(RB3LYP) =  -393.177925201     A.U. after   10 cycles
 SCF Done:  E(RB3LYP) =  -393.177970147     A.U. after   10 cycles
 SCF Done:  E(RB3LYP) =  -393.177946692     A.U. after    9 cycles
 SCF Done:  E(RB3LYP) =  -393.177886229     A.U. after   12 cycles
 SCF Done:  E(RB3LYP) =  -393.178001517     A.U. after   10 cycles
 SCF Done:  E(RB3LYP) =  -393.177994620     A.U. after    9 cycles
 SCF Done:  E(RB3LYP) =  -393.178003591     A.U. after    9 cycles
 SCF Done:  E(RB3LYP) =  -393.178002751     A.U. after    8 cycles
 SCF Done:  E(RB3LYP) =  -393.178003584     A.U. after    8 cycles
 Optimization completed.
    -- Stationary point found.
 Normal termination of Gaussian 16 at Tue Dec  8 11:11:24 2020.

 --------------------------------------------------------------------
 #N Geom=AllCheck Guess=TCheck SCRF=Check GenChk RB3LYP/6-31G(d) Freq
 --------------------------------------------------------------------

 Structure from the checkpoint file:  "JID_443.chk"
 --------------------------
 CID_23468_JID_443_neutraal
 --------------------------
 Charge =  0 Multiplicity = 1

 SCF Done:  E(RB3LYP) =  -393.178003584     A.U. after    1 cycles

  Exact polarizability: 115.388   0.306 100.075  -0.077   0.049  91.520
 Approx polarizability: 142.769  -0.507 138.491   1.305   0.318 139.559

                      1                      2                      3
                      A                      A                      A
 Frequencies --     47.3518                57.9200               127.1673
 Red. masses --      2.4803                 1.9629                 2.7907
 Frc consts  --      0.0033                 0.0039                 0.0266
 IR Inten    --      0.0041                 0.0073                 0.0187

                      4                      5                      6
                      A                      A                      A
 Frequencies --    169.0388               227.5008               247.9880
 Red. masses --      2.2003                 1.2389                 1.1834
 Frc consts  --      0.0370                 0.0378                 0.0429
 IR Inten    --      0.0182                 0.0154                 0.0244

                      7                      8                      9
                      A                      A                      A
 Frequencies --    261.7080               290.3747               347.6216
 Red. masses --      2.4060                 2.0875                 2.1356
 Frc consts  --      0.0971                 0.1037                 0.1521
 IR Inten    --      0.0241                 0.0170                 0.0003

                     10                     11                     12
                      A                      A                      A
 Frequencies --    381.4394               394.2408               425.2798
 Red. masses --      2.1470                 2.2260                 2.0863
 Frc consts  --      0.1841                 0.2038                 0.2223
 IR Inten    --      0.0471                 0.1086                 0.3659

                     13                     14                     15
                      A                      A                      A
 Frequencies --    456.3708               491.5054               499.2198
 Red. masses --      2.3365                 2.8592                 1.8491
 Frc consts  --      0.2867                 0.4070                 0.2715
 IR Inten    --      0.1535                 0.0652                 0.2172

                     16                     17                     18
                      A                      A                      A
 Frequencies --    621.1914               776.1084               802.2527
 Red. masses --      2.0691                 1.3860                 2.5446
 Frc consts  --      0.4704                 0.4919                 0.9649
 IR Inten    --      1.6395                 2.5146                 0.8683

                     19                     20                     21
                      A                      A                      A
 Frequencies --    803.5922               822.9066               862.7379
 Red. masses --      1.4891                 1.8494                 2.3574
 Frc consts  --      0.5666                 0.7379                 1.0338
 IR Inten    --      0.0265                 0.0681                 0.3249

                     22                     23                     24
                      A                      A                      A
 Frequencies --    874.5694               882.9590               932.6722
 Red. masses --      2.2824                 1.5373                 1.9159
 Frc consts  --      1.0286                 0.7061                 0.9820
 IR Inten    --      1.2452                 3.8829                 0.4972

                     25                     26                     27
                      A                      A                      A
 Frequencies --    952.4512               989.3995              1004.6321
 Red. masses --      1.3611                 1.2115                 1.8624
 Frc consts  --      0.7275                 0.6987                 1.1075
 IR Inten    --      1.9224                 3.1011                 2.1394

                     28                     29                     30
                      A                      A                      A
 Frequencies --   1031.2628              1041.9128              1051.9652
 Red. masses --      1.7434                 2.1665                 1.7983
 Frc consts  --      1.0924                 1.3857                 1.1725
 IR Inten    --      0.3196                 2.1485                 0.3250

                     31                     32                     33
                      A                      A                      A
 Frequencies --   1058.8725              1094.9637              1103.5874
 Red. masses --      1.8937                 1.7757                 2.0130
 Frc consts  --      1.2510                 1.2543                 1.4445
 IR Inten    --      0.5301                 5.0704                 0.2515

                     34                     35                     36
                      A                      A                      A
 Frequencies --   1125.4347              1145.8128              1191.2281
 Red. masses --      1.5061                 1.0397                 1.9439
 Frc consts  --      1.1239                 0.8042                 1.6253
 IR Inten    --      0.1256                 0.1653                 4.2239

                     37                     38                     39
                      A                      A                      A
 Frequencies --   1197.3341              1201.6658              1273.4590
 Red. masses --      1.7618                 2.1977                 1.3667
 Frc consts  --      1.4881                 1.8698                 1.3058
 IR Inten    --      1.2697                 0.6139                 0.3315

                     40                     41                     42
                      A                      A                      A
 Frequencies --   1304.8179              1306.4120              1311.3507
 Red. masses --      1.3038                 1.2576                 1.2213
 Frc consts  --      1.3079                 1.2646                 1.2374
 IR Inten    --      5.6459                 1.0622                 1.8838

                     43                     44                     45
                      A                      A                      A
 Frequencies --   1325.8750              1347.7090              1367.6268
 Red. masses --      1.2532                 1.4001                 1.3157
 Frc consts  --      1.2980                 1.4983                 1.4499
 IR Inten    --      0.6958                 0.5407                 0.8981

                     46                     47                     48
                      A                      A                      A
 Frequencies --   1374.7711              1392.8152              1399.4594
 Red. masses --      1.3508                 1.4559                 1.3992
 Frc consts  --      1.5042                 1.6640                 1.6145
 IR Inten    --      0.8659                 1.1734                 0.2218

                     49                     50                     51
                      A                      A                      A
 Frequencies --   1403.3859              1407.0930              1407.6040
 Red. masses --      1.4670                 1.4220                 1.4442
 Frc consts  --      1.7023                 1.6588                 1.6859
 IR Inten    --      0.3575                 3.8753                 1.6365

                     52                     53                     54
                      A                      A                      A
 Frequencies --   1425.3824              1438.0560              1445.2416
 Red. masses --      1.4399                 1.2690                 1.2194
 Frc consts  --      1.7237                 1.5462                 1.5007
 IR Inten    --      1.8476                 5.3820                 3.0823

                     55                     56                     57
                      A                      A                      A
 Frequencies --   1511.7476              1514.3549              1517.3794
 Red. masses --      1.0778                 1.0764                 1.0834
 Frc consts  --      1.4512                 1.4544                 1.4697
 IR Inten    --      0.7875                 1.4868                 1.7702

                     58                     59                     60
                      A                      A                      A
 Frequencies --   1522.9847              1525.7199              1529.8180
 Red. masses --      1.0897                 1.0576                 1.0628
 Frc consts  --      1.4891                 1.4505                 1.4655
 IR Inten    --      5.1751                 5.6039                 5.1825

                     61                     62                     63
                      A                      A                      A
 Frequencies --   1531.6877              1538.8897              1540.5317
 Red. masses --      1.0680                 1.0671                 1.0813
 Frc consts  --      1.4763                 1.4889                 1.5120
 IR Inten    --      1.3238                 9.7282                 5.9494

                     64                     65                     66
                      A                      A                      A
 Frequencies --   1554.1834              2999.4131              3019.4779
 Red. masses --      1.0583                 1.0812                 1.0746
 Frc consts  --      1.5061                 5.7311                 5.7726
 IR Inten    --      3.8549                15.3477                 0.9797

                     67                     68                     69
                      A                      A                      A
 Frequencies --   3020.8337              3024.4993              3029.9667
 Red. masses --      1.0684                 1.0717                 1.0679
 Frc consts  --      5.7444                 5.7758                 5.7764
 IR Inten    --     22.9152                12.4511                19.2403

                     70                     71                     72
                      A                      A                      A
 Frequencies --   3033.2578              3035.2470              3039.1468
 Red. masses --      1.0652                 1.0689                 1.0618
 Frc consts  --      5.7743                 5.8019                 5.7781
 IR Inten    --      9.0225                57.9839                28.9064

                     73                     74                     75
                      A                      A                      A
 Frequencies --   3045.9840              3047.6259              3069.0152
 Red. masses --      1.0409                 1.0451                 1.0929
 Frc consts  --      5.6899                 5.7192                 6.0652
 IR Inten    --     56.4623                33.2557                74.0807

                     76                     77                     78
                      A                      A                      A
 Frequencies --   3071.3841              3074.9853              3079.8227
 Red. masses --      1.1010                 1.0963                 1.1021
 Frc consts  --      6.1191                 6.1073                 6.1591
 IR Inten    --     47.5747                 4.5725               114.0696

                     79                     80                     81
                      A                      A                      A
 Frequencies --   3091.4845              3095.1527              3108.3384
 Red. masses --      1.0919                 1.0922                 1.1017
 Frc consts  --      6.1485                 6.1648                 6.2712
 IR Inten    --     42.1629                42.3471                42.8471

                     82                     83                     84
                      A                      A                      A
 Frequencies --   3112.4424              3120.6289              3130.5145
 Red. masses --      1.0973                 1.0986                 1.1006
 Frc consts  --      6.2627                 6.3032                 6.3550
 IR Inten    --     39.7136                70.0506                33.5853

 - Thermochemistry -
 -------------------
 Temperature   298.150 Kelvin.  Pressure   1.00000 Atm.
 Atom     1 has atomic number  6 and mass  12.00000

 Molecular mass:   140.15650 amu.
 Principal axes and moments of inertia in atomic units:
                           1         2         3
     Eigenvalues --   867.105332144.062642503.20159
           X            0.99999   0.00124   0.00364
           Y           -0.00123   1.00000  -0.00200
           Z           -0.00364   0.00199   0.99999
 This molecule is an asymmetric top.
 Rotational symmetry number  1.
 Warning -- assumption of classical behavior for rotation
           may cause significant error
 Rotational temperatures (Kelvin)      0.09989     0.04040     0.03460
 Rotational constants (GHZ):           2.08134     0.84174     0.72097
 Zero-point vibrational energy     750428.3 (Joules/Mol)
                                  179.35667 (Kcal/Mol)
 Warning -- explicit consideration of  15 degrees of freedom as
           vibrations may cause significant error
 Vibrational temperatures:     68.13    83.33   182.97   243.21   327.32
          (Kelvin)            356.80   376.54   417.78   500.15   548.81
                              567.22   611.88   656.62   707.17   718.27
                              893.76  1116.65  1154.26  1156.19  1183.98
                             1241.29  1258.31  1270.38  1341.91  1370.36
                             1423.53  1445.44  1483.76  1499.08  1513.54
                             1523.48  1575.41  1587.82  1619.25  1648.57
                             1713.91  1722.70  1728.93  1832.22  1877.34
                             1879.64  1886.74  1907.64  1939.05  1967.71
                             1977.99  2003.95  2013.51  2019.16  2024.49
                             2025.23  2050.81  2069.04  2079.38  2175.07
                             2178.82  2183.17  2191.24  2195.17  2201.07
                             2203.76  2214.12  2216.48  2236.12  4315.49
                             4344.36  4346.31  4351.58  4359.45  4364.18
                             4367.04  4372.65  4382.49  4384.85  4415.63
                             4419.04  4424.22  4431.18  4447.96  4453.23
                             4472.21  4478.11  4489.89  4504.11

 Zero-point correction=                           0.285823 (Hartree/Particle)
 Thermal correction to Energy=                    0.296781
 Thermal correction to Enthalpy=                  0.297726
 Thermal correction to Gibbs Free Energy=         0.249394
 Sum of electronic and zero-point Energies=           -392.892181
 Sum of electronic and thermal Energies=              -392.881222
 Sum of electronic and thermal Enthalpies=            -392.880278
 Sum of electronic and thermal Free Energies=         -392.928609

                     E (Thermal)             CV                S
                      KCal/Mol        Cal/Mol-Kelvin    Cal/Mol-Kelvin
 Total                  186.233             43.002            101.722
 Electronic               0.000              0.000              0.000
 Translational            0.889              2.981             40.724
 Rotational               0.889              2.981             29.921
 Vibrational            184.456             37.041             31.077
 Vibration     1          0.595              1.979              4.925
 Vibration     2          0.596              1.974              4.527
 Vibration     3          0.611              1.926              2.988
 Vibration     4          0.625              1.881              2.446
 Vibration     5          0.651              1.799              1.899
 Vibration     6          0.662              1.766              1.745
 Vibration     7          0.669              1.743              1.650
 Vibration     8          0.686              1.692              1.472
 Vibration     9          0.725              1.580              1.177
 Vibration    10          0.751              1.510              1.033
 Vibration    11          0.761              1.482              0.984
 Vibration    12          0.787              1.415              0.874
 Vibration    13          0.815              1.347              0.777
 Vibration    14          0.847              1.269              0.680
 Vibration    15          0.855              1.252              0.660

 Optimization completed.
    -- Stationary point found.
 Normal termination of Gaussian 16 at Tue Dec  8 11:18:50 2020.

 ----------------------------------------------------------------------
 # B3LYP/6-311++G(d,p) empiricaldispersion=gd3bj scf=xqc pop=npa geom=c
 heck
 ----------------------------------------------------------------------

 ----------------------------------
 CID_23468_JID_443_Energie_neutraal
 ----------------------------------
 Structure from the checkpoint file:  "JID_443.chk"
 Charge =  0 Multiplicity = 1

 SCF Done:  E(RB3LYP) =  -393.284866069     A.U. after   12 cycles
 Normal termination of Gaussian 16 at Tue Dec  8 11:22:24 2020.

 ----------------------------------------------------------------------
 # B3LYP/6-311++G(d,p) empiricaldispersion=gd3bj scf=xqc pop=npa geom=c
 heck
 ----------------------------------------------------------------------

 --------------------------------
 CID_23468_JID_443_Energie_kation
 --------------------------------
 Structure from the checkpoint file:  "JID_443.chk"
 Charge =  1 Multiplicity = 2

 SCF Done:  E(UB3LYP) =  -392.924449021     A.U. after   33 cycles
 SCF Done:  E(UB3LYP) =  -392.924449022     a.u. after    2 cycles
 Normal termination of Gaussian 16 at Tue Dec  8 11:41:48 2020.
 Gaussian 16:  ES64L-G16RevA.03 25-Dec-2016

 ----------------------------------------------------------------------
 # B3LYP/6-311++G(d,p) empiricaldispersion=gd3bj scf=xqc pop=npa geom=c
 heck
 ----------------------------------------------------------------------

 -------------------------------
 CID_23468_JID_443_Energie_anion
 -------------------------------
 Structure from the checkpoint file:  "JID_443.chk"
 Charge = -1 Multiplicity = 2

                         Standard orientation:
 ---------------------------------------------------------------------
 Center     Atomic      Atomic             Coordinates (Angstroms)
 Number     Number       Type             X           Y           Z
 ---------------------------------------------------------------------
      1          6           0       -3.325590   -0.755426   -0.650355
      2          6           0       -2.233736   -0.551887    0.404500
      3          6           0       -1.037579    0.300261   -0.069848
      4          6           0       -1.468037    1.763361   -0.251602
      5          6           0        0.162061    0.156058    0.908998
      6          6           0        0.809732   -1.247277    0.862199
      7          6           0        1.596365   -1.498368   -0.433686
      8          6           0        2.658118   -0.415541   -0.668097
      9          6           0        2.044794    0.990191   -0.612113
     10          6           0        1.279362    1.200939    0.701382
     11          1           0       -3.784635    0.189452   -0.959907
     12          1           0       -4.126391   -1.397601   -0.266711
     13          1           0       -2.916325   -1.234640   -1.548340
     14          1           0       -2.666157   -0.080773    1.299371
     15          1           0       -1.880785   -1.538562    0.724390
     16          1           0       -0.733279   -0.079763   -1.055320
     17          1           0       -1.676147    2.231087    0.719657
     18          1           0       -0.700201    2.359870   -0.752673
     19          1           0       -2.377759    1.836577   -0.855587
     20          1           0       -0.244349    0.307554    1.920880
     21          1           0        1.500438   -1.332630    1.713116
     22          1           0        0.060416   -2.034234    1.000534
     23          1           0        0.907234   -1.521670   -1.288703
     24          1           0        2.067811   -2.488380   -0.393777
     25          1           0        3.164065   -0.577522   -1.628191
     26          1           0        3.429712   -0.496695    0.111781
     27          1           0        1.365706    1.127212   -1.465237
     28          1           0        2.829505    1.750128   -0.715262
     29          1           0        0.879118    2.218200    0.755562
     30          1           0        1.989085    1.108527    1.536142
 ---------------------------------------------------------------------

 SCF Done:  E(UB3LYP) =  -393.266419572     A.U. after   27 cycles

 The electronic state is 2-A.
 Alpha  occ. eigenvalues --  -10.06345 -10.06191 -10.05675 -10.05464 -10.05442
 Alpha  occ. eigenvalues --  -10.05426 -10.05365 -10.05309 -10.05261 -10.04995
 Alpha  occ. eigenvalues --   -0.73328  -0.69057  -0.63698  -0.63184  -0.60530
 Alpha  occ. eigenvalues --   -0.54060  -0.49986  -0.49241  -0.46985  -0.41972
 Alpha  occ. eigenvalues --   -0.37712  -0.36296  -0.34440  -0.33468  -0.32643
 Alpha  occ. eigenvalues --   -0.31108  -0.29917  -0.28253  -0.27642  -0.27316
 Alpha  occ. eigenvalues --   -0.26347  -0.25493  -0.25155  -0.23186  -0.22999
 Alpha  occ. eigenvalues --   -0.22167  -0.21294  -0.19483  -0.18841  -0.18378
 Alpha  occ. eigenvalues --    0.04786
 Alpha virt. eigenvalues --    0.06845   0.07512   0.07690   0.08941   0.09423
 Alpha virt. eigenvalues --    0.09564   0.10240   0.10524   0.11638   0.12089
 Alpha virt. eigenvalues --    0.12107   0.12654   0.13272   0.13974   0.14068

  Beta  occ. eigenvalues --  -10.06337 -10.06188 -10.05658 -10.05445 -10.05424
  Beta  occ. eigenvalues --  -10.05409 -10.05351 -10.05277 -10.05244 -10.04969
  Beta  occ. eigenvalues --   -0.73301  -0.69026  -0.63661  -0.63148  -0.60486
  Beta  occ. eigenvalues --   -0.53999  -0.49935  -0.49185  -0.46924  -0.41926
  Beta  occ. eigenvalues --   -0.37652  -0.36263  -0.34409  -0.33439  -0.32616
  Beta  occ. eigenvalues --   -0.31072  -0.29883  -0.28213  -0.27605  -0.27279
  Beta  occ. eigenvalues --   -0.26317  -0.25446  -0.25118  -0.23155  -0.22961
  Beta  occ. eigenvalues --   -0.22132  -0.21256  -0.19456  -0.18807  -0.18346
  Beta virt. eigenvalues --    0.06934   0.07716   0.08245   0.08320   0.09564
  Beta virt. eigenvalues --    0.09913   0.10139   0.10748   0.10959   0.12225
  Beta virt. eigenvalues --    0.12438   0.12603   0.13097   0.13590   0.14295

 Mulliken charges and spin densities:
               1          2
     1  C    1.401755  -2.122636
     2  C   -0.946296   0.842699
     3  C   -0.189397   0.142627
     4  C    1.232235  -1.975549
     5  C   -0.197624   0.982045
     6  C    0.395309  -0.901815
     7  C   -0.576225   0.353516
     8  C    1.239428  -1.813714
     9  C   -0.479787   0.276642
    10  C   -0.172453  -0.341637
    11  H   -0.141880   0.266434
    12  H   -0.272452   0.408966
    13  H   -0.402505   0.543763
    14  H   -0.231329   0.360802
    15  H    0.153478  -0.034234
    16  H    0.477331  -0.371666
    17  H   -0.188056   0.347404
    18  H   -0.072652   0.206560
    19  H   -0.023606   0.142613
    20  H    0.033661   0.172438
    21  H   -0.180404   0.323656
    22  H   -0.162443   0.298715
    23  H   -0.106641   0.236378
    24  H   -0.399897   0.569560
    25  H   -0.312396   0.472800
    26  H    0.017194   0.106083
    27  H   -0.220753   0.351529
    28  H   -0.304297   0.481431
    29  H   -0.031095   0.187269
    30  H   -0.338202   0.487321
 Sum of Mulliken charges =  -1.00000   1.00000

 Dipole moment (field-independent basis, Debye):
    X=             -0.0353    Y=              0.6907    Z=              0.8735  Tot=              1.1142
 Quadrupole moment (field-independent basis, Debye-Ang):
   XX=           -134.8114   YY=           -112.1504   ZZ=           -100.8051
   XY=             -2.2394   XZ=             -0.0538   YZ=             -1.6780

 Summary of Natural Population Analysis:

                                       Natural Population
                Natural  -----------------------------------------------
    Atom  No    Charge         Core      Valence    Rydberg      Total
 -----------------------------------------------------------------------
      C    1   -0.28370      0.99967     2.27928    0.00475     3.28370
      C    2   -0.18677      0.99962     2.17854    0.00861     3.18677
      C    3   -0.11331      0.99958     2.10334    0.01039     3.11331
      C    4   -0.28646      0.99965     2.28061    0.00620     3.28646
      C    5   -0.10447      0.99958     2.09399    0.01089     3.10447
      C    6   -0.18821      0.99961     2.17936    0.00925     3.18821
      C    7   -0.19045      0.99963     2.18256    0.00826     3.19045
      C    8   -0.18746      0.99963     2.17980    0.00803     3.18746
      C    9   -0.19155      0.99963     2.18346    0.00847     3.19155
      C   10   -0.18968      0.99961     2.18061    0.00945     3.18968
      H   11    0.09499      0.00000     0.40393    0.00108     0.40501
      H   12    0.09848      0.00000     0.40045    0.00107     0.40152
      H   13    0.09588      0.00000     0.40289    0.00123     0.40412
      H   14    0.09182      0.00000     0.40695    0.00123     0.40818
      H   15    0.09705      0.00000     0.40145    0.00150     0.40295
      H   16    0.09269      0.00000     0.40491    0.00240     0.40731
      H   17    0.09611      0.00000     0.40282    0.00107     0.40389
      H   18    0.10016      0.00000     0.39890    0.00094     0.39984
      H   19    0.09923      0.00000     0.39989    0.00088     0.40077
      H   20    0.09587      0.00000     0.40254    0.00159     0.40413
      H   21    0.09471      0.00000     0.40406    0.00123     0.40529
      H   22    0.09894      0.00000     0.39969    0.00137     0.40106
      H   23    0.09237      0.00000     0.40592    0.00171     0.40763
      H   24    0.09866      0.00000     0.40013    0.00122     0.40134
      H   25    0.09734      0.00000     0.40145    0.00121     0.40266
      H   26    0.09110      0.00000     0.40741    0.00149     0.40890
      H   27    0.09259      0.00000     0.40588    0.00152     0.40741
      H   28    0.09817      0.00000     0.40063    0.00120     0.40183
      H   29    0.10075      0.00000     0.39808    0.00117     0.39925
      H   30    0.09518      0.00000     0.40349    0.00133     0.40482
 =======================================================================
   * Total *    0.00000      9.99619    29.89304    0.11077    40.00000

 Normal termination of Gaussian 16 at Tue Dec  8 11:50:57 2020.
