 Gaussian 16, Revision A.03,

 -----------------------------------------------------------
 # opt freq B3LYP/6-31G(d) empiricaldispersion=gd3bj scf=xqc
 -----------------------------------------------------------

 -------------------------------
 CID_115891256_JID_5355_neutraal
 -------------------------------
 Symbolic Z-matrix:
 Charge =  0 Multiplicity = 1

 SCF Done:  E(RB3LYP) =  -713.456329698     A.U. after   13 cycles
 SCF Done:  E(RB3LYP) =  -713.460355209     A.U. after   11 cycles
 SCF Done:  E(RB3LYP) =  -713.460558335     A.U. after   11 cycles
 SCF Done:  E(RB3LYP) =  -713.461506608     A.U. after   11 cycles
 SCF Done:  E(RB3LYP) =  -713.461719503     A.U. after   10 cycles
 SCF Done:  E(RB3LYP) =  -713.461925949     A.U. after   11 cycles
 SCF Done:  E(RB3LYP) =  -713.462010638     A.U. after   10 cycles
 SCF Done:  E(RB3LYP) =  -713.462099886     A.U. after    9 cycles
 SCF Done:  E(RB3LYP) =  -713.462110840     A.U. after    9 cycles
 SCF Done:  E(RB3LYP) =  -713.462123447     A.U. after    9 cycles
 SCF Done:  E(RB3LYP) =  -713.462124656     A.U. after    9 cycles
 SCF Done:  E(RB3LYP) =  -713.462125077     A.U. after    7 cycles
 SCF Done:  E(RB3LYP) =  -713.462125123     A.U. after    7 cycles
 SCF Done:  E(RB3LYP) =  -713.462125137     A.U. after    6 cycles
 Optimization completed.
    -- Stationary point found.
 Normal termination of Gaussian 16 at Thu Dec 10 15:43:28 2020.

 --------------------------------------------------------------------
 #N Geom=AllCheck Guess=TCheck SCRF=Check GenChk RB3LYP/6-31G(d) Freq
 --------------------------------------------------------------------

 Structure from the checkpoint file:  "JID_5355.chk"
 -------------------------------
 CID_115891256_JID_5355_neutraal
 -------------------------------
 Charge =  0 Multiplicity = 1

 SCF Done:  E(RB3LYP) =  -713.462125137     A.U. after    1 cycles

  Exact polarizability: 146.698  -1.977 124.466   3.438   0.572 121.826
 Approx polarizability: 178.630  -3.794 181.750  -0.634  -0.000 175.993

                      1                      2                      3
                      A                      A                      A
 Frequencies --     20.6606                43.0541                64.7340
 Red. masses --      4.4979                 3.4350                 3.0113
 Frc consts  --      0.0011                 0.0038                 0.0074
 IR Inten    --      0.5539                 0.0630                 0.8146

                      4                      5                      6
                      A                      A                      A
 Frequencies --     74.1548               106.5387               119.8386
 Red. masses --      3.4047                 3.8952                 3.0494
 Frc consts  --      0.0110                 0.0260                 0.0258
 IR Inten    --      0.6725                 0.0800                10.4462

                      7                      8                      9
                      A                      A                      A
 Frequencies --    151.0362               167.1007               180.2553
 Red. masses --      2.2284                 3.0766                 2.8254
 Frc consts  --      0.0300                 0.0506                 0.0541
 IR Inten    --      0.3534                 0.6050                 0.7940

                     10                     11                     12
                      A                      A                      A
 Frequencies --    227.0244               233.6853               249.2666
 Red. masses --      1.4953                 1.7507                 1.7354
 Frc consts  --      0.0454                 0.0563                 0.0635
 IR Inten    --      0.7728                 7.0131                 0.5396

                     13                     14                     15
                      A                      A                      A
 Frequencies --    253.3816               269.5413               283.4291
 Red. masses --      1.8711                 2.1840                 1.4756
 Frc consts  --      0.0708                 0.0935                 0.0698
 IR Inten    --      2.7366                 1.9333                40.3303

                     16                     17                     18
                      A                      A                      A
 Frequencies --    311.6318               340.6437               362.1332
 Red. masses --      2.3818                 2.2379                 2.6690
 Frc consts  --      0.1363                 0.1530                 0.2062
 IR Inten    --     11.6815                68.8466                 1.3503

                     19                     20                     21
                      A                      A                      A
 Frequencies --    390.3064               415.6300               432.5314
 Red. masses --      2.7645                 2.0296                 2.4324
 Frc consts  --      0.2481                 0.2066                 0.2681
 IR Inten    --      6.4575                 5.1551                 5.0119

                     22                     23                     24
                      A                      A                      A
 Frequencies --    467.1189               495.7139               504.6114
 Red. masses --      2.4276                 2.6542                 4.4967
 Frc consts  --      0.3121                 0.3843                 0.6746
 IR Inten    --      7.0732                 4.5879                17.8528

                     25                     26                     27
                      A                      A                      A
 Frequencies --    581.6472               596.0918               620.7157
 Red. masses --      3.4693                 1.7974                 2.2679
 Frc consts  --      0.6915                 0.3763                 0.5148
 IR Inten    --      1.0530                 8.1258                16.8759

                     28                     29                     30
                      A                      A                      A
 Frequencies --    729.5877               814.0479               836.9067
 Red. masses --      2.3218                 2.0587                 1.6890
 Frc consts  --      0.7282                 0.8038                 0.6970
 IR Inten    --     64.4370                 4.0567                 2.0349

                     31                     32                     33
                      A                      A                      A
 Frequencies --    849.5375               882.7600               923.6237
 Red. masses --      2.2548                 2.5807                 2.2373
 Frc consts  --      0.9588                 1.1849                 1.1245
 IR Inten    --      9.8381                 7.8493                13.0834

                     34                     35                     36
                      A                      A                      A
 Frequencies --    931.6163               948.9015               957.6816
 Red. masses --      2.1757                 1.7764                 1.7656
 Frc consts  --      1.1126                 0.9424                 0.9541
 IR Inten    --      3.4680                 8.7063                 4.2585

                     37                     38                     39
                      A                      A                      A
 Frequencies --    978.5869              1001.8381              1011.0443
 Red. masses --      2.2264                 2.5933                 1.3910
 Frc consts  --      1.2562                 1.5335                 0.8378
 IR Inten    --     16.6857                48.4987                 8.4812

                     40                     41                     42
                      A                      A                      A
 Frequencies --   1027.7004              1049.8003              1072.8053
 Red. masses --      1.9423                 2.5081                 3.1079
 Frc consts  --      1.2086                 1.6286                 2.1075
 IR Inten    --      2.3783                35.0127                23.1019

                     43                     44                     45
                      A                      A                      A
 Frequencies --   1092.5170              1119.6537              1124.3856
 Red. masses --      2.0202                 2.6028                 3.2675
 Frc consts  --      1.4207                 1.9225                 2.4339
 IR Inten    --     52.5884                42.9703                57.6764

                     46                     47                     48
                      A                      A                      A
 Frequencies --   1131.1717              1144.4644              1164.5551
 Red. masses --      2.1050                 2.1369                 3.7278
 Frc consts  --      1.5869                 1.6491                 2.9787
 IR Inten    --     21.0989                 1.9210                71.9650

                     49                     50                     51
                      A                      A                      A
 Frequencies --   1173.3802              1179.7178              1201.0994
 Red. masses --      3.2452                 1.8169                 1.4970
 Frc consts  --      2.6325                 1.4898                 1.2724
 IR Inten    --     58.4988                22.0195                 2.1461

                     52                     53                     54
                      A                      A                      A
 Frequencies --   1207.9819              1218.7792              1233.8467
 Red. masses --      1.4996                 1.6882                 1.6701
 Frc consts  --      1.2892                 1.4775                 1.4980
 IR Inten    --      5.9814                 1.4934                25.0082

                     55                     56                     57
                      A                      A                      A
 Frequencies --   1240.8633              1272.7023              1279.7608
 Red. masses --      1.5184                 1.2001                 1.2627
 Frc consts  --      1.3775                 1.1453                 1.2185
 IR Inten    --     25.2166                 4.2720                25.2600

                     58                     59                     60
                      A                      A                      A
 Frequencies --   1290.5000              1310.1922              1318.3140
 Red. masses --      1.3288                 1.2400                 1.3424
 Frc consts  --      1.3038                 1.2541                 1.3746
 IR Inten    --      8.9988                 7.9894                 6.9083

                     61                     62                     63
                      A                      A                      A
 Frequencies --   1342.9826              1347.5864              1370.0898
 Red. masses --      1.2723                 1.2330                 1.5009
 Frc consts  --      1.3520                 1.3192                 1.6600
 IR Inten    --      5.2117                 2.3317                 6.4392

                     64                     65                     66
                      A                      A                      A
 Frequencies --   1378.1961              1394.9767              1398.4857
 Red. masses --      1.2592                 1.3728                 1.3152
 Frc consts  --      1.4091                 1.5739                 1.5155
 IR Inten    --     11.9591                 2.7340                 7.5149

                     67                     68                     69
                      A                      A                      A
 Frequencies --   1402.6792              1415.1240              1420.2305
 Red. masses --      1.2548                 1.3052                 1.4647
 Frc consts  --      1.4546                 1.5399                 1.7407
 IR Inten    --      4.2937                23.3412                 3.9488

                     70                     71                     72
                      A                      A                      A
 Frequencies --   1424.3720              1427.4621              1440.1000
 Red. masses --      1.3801                 1.2521                 1.2904
 Frc consts  --      1.6497                 1.5032                 1.5767
 IR Inten    --      5.6561                38.7353                23.4980

                     73                     74                     75
                      A                      A                      A
 Frequencies --   1446.9850              1503.2735              1507.2578
 Red. masses --      1.3303                 1.1571                 1.1005
 Frc consts  --      1.6411                 1.5406                 1.4731
 IR Inten    --     16.3603                 4.0376                 2.5340

                     76                     77                     78
                      A                      A                      A
 Frequencies --   1513.2691              1515.0291              1518.2000
 Red. masses --      1.0843                 1.0618                 1.0773
 Frc consts  --      1.4629                 1.4359                 1.4629
 IR Inten    --      3.7171                15.9355                 3.7382

                     79                     80                     81
                      A                      A                      A
 Frequencies --   1521.3156              1524.1979              1529.7789
 Red. masses --      1.0828                 1.0779                 1.0836
 Frc consts  --      1.4765                 1.4755                 1.4940
 IR Inten    --      0.3129                27.8804                 1.2196

                     82                     83                     84
                      A                      A                      A
 Frequencies --   1532.9944              1535.4892              1547.3205
 Red. masses --      1.0566                 1.0884                 1.1475
 Frc consts  --      1.4630                 1.5120                 1.6186
 IR Inten    --      4.6927                 1.7933                18.8364

                     85                     86                     87
                      A                      A                      A
 Frequencies --   1560.1557              2957.3118              2962.1833
 Red. masses --      1.0849                 1.0804                 1.0726
 Frc consts  --      1.5559                 5.5669                 5.5452
 IR Inten    --      8.2127                 6.0404                21.0320

                     88                     89                     90
                      A                      A                      A
 Frequencies --   2971.4603              2982.5510              2990.6513
 Red. masses --      1.0733                 1.0532                 1.0711
 Frc consts  --      5.5835                 5.5200                 5.6443
 IR Inten    --    131.5527                28.4876                89.4134

                     91                     92                     93
                      A                      A                      A
 Frequencies --   2997.0897              3017.5873              3034.1835
 Red. masses --      1.0418                 1.1036                 1.0847
 Frc consts  --      5.5135                 5.9206                 5.8835
 IR Inten    --     58.1837                72.8190                40.2491

                     94                     95                     96
                      A                      A                      A
 Frequencies --   3040.8759              3042.0158              3045.1596
 Red. masses --      1.0878                 1.0793                 1.0623
 Frc consts  --      5.9263                 5.8844                 5.8038
 IR Inten    --     49.3220                35.0284                24.5025

                     97                     98                     99
                      A                      A                      A
 Frequencies --   3057.1697              3084.9690              3090.8412
 Red. masses --      1.0358                 1.0912                 1.1037
 Frc consts  --      5.7036                 6.1185                 6.2126
 IR Inten    --     24.8064                26.0537                28.9348

                    100                    101                    102
                      A                      A                      A
 Frequencies --   3105.0741              3107.4353              3109.7729
 Red. masses --      1.0916                 1.0940                 1.0954
 Frc consts  --      6.2008                 6.2241                 6.2412
 IR Inten    --     47.9776                44.4491                23.5906

                    103                    104                    105
                      A                      A                      A
 Frequencies --   3122.2308              3138.1548              3141.2165
 Red. masses --      1.1018                 1.0974                 1.0852
 Frc consts  --      6.3284                 6.3676                 6.3089
 IR Inten    --     35.1692                26.6171                18.8485

                    106                    107                    108
                      A                      A                      A
 Frequencies --   3143.1623              3562.9905              3713.3531
 Red. masses --      1.1023                 1.0725                 1.0658
 Frc consts  --      6.4164                 8.0218                 8.6584
 IR Inten    --     28.9179                 4.2127                 6.7509

 - Thermochemistry -
 -------------------
 Temperature   298.150 Kelvin.  Pressure   1.00000 Atm.
 Atom     1 has atomic number  6 and mass  12.00000

 Molecular mass:   217.16779 amu.
 Principal axes and moments of inertia in atomic units:
                           1         2         3
     Eigenvalues --  2185.703335278.283215554.03301
           X            0.99991  -0.01339   0.00059
           Y            0.01329   0.99598   0.08854
           Z           -0.00177  -0.08852   0.99607
 This molecule is an asymmetric top.
 Rotational symmetry number  1.
 Warning -- assumption of classical behavior for rotation
           may cause significant error
 Rotational temperatures (Kelvin)      0.03963     0.01641     0.01559
 Rotational constants (GHZ):           0.82570     0.34192     0.32494
 Zero-point vibrational energy     906875.8 (Joules/Mol)
                                  216.74851 (Kcal/Mol)
 Warning -- explicit consideration of  27 degrees of freedom as
           vibrations may cause significant error
 Vibrational temperatures:     29.73    61.95    93.14   106.69   153.29
          (Kelvin)            172.42   217.31   240.42   259.35   326.64
                              336.22   358.64   364.56   387.81   407.79
                              448.37   490.11   521.03   561.56   598.00
                              622.32   672.08   713.22   726.02   836.86
                              857.64   893.07  1049.71  1171.23  1204.12
                             1222.29  1270.09  1328.89  1340.39  1365.26
                             1377.89  1407.97  1441.42  1454.67  1478.63
                             1510.43  1543.53  1571.89  1610.93  1617.74
                             1627.50  1646.63  1675.54  1688.23  1697.35
                             1728.11  1738.02  1753.55  1775.23  1785.33
                             1831.13  1841.29  1856.74  1885.07  1896.76
                             1932.25  1938.88  1971.25  1982.92  2007.06
                             2012.11  2018.14  2036.05  2043.39  2049.35
                             2053.80  2071.98  2081.89  2162.88  2168.61
                             2177.26  2179.79  2184.35  2188.83  2192.98
                             2201.01  2205.64  2209.23  2226.25  2244.72
                             4254.91  4261.92  4275.27  4291.23  4302.88
                             4312.14  4341.64  4365.51  4375.14  4376.78
                             4381.31  4398.59  4438.58  4447.03  4467.51
                             4470.91  4474.27  4492.19  4515.10  4519.51
                             4522.31  5126.35  5342.69

 Zero-point correction=                           0.345411 (Hartree/Particle)
 Thermal correction to Energy=                    0.362156
 Thermal correction to Enthalpy=                  0.363100
 Thermal correction to Gibbs Free Energy=         0.300523
 Sum of electronic and zero-point Energies=           -713.116714
 Sum of electronic and thermal Energies=              -713.099970
 Sum of electronic and thermal Enthalpies=            -713.099025
 Sum of electronic and thermal Free Energies=         -713.161602

                     E (Thermal)             CV                S
                      KCal/Mol        Cal/Mol-Kelvin    Cal/Mol-Kelvin
 Total                  227.256             62.879            131.704
 Electronic               0.000              0.000              0.000
 Translational            0.889              2.981             42.030
 Rotational               0.889              2.981             32.527
 Vibrational            225.479             56.918             57.147
 Vibration     1          0.593              1.986              6.570
 Vibration     2          0.595              1.980              5.113
 Vibration     3          0.597              1.971              4.307
 Vibration     4          0.599              1.966              4.040
 Vibration     5          0.605              1.944              3.331
 Vibration     6          0.609              1.933              3.103
 Vibration     7          0.618              1.902              2.659
 Vibration     8          0.624              1.883              2.468
 Vibration     9          0.629              1.867              2.326
 Vibration    10          0.651              1.800              1.902
 Vibration    11          0.654              1.789              1.850
 Vibration    12          0.662              1.764              1.736
 Vibration    13          0.665              1.757              1.707
 Vibration    14          0.674              1.729              1.599
 Vibration    15          0.682              1.704              1.513
 Vibration    16          0.700              1.652              1.354
 Vibration    17          0.720              1.594              1.209
 Vibration    18          0.736              1.550              1.113
 Vibration    19          0.758              1.491              0.999
 Vibration    20          0.779              1.436              0.907
 Vibration    21          0.793              1.399              0.850
 Vibration    22          0.824              1.323              0.746
 Vibration    23          0.851              1.260              0.669
 Vibration    24          0.860              1.240              0.647
 Vibration    25          0.938              1.071              0.482
 Vibration    26          0.954              1.040              0.456
 Vibration    27          0.981              0.988              0.415

 Optimization completed.
    -- Stationary point found.
 Normal termination of Gaussian 16 at Thu Dec 10 15:58:40 2020.

 ----------------------------------------------------------------------
 # B3LYP/6-311++G(d,p) empiricaldispersion=gd3bj scf=xqc pop=npa geom=c
 heck
 ----------------------------------------------------------------------

 ---------------------------------------
 CID_115891256_JID_5355_Energie_neutraal
 ---------------------------------------
 Structure from the checkpoint file:  "JID_5355.chk"
 Charge =  0 Multiplicity = 1

 SCF Done:  E(RB3LYP) =  -713.681323754     A.U. after   14 cycles
 Normal termination of Gaussian 16 at Thu Dec 10 16:06:00 2020.

 ----------------------------------------------------------------------
 # B3LYP/6-311++G(d,p) empiricaldispersion=gd3bj scf=xqc pop=npa geom=c
 heck
 ----------------------------------------------------------------------

 -------------------------------------
 CID_115891256_JID_5355_Energie_kation
 -------------------------------------
 Structure from the checkpoint file:  "JID_5355.chk"
 Charge =  1 Multiplicity = 2

 SCF Done:  E(UB3LYP) =  -713.389543541     A.U. after   22 cycles
 Normal termination of Gaussian 16 at Thu Dec 10 16:22:41 2020.
 Gaussian 16:  ES64L-G16RevA.03 25-Dec-2016

 ----------------------------------------------------------------------
 # B3LYP/6-311++G(d,p) empiricaldispersion=gd3bj scf=xqc pop=npa geom=c
 heck
 ----------------------------------------------------------------------

 ------------------------------------
 CID_115891256_JID_5355_Energie_anion
 ------------------------------------
 Structure from the checkpoint file:  "JID_5355.chk"
 Charge = -1 Multiplicity = 2

                         Standard orientation:
 ---------------------------------------------------------------------
 Center     Atomic      Atomic             Coordinates (Angstroms)
 Number     Number       Type             X           Y           Z
 ---------------------------------------------------------------------
      1          6           0        3.712502   -0.551348    1.457084
      2          6           0        2.923890    0.367131    0.519545
      3          6           0        2.706507   -0.306184   -0.845393
      4          8           0        1.804124   -1.386489   -0.668618
      5          6           0        1.525254   -2.071913   -1.871058
      6          7           0        1.699506    0.783588    1.204564
      7          6           0        0.857260    1.768127    0.529652
      8          6           0       -0.182532    1.274285   -0.505007
      9          6           0       -1.496155    0.750093    0.099816
     10          6           0       -1.312687   -0.357660    1.151756
     11          6           0       -2.667806   -0.912282    1.599121
     12          8           0       -3.445578   -1.382368    0.510061
     13          6           0       -3.718694   -0.340698   -0.418286
     14          6           0       -2.435426    0.239589   -1.005857
     15          8           0       -0.460124    2.325438   -1.441387
     16          1           0        3.166342   -1.487016    1.620026
     17          1           0        3.865114   -0.062881    2.423218
     18          1           0        4.688246   -0.804728    1.028203
     19          1           0        3.515218    1.274518    0.331864
     20          1           0        2.301298    0.412335   -1.575394
     21          1           0        3.666628   -0.672640   -1.245883
     22          1           0        1.066658   -1.405348   -2.618685
     23          1           0        2.436880   -2.508235   -2.308005
     24          1           0        0.823212   -2.874390   -1.631042
     25          1           0        1.166970   -0.046947    1.440379
     26          1           0        0.325826    2.357804    1.294625
     27          1           0        1.517762    2.467378    0.004698
     28          1           0        0.255892    0.476326   -1.106329
     29          1           0       -1.986871    1.604128    0.601555
     30          1           0       -0.709776   -1.169876    0.725882
     31          1           0       -0.788824    0.022968    2.037358
     32          1           0       -2.538906   -1.765138    2.272209
     33          1           0       -3.224311   -0.129169    2.145258
     34          1           0       -4.302581    0.456102    0.077017
     35          1           0       -4.347193   -0.784987   -1.195854
     36          1           0       -2.663920    1.046214   -1.709637
     37          1           0       -1.921350   -0.549729   -1.571367
     38          1           0       -0.868911    3.050720   -0.940732
 ---------------------------------------------------------------------

 SCF Done:  E(UB3LYP) =  -713.666620518     A.U. after   29 cycles

 The electronic state is 2-A.
 Alpha  occ. eigenvalues --  -19.03792 -19.03129 -19.02177 -14.19808 -10.12404
 Alpha  occ. eigenvalues --  -10.12181 -10.12089 -10.11916 -10.11786 -10.10746
 Alpha  occ. eigenvalues --  -10.09260 -10.07983 -10.07596 -10.06822 -10.06443
 Alpha  occ. eigenvalues --   -0.95070  -0.94656  -0.92353  -0.81143  -0.71861
 Alpha  occ. eigenvalues --   -0.67918  -0.67151  -0.62535  -0.60769  -0.56180
 Alpha  occ. eigenvalues --   -0.55587  -0.54583  -0.50754  -0.48791  -0.47482
 Alpha  occ. eigenvalues --   -0.41860  -0.40700  -0.39743  -0.39193  -0.38280
 Alpha  occ. eigenvalues --   -0.37614  -0.37331  -0.36218  -0.35162  -0.34163
 Alpha  occ. eigenvalues --   -0.33271  -0.32507  -0.31597  -0.30669  -0.30506
 Alpha  occ. eigenvalues --   -0.29603  -0.27696  -0.26838  -0.26467  -0.25795
 Alpha  occ. eigenvalues --   -0.25558  -0.24955  -0.23817  -0.22897  -0.21957
 Alpha  occ. eigenvalues --   -0.21312  -0.18870  -0.17550  -0.16486  -0.12487
 Alpha  occ. eigenvalues --    0.04335
 Alpha virt. eigenvalues --    0.05741   0.06895   0.07172   0.07987   0.08436
 Alpha virt. eigenvalues --    0.08723   0.09467   0.10049   0.10316   0.10789
 Alpha virt. eigenvalues --    0.11151   0.11581   0.11986   0.12732   0.12895

  Beta  occ. eigenvalues --  -19.03788 -19.03122 -19.02144 -14.19806 -10.12391
  Beta  occ. eigenvalues --  -10.12153 -10.12075 -10.11897 -10.11782 -10.10739
  Beta  occ. eigenvalues --  -10.09242 -10.07963 -10.07593 -10.06813 -10.06428
  Beta  occ. eigenvalues --   -0.95060  -0.94643  -0.92286  -0.81130  -0.71830
  Beta  occ. eigenvalues --   -0.67892  -0.67130  -0.62501  -0.60734  -0.56129
  Beta  occ. eigenvalues --   -0.55549  -0.54556  -0.50697  -0.48754  -0.47433
  Beta  occ. eigenvalues --   -0.41831  -0.40658  -0.39713  -0.39165  -0.38252
  Beta  occ. eigenvalues --   -0.37586  -0.37289  -0.36190  -0.35140  -0.34123
  Beta  occ. eigenvalues --   -0.33246  -0.32484  -0.31577  -0.30635  -0.30475
  Beta  occ. eigenvalues --   -0.29578  -0.27668  -0.26815  -0.26438  -0.25771
  Beta  occ. eigenvalues --   -0.25524  -0.24918  -0.23778  -0.22863  -0.21922
  Beta  occ. eigenvalues --   -0.21286  -0.18838  -0.17532  -0.16453  -0.12475
  Beta virt. eigenvalues --    0.06438   0.06957   0.07342   0.07586   0.08407
  Beta virt. eigenvalues --    0.08963   0.09084   0.09846   0.10267   0.10780
  Beta virt. eigenvalues --    0.11117   0.11386   0.11844   0.12245   0.12889

 Mulliken charges and spin densities:
               1          2
     1  C    0.750054  -1.226003
     2  C   -0.776372   0.305328
     3  C   -0.093754  -0.230613
     4  O   -0.122598   0.031840
     5  C    0.596010  -0.841635
     6  N    0.133626   0.015901
     7  C   -0.850776   0.266319
     8  C    0.411615  -0.671058
     9  C    0.568267  -0.181599
    10  C   -0.340857   0.007408
    11  C    0.154763  -0.860389
    12  O   -0.138290   0.041133
    13  C    0.148746  -0.670524
    14  C   -0.250278   0.090240
    15  O   -0.126454  -0.015909
    16  H    0.065676   0.088968
    17  H    0.071339   0.087478
    18  H   -0.136859   0.269424
    19  H   -0.230909   0.377784
    20  H    0.034810   0.125532
    21  H   -0.382747   0.553055
    22  H   -0.131625   0.270425
    23  H   -0.357800   0.499120
    24  H   -0.077643   0.215727
    25  H    0.294052  -0.080851
    26  H   -0.407992   0.609003
    27  H    0.074597   0.104184
    28  H    0.314154  -0.073751
    29  H   -0.146003   0.352668
    30  H    0.280395  -0.078169
    31  H   -0.009950   0.128339
    32  H    0.078340   0.093133
    33  H   -0.155561   0.299487
    34  H   -0.177985   0.304091
    35  H   -0.004344   0.185060
    36  H   -0.063678   0.204363
    37  H    0.169069  -0.011754
    38  H   -0.163040   0.416245
 Sum of Mulliken charges =  -1.00000   1.00000

 Dipole moment (field-independent basis, Debye):
    X=             -1.1327    Y=             -2.1102    Z=              1.4728  Tot=              2.8116
 Quadrupole moment (field-independent basis, Debye-Ang):
   XX=           -171.6164   YY=           -146.7867   ZZ=           -135.5242
   XY=             10.0305   XZ=              7.9203   YZ=             -4.6890

 Summary of Natural Population Analysis:

                                       Natural Population
                Natural  -----------------------------------------------
    Atom  No    Charge         Core      Valence    Rydberg      Total
 -----------------------------------------------------------------------
      C    1   -0.28777      0.99964     2.28139    0.00674     3.28777
      C    2   -0.01649      0.99960     2.00384    0.01306     3.01649
      C    3   -0.01881      0.99956     2.00660    0.01265     3.01881
      O    4   -0.30554      0.99988     3.29617    0.00948     4.30554
      C    5   -0.09712      0.99962     2.08808    0.00942     3.09712
      N    6   -0.34547      0.99974     2.83371    0.01202     3.84547
      C    7   -0.10064      0.99960     2.08751    0.01353     3.10064
      C    8    0.05222      0.99952     1.93444    0.01382     2.94778
      C    9   -0.11923      0.99957     2.10572    0.01394     3.11923
      C   10   -0.21198      0.99960     2.20364    0.00874     3.21198
      C   11   -0.00674      0.99958     1.99423    0.01292     3.00674
      O   12   -0.30054      0.99989     3.29181    0.00884     4.30054
      C   13   -0.00897      0.99958     1.99664    0.01275     3.00897
      C   14   -0.20479      0.99961     2.19602    0.00916     3.20479
      O   15   -0.37128      0.99990     3.36527    0.00611     4.37128
      H   16    0.10058      0.00000     0.39822    0.00120     0.39942
      H   17    0.10222      0.00000     0.39675    0.00104     0.39778
      H   18    0.09933      0.00000     0.39986    0.00081     0.40067
      H   19    0.09277      0.00000     0.40600    0.00123     0.40723
      H   20    0.08308      0.00000     0.41542    0.00150     0.41692
      H   21    0.08490      0.00000     0.41338    0.00172     0.41510
      H   22    0.07920      0.00000     0.41958    0.00122     0.42080
      H   23    0.08173      0.00000     0.41660    0.00167     0.41827
      H   24    0.09006      0.00000     0.40890    0.00104     0.40994
      H   25    0.17708      0.00000     0.31877    0.00415     0.32292
      H   26    0.09280      0.00000     0.40573    0.00147     0.40720
      H   27    0.09957      0.00000     0.39888    0.00155     0.40043
      H   28    0.08996      0.00000     0.40613    0.00391     0.41004
      H   29    0.09509      0.00000     0.40160    0.00331     0.40491
      H   30    0.10385      0.00000     0.39431    0.00184     0.39615
      H   31    0.10155      0.00000     0.39729    0.00116     0.39845
      H   32    0.08963      0.00000     0.40935    0.00102     0.41037
      H   33    0.07695      0.00000     0.42165    0.00140     0.42305
      H   34    0.07731      0.00000     0.42120    0.00149     0.42269
      H   35    0.08946      0.00000     0.40949    0.00105     0.41054
      H   36    0.11079      0.00000     0.38804    0.00117     0.38921
      H   37    0.09677      0.00000     0.40175    0.00148     0.40323
      H   38    0.22846      0.00000     0.26652    0.00502     0.27154
 =======================================================================
   * Total *    0.00000     14.99488    44.80048    0.20464    60.00000

 Normal termination of Gaussian 16 at Thu Dec 10 16:46:45 2020.
