 Gaussian 16, Revision A.03,

 -----------------------------------------------------------
 # opt freq B3LYP/6-31G(d) empiricaldispersion=gd3bj scf=xqc
 -----------------------------------------------------------

 --------------------------------
 CID_124194590_JID_10984_neutraal
 --------------------------------
 Symbolic Z-matrix:
 Charge =  0 Multiplicity = 1

 SCF Done:  E(RB3LYP) =  -1259.26886195     A.U. after   16 cycles
 SCF Done:  E(RB3LYP) =  -1259.28115442     A.U. after   12 cycles
 SCF Done:  E(RB3LYP) =  -1259.28216500     A.U. after   11 cycles
 SCF Done:  E(RB3LYP) =  -1259.28234980     A.U. after   12 cycles
 SCF Done:  E(RB3LYP) =  -1259.28242618     A.U. after   11 cycles
 SCF Done:  E(RB3LYP) =  -1259.28245600     A.U. after   10 cycles
 SCF Done:  E(RB3LYP) =  -1259.28250179     A.U. after   11 cycles
 SCF Done:  E(RB3LYP) =  -1259.28261497     A.U. after   12 cycles
 SCF Done:  E(RB3LYP) =  -1259.28251927     A.U. after   14 cycles
 SCF Done:  E(RB3LYP) =  -1259.28288087     A.U. after   11 cycles
 SCF Done:  E(RB3LYP) =  -1259.28695835     A.U. after    9 cycles
 SCF Done:  E(RB3LYP) =  -1259.28714086     A.U. after   11 cycles
 SCF Done:  E(RB3LYP) =  -1259.28716090     A.U. after   11 cycles
 SCF Done:  E(RB3LYP) =  -1259.28716643     A.U. after   10 cycles
 SCF Done:  E(RB3LYP) =  -1259.28716863     A.U. after    9 cycles
 SCF Done:  E(RB3LYP) =  -1259.28716870     A.U. after    7 cycles
 Optimization completed.
    -- Stationary point found.
 Normal termination of Gaussian 16 at Mon Dec 14 17:58:37 2020.

 --------------------------------------------------------------------
 #N Geom=AllCheck Guess=TCheck SCRF=Check GenChk RB3LYP/6-31G(d) Freq
 --------------------------------------------------------------------

 Structure from the checkpoint file:  "JID_10984.chk"
 --------------------------------
 CID_124194590_JID_10984_neutraal
 --------------------------------
 Charge =  0 Multiplicity = 1

 SCF Done:  E(RB3LYP) =  -1259.28716870     A.U. after    1 cycles

  Exact polarizability: 300.405  -4.082 210.522   4.857   7.493  95.162
 Approx polarizability: 476.843 -30.659 359.274   8.261  31.775 157.206

                      1                      2                      3
                      A                      A                      A
 Frequencies --     35.5850                49.7306                61.3583
 Red. masses --      3.5963                 5.0867                 2.7873
 Frc consts  --      0.0027                 0.0074                 0.0062
 IR Inten    --      1.7492                 0.1879                 6.2125

                      4                      5                      6
                      A                      A                      A
 Frequencies --     68.3163                80.1430               114.9417
 Red. masses --      2.9473                 4.1886                 4.3111
 Frc consts  --      0.0081                 0.0159                 0.0336
 IR Inten    --      0.3320                 2.2116                 1.0322

                      7                      8                      9
                      A                      A                      A
 Frequencies --    125.1908               140.2123               159.2703
 Red. masses --      6.4688                 3.6654                 3.6197
 Frc consts  --      0.0597                 0.0425                 0.0541
 IR Inten    --      0.8904                 0.7216                 0.7128

                     10                     11                     12
                      A                      A                      A
 Frequencies --    163.6713               167.8926               225.0969
 Red. masses --      1.1148                 1.1683                 3.8075
 Frc consts  --      0.0176                 0.0194                 0.1137
 IR Inten    --      0.0527                 0.3392                 0.3808

                     13                     14                     15
                      A                      A                      A
 Frequencies --    230.4228               246.1012               261.2670
 Red. masses --      5.2214                 3.5194                 4.5442
 Frc consts  --      0.1633                 0.1256                 0.1828
 IR Inten    --      1.3981                 2.3743                 0.1003

                     16                     17                     18
                      A                      A                      A
 Frequencies --    266.5761               291.8428               327.9738
 Red. masses --      1.3230                 4.5605                 5.1662
 Frc consts  --      0.0554                 0.2289                 0.3274
 IR Inten    --      1.6175                 3.1468                 6.3682

                     19                     20                     21
                      A                      A                      A
 Frequencies --    340.3097               375.6028               377.8887
 Red. masses --      5.3458                 1.2845                 5.1535
 Frc consts  --      0.3648                 0.1068                 0.4336
 IR Inten    --     11.8320               127.4388                 6.0367

                     22                     23                     24
                      A                      A                      A
 Frequencies --    398.3904               432.4389               443.0042
 Red. masses --      4.6591                 7.9333                 3.6976
 Frc consts  --      0.4357                 0.8741                 0.4275
 IR Inten    --     20.7868                 0.8408                 2.4023

                     25                     26                     27
                      A                      A                      A
 Frequencies --    473.3521               486.5987               526.7539
 Red. masses --      3.5110                 4.5410                 5.4424
 Frc consts  --      0.4635                 0.6335                 0.8897
 IR Inten    --     47.9443                10.2560                10.2510

                     28                     29                     30
                      A                      A                      A
 Frequencies --    540.0070               593.4001               611.0945
 Red. masses --      5.9560                 6.4282                 5.1286
 Frc consts  --      1.0233                 1.3336                 1.1284
 IR Inten    --      5.7863                 9.1183                 5.3253

                     31                     32                     33
                      A                      A                      A
 Frequencies --    655.9765               686.6664               696.9032
 Red. masses --      5.1704                 4.0378                 6.0576
 Frc consts  --      1.3109                 1.1217                 1.7334
 IR Inten    --     15.0177                 7.5621                 4.0238

                     34                     35                     36
                      A                      A                      A
 Frequencies --    712.8645               716.5897               738.1164
 Red. masses --      5.5687                 5.7697                 5.3235
 Frc consts  --      1.6673                 1.7456                 1.7088
 IR Inten    --      0.5196                 8.7973                 4.3956

                     37                     38                     39
                      A                      A                      A
 Frequencies --    800.7804               835.3250               852.8596
 Red. masses --      5.2843                 5.7459                 1.4821
 Frc consts  --      1.9965                 2.3622                 0.6351
 IR Inten    --      1.0710                25.0398                12.0522

                     40                     41                     42
                      A                      A                      A
 Frequencies --    863.5000               891.3844               900.5818
 Red. masses --      1.5148                 4.5210                 3.4681
 Frc consts  --      0.6655                 2.1165                 1.6572
 IR Inten    --     13.2977                 3.1133                 1.1740

                     43                     44                     45
                      A                      A                      A
 Frequencies --    961.9806               984.8532               985.7181
 Red. masses --      1.3674                 1.3900                 6.0616
 Frc consts  --      0.7455                 0.7944                 3.4701
 IR Inten    --      0.9177                 0.1023                21.3684

                     46                     47                     48
                      A                      A                      A
 Frequencies --   1005.4014              1023.2632              1060.3414
 Red. masses --      6.1207                 2.1340                 2.0097
 Frc consts  --      3.6453                 1.3165                 1.3313
 IR Inten    --      9.0019                28.6967                37.3145

                     49                     50                     51
                      A                      A                      A
 Frequencies --   1069.2409              1079.0389              1128.6537
 Red. masses --      3.3086                 2.4269                 2.8986
 Frc consts  --      2.2287                 1.6649                 2.1755
 IR Inten    --     88.1900                40.9185                35.4701

                     52                     53                     54
                      A                      A                      A
 Frequencies --   1137.0680              1165.1218              1178.4954
 Red. masses --      6.0120                 2.3765                 2.6785
 Frc consts  --      4.5798                 1.9008                 2.1918
 IR Inten    --    146.0289                24.8055                44.8177

                     55                     56                     57
                      A                      A                      A
 Frequencies --   1186.6181              1187.8497              1220.3345
 Red. masses --      1.2570                 1.2562                 1.4654
 Frc consts  --      1.0428                 1.0443                 1.2858
 IR Inten    --      1.2889                 0.8644                 5.2930

                     58                     59                     60
                      A                      A                      A
 Frequencies --   1223.6415              1233.1550              1263.2108
 Red. masses --      1.4762                 1.6038                 2.2949
 Frc consts  --      1.3023                 1.4369                 2.1576
 IR Inten    --      8.3435                17.3586                18.8583

                     61                     62                     63
                      A                      A                      A
 Frequencies --   1291.7950              1295.2274              1318.5722
 Red. masses --      2.0528                 1.8252                 2.4816
 Frc consts  --      2.0182                 1.8040                 2.5421
 IR Inten    --     12.3058                 4.5165                42.6678

                     64                     65                     66
                      A                      A                      A
 Frequencies --   1365.7054              1375.8379              1404.4791
 Red. masses --      1.6483                 4.1238                 2.5295
 Frc consts  --      1.8114                 4.5992                 2.9398
 IR Inten    --     44.8300                18.4104               251.9154

                     67                     68                     69
                      A                      A                      A
 Frequencies --   1430.4773              1430.9276              1436.6119
 Red. masses --      1.9830                 1.4624                 1.7198
 Frc consts  --      2.3907                 1.7643                 2.0913
 IR Inten    --      8.0420                14.0236               137.7036

                     70                     71                     72
                      A                      A                      A
 Frequencies --   1450.5893              1464.2012              1499.2942
 Red. masses --      2.6380                 3.1275                 1.2894
 Frc consts  --      3.2705                 3.9505                 1.7077
 IR Inten    --      4.5174                21.0054                 0.9910

                     73                     74                     75
                      A                      A                      A
 Frequencies --   1510.5759              1515.9475              1517.2430
 Red. masses --      1.3960                 1.0566                 1.0504
 Frc consts  --      1.8768                 1.4306                 1.4247
 IR Inten    --     18.2379                 6.0901                 6.3015

                     76                     77                     78
                      A                      A                      A
 Frequencies --   1521.0906              1526.0735              1529.2670
 Red. masses --      1.0575                 1.0611                 2.2164
 Frc consts  --      1.4416                 1.4559                 3.0540
 IR Inten    --      1.9472                 7.1217                17.3551

                     79                     80                     81
                      A                      A                      A
 Frequencies --   1533.5091              1534.6341              1606.9016
 Red. masses --      1.0985                 1.1323                 8.4254
 Frc consts  --      1.5221                 1.5711                12.8180
 IR Inten    --      0.6575                 5.2778                11.5869

                     82                     83                     84
                      A                      A                      A
 Frequencies --   1622.4668              1641.3068              1658.8516
 Red. masses --      7.2982                 8.1462                 6.8988
 Frc consts  --     11.3192                12.9296                11.1851
 IR Inten    --      3.9255                23.6421                56.2099

                     85                     86                     87
                      A                      A                      A
 Frequencies --   3033.7722              3038.7031              3053.4835
 Red. masses --      1.0324                 1.0321                 1.0616
 Frc consts  --      5.5981                 5.6149                 5.8319
 IR Inten    --     51.6396                43.8483                 9.8623

                     88                     89                     90
                      A                      A                      A
 Frequencies --   3057.9074              3096.5451              3103.8813
 Red. masses --      1.0580                 1.1069                 1.1073
 Frc consts  --      5.8290                 6.2535                 6.2854
 IR Inten    --     20.1042                27.5839                24.3430

                     91                     92                     93
                      A                      A                      A
 Frequencies --   3125.2203              3146.0209              3157.4541
 Red. masses --      1.1015                 1.1026                 1.1022
 Frc consts  --      6.3385                 6.4296                 6.4744
 IR Inten    --     25.8392                24.4429                34.0703

                     94                     95                     96
                      A                      A                      A
 Frequencies --   3160.7423              3183.4399              3187.5873
 Red. masses --      1.1026                 1.0882                 1.0908
 Frc consts  --      6.4903                 6.4974                 6.5299
 IR Inten    --     28.8633                18.5246                23.9132

                     97                     98                     99
                      A                      A                      A
 Frequencies --   3227.3173              3243.3962              3718.5155
 Red. masses --      1.0934                 1.0925                 1.0660
 Frc consts  --      6.7096                 6.7710                 8.6843
 IR Inten    --     14.7272                 4.8542                13.0990

 - Thermochemistry -
 -------------------
 Temperature   298.150 Kelvin.  Pressure   1.00000 Atm.
 Atom     1 has atomic number  6 and mass  12.00000

 Molecular mass:   289.07727 amu.
 Principal axes and moments of inertia in atomic units:
                           1         2         3
     Eigenvalues --  3431.719368028.13950**********
           X            0.99963   0.02709   0.00085
           Y           -0.02707   0.99948  -0.01754
           Z           -0.00133   0.01751   0.99985
 This molecule is an asymmetric top.
 Rotational symmetry number  1.
 Warning -- assumption of classical behavior for rotation
           may cause significant error
 Rotational temperatures (Kelvin)      0.02524     0.01079     0.00778
 Rotational constants (GHZ):           0.52590     0.22480     0.16213
 Zero-point vibrational energy     724192.6 (Joules/Mol)
                                  173.08617 (Kcal/Mol)
 Warning -- explicit consideration of  30 degrees of freedom as
           vibrations may cause significant error
 Vibrational temperatures:     51.20    71.55    88.28    98.29   115.31
          (Kelvin)            165.38   180.12   201.73   229.15   235.49
                              241.56   323.86   331.53   354.08   375.90
                              383.54   419.90   471.88   489.63   540.41
                              543.70   573.19   622.18   637.38   681.05
                              700.11   757.88   776.95   853.77   879.23
                              943.80   987.96  1002.69  1025.65  1031.01
                             1061.98  1152.14  1201.85  1227.07  1242.38
                             1282.50  1295.74  1384.08  1416.98  1418.23
                             1446.55  1472.25  1525.59  1538.40  1552.50
                             1623.88  1635.99  1676.35  1695.59  1707.28
                             1709.05  1755.79  1760.55  1774.24  1817.48
                             1858.60  1863.54  1897.13  1964.95  1979.52
                             2020.73  2058.14  2058.79  2066.96  2087.07
                             2106.66  2157.15  2173.38  2181.11  2182.97
                             2188.51  2195.68  2200.27  2206.38  2208.00
                             2311.97  2334.37  2361.47  2386.72  4364.92
                             4372.02  4393.28  4399.65  4455.24  4465.79
                             4496.49  4526.42  4542.87  4547.60  4580.26
                             4586.23  4643.39  4666.52  5350.11

 Zero-point correction=                           0.275830 (Hartree/Particle)
 Thermal correction to Energy=                    0.294684
 Thermal correction to Enthalpy=                  0.295628
 Thermal correction to Gibbs Free Energy=         0.228350
 Sum of electronic and zero-point Energies=          -1259.011338
 Sum of electronic and thermal Energies=             -1258.992484
 Sum of electronic and thermal Enthalpies=           -1258.991540
 Sum of electronic and thermal Free Energies=        -1259.058819

                     E (Thermal)             CV                S
                      KCal/Mol        Cal/Mol-Kelvin    Cal/Mol-Kelvin
 Total                  184.917             70.660            141.599
 Electronic               0.000              0.000              0.000
 Translational            0.889              2.981             42.882
 Rotational               0.889              2.981             34.083
 Vibrational            183.140             64.698             64.634
 Vibration     1          0.594              1.982              5.491
 Vibration     2          0.595              1.978              4.828
 Vibration     3          0.597              1.973              4.413
 Vibration     4          0.598              1.969              4.201
 Vibration     5          0.600              1.963              3.887
 Vibration     6          0.608              1.937              3.184
 Vibration     7          0.610              1.928              3.019
 Vibration     8          0.615              1.913              2.801
 Vibration     9          0.621              1.892              2.558
 Vibration    10          0.623              1.887              2.507
 Vibration    11          0.625              1.882              2.459
 Vibration    12          0.650              1.803              1.918
 Vibration    13          0.652              1.795              1.876
 Vibration    14          0.661              1.769              1.758
 Vibration    15          0.669              1.744              1.653
 Vibration    16          0.672              1.734              1.618
 Vibration    17          0.687              1.689              1.463
 Vibration    18          0.711              1.620              1.270
 Vibration    19          0.720              1.595              1.211
 Vibration    20          0.746              1.522              1.057
 Vibration    21          0.748              1.517              1.048
 Vibration    22          0.765              1.474              0.969
 Vibration    23          0.793              1.400              0.851
 Vibration    24          0.803              1.376              0.817
 Vibration    25          0.830              1.309              0.728
 Vibration    26          0.843              1.280              0.692
 Vibration    27          0.882              1.191              0.594
 Vibration    28          0.895              1.162              0.565
 Vibration    29          0.951              1.046              0.461
 Vibration    30          0.970              1.008              0.431

                           ! Non-Optimized Parameters !
 Normal termination of Gaussian 16 at Mon Dec 14 18:15:32 2020.

 ----------------------------------------------------------------------
 # B3LYP/6-311++G(d,p) empiricaldispersion=gd3bj scf=xqc pop=npa geom=c
 heck
 ----------------------------------------------------------------------

 ----------------------------------------
 CID_124194590_JID_10984_Energie_neutraal
 ----------------------------------------
 Structure from the checkpoint file:  "JID_10984.chk"
 Charge =  0 Multiplicity = 1

 SCF Done:  E(RB3LYP) =  -1259.54733843     A.U. after   16 cycles
 Normal termination of Gaussian 16 at Mon Dec 14 18:23:32 2020.

 ----------------------------------------------------------------------
 # B3LYP/6-311++G(d,p) empiricaldispersion=gd3bj scf=xqc pop=npa geom=c
 heck
 ----------------------------------------------------------------------

 --------------------------------------
 CID_124194590_JID_10984_Energie_kation
 --------------------------------------
 Structure from the checkpoint file:  "JID_10984.chk"
 Charge =  1 Multiplicity = 2

 SCF Done:  E(UB3LYP) =  -1259.27879491     A.U. after   25 cycles
 Normal termination of Gaussian 16 at Mon Dec 14 18:41:32 2020.
 Gaussian 16:  ES64L-G16RevA.03 25-Dec-2016

 ----------------------------------------------------------------------
 # B3LYP/6-311++G(d,p) empiricaldispersion=gd3bj scf=xqc pop=npa geom=c
 heck
 ----------------------------------------------------------------------

 -------------------------------------
 CID_124194590_JID_10984_Energie_anion
 -------------------------------------
 Structure from the checkpoint file:  "JID_10984.chk"
 Charge = -1 Multiplicity = 2

                         Standard orientation:
 ---------------------------------------------------------------------
 Center     Atomic      Atomic             Coordinates (Angstroms)
 Number     Number       Type             X           Y           Z
 ---------------------------------------------------------------------
      1          6           0        4.723799    1.466982    0.127772
      2          6           0        4.128241    0.071817    0.315225
      3          6           0        2.624722    0.056599    0.201424
      4          6           0        1.736625    1.074943    0.336870
      5          6           0        0.363435    0.658870    0.200401
      6          6           0       -0.793954    1.422109    0.279863
      7          6           0       -2.057286    0.804474    0.120726
      8          6           0       -2.142290   -0.604240   -0.136852
      9          6           0       -3.438191   -1.156685   -0.308305
     10          6           0       -4.536431   -0.338993   -0.206316
     11          7           0       -4.474054    0.997851    0.063806
     12          6           0       -3.280452    1.528660    0.216956
     13          6           0       -0.956752   -1.375746   -0.217470
     14          6           0        0.260686   -0.746464   -0.048748
     15         16           0        1.844135   -1.503563   -0.130561
     16          8           0       -1.021528   -2.724616   -0.480676
     17          6           0       -1.062836   -3.539970    0.697470
     18          8           0       -0.711837    2.773963    0.530585
     19          6           0       -0.607383    3.572851   -0.651958
     20          8           0        4.711905   -0.877536   -0.579085
     21          1           0        4.447617    1.878041   -0.850240
     22          1           0        5.813613    1.403873    0.187548
     23          1           0        4.372459    2.158620    0.900448
     24          1           0        4.407379   -0.303781    1.307600
     25          1           0        2.017162    2.098996    0.548611
     26          1           0       -3.543181   -2.212365   -0.531973
     27          1           0       -5.538148   -0.740547   -0.339063
     28          1           0       -3.237878    2.591644    0.444253
     29          1           0       -0.164920   -3.392276    1.308975
     30          1           0       -1.952499   -3.313810    1.297765
     31          1           0       -1.104357   -4.574493    0.351712
     32          1           0       -1.487715    3.443254   -1.293395
     33          1           0       -0.546112    4.610520   -0.317987
     34          1           0        0.293555    3.313874   -1.222300
     35          1           0        4.435332   -0.635228   -1.478581
 ---------------------------------------------------------------------

 SCF Done:  E(UB3LYP) =  -1259.56835925     A.U. after   28 cycles

 The electronic state is 2-A.
 Alpha  occ. eigenvalues --  -88.74678 -19.02772 -19.02505 -19.01944 -14.16318
 Alpha  occ. eigenvalues --  -10.13292 -10.11384 -10.11115 -10.08858 -10.07890
 Alpha  occ. eigenvalues --  -10.07806 -10.07480 -10.07259 -10.05857 -10.05818
 Alpha  occ. eigenvalues --  -10.05379 -10.05018 -10.04976 -10.04914 -10.03376
 Alpha  occ. eigenvalues --   -7.83262  -5.79582  -5.79223  -5.78785  -0.93952
 Alpha  occ. eigenvalues --   -0.93372  -0.93110  -0.79728  -0.76004  -0.70607
 Alpha  occ. eigenvalues --   -0.66792  -0.65323  -0.62882  -0.61462  -0.59655
 Alpha  occ. eigenvalues --   -0.59417  -0.55010  -0.54402  -0.50074  -0.48756
 Alpha  occ. eigenvalues --   -0.46241  -0.44120  -0.41583  -0.39807  -0.39109
 Alpha  occ. eigenvalues --   -0.37428  -0.37210  -0.36772  -0.35474  -0.34884
 Alpha  occ. eigenvalues --   -0.34654  -0.34269  -0.33003  -0.32083  -0.30862
 Alpha  occ. eigenvalues --   -0.29615  -0.29296  -0.28986  -0.27910  -0.27826
 Alpha  occ. eigenvalues --   -0.26417  -0.25410  -0.24495  -0.24089  -0.23501
 Alpha  occ. eigenvalues --   -0.22786  -0.21827  -0.19358  -0.18145  -0.16800
 Alpha  occ. eigenvalues --   -0.16211  -0.16168  -0.13618  -0.11920  -0.11780
 Alpha  occ. eigenvalues --   -0.07733   0.02920
 Alpha virt. eigenvalues --    0.06745   0.07954   0.08145   0.08724   0.09101
 Alpha virt. eigenvalues --    0.09797   0.10011   0.10519   0.10969   0.11169
 Alpha virt. eigenvalues --    0.12196   0.12535   0.12624   0.13013   0.13395

  Beta  occ. eigenvalues --  -88.74685 -19.02735 -19.02504 -19.01942 -14.16293
  Beta  occ. eigenvalues --  -10.13311 -10.11362 -10.11074 -10.08628 -10.07831
  Beta  occ. eigenvalues --  -10.07466 -10.07462 -10.06985 -10.05865 -10.05758
  Beta  occ. eigenvalues --  -10.05068 -10.05002 -10.04978 -10.04939 -10.03228
  Beta  occ. eigenvalues --   -7.83267  -5.79591  -5.79232  -5.78796  -0.93874
  Beta  occ. eigenvalues --   -0.93228  -0.93014  -0.79447  -0.75773  -0.70376
  Beta  occ. eigenvalues --   -0.66709  -0.64949  -0.62648  -0.61227  -0.59486
  Beta  occ. eigenvalues --   -0.59303  -0.54851  -0.54185  -0.49686  -0.48636
  Beta  occ. eigenvalues --   -0.45988  -0.43921  -0.41465  -0.39678  -0.38995
  Beta  occ. eigenvalues --   -0.37305  -0.36954  -0.36617  -0.35241  -0.34639
  Beta  occ. eigenvalues --   -0.34579  -0.34218  -0.32931  -0.31999  -0.30682
  Beta  occ. eigenvalues --   -0.29521  -0.29183  -0.28842  -0.27782  -0.27388
  Beta  occ. eigenvalues --   -0.26249  -0.24754  -0.24332  -0.23875  -0.23344
  Beta  occ. eigenvalues --   -0.22706  -0.21689  -0.19073  -0.17677  -0.16765
  Beta  occ. eigenvalues --   -0.16150  -0.15381  -0.12804  -0.11830  -0.11158
  Beta  occ. eigenvalues --   -0.06226
  Beta virt. eigenvalues --    0.06467   0.07957   0.08059   0.08268   0.08769
  Beta virt. eigenvalues --    0.09424   0.09795   0.10159   0.10459   0.10898
  Beta virt. eigenvalues --    0.11143   0.12163   0.12520   0.12604   0.13191

 Mulliken charges and spin densities:
               1          2
     1  C   -0.357082  -0.127962
     2  C   -0.754653   0.221526
     3  C   -0.524315   0.160429
     4  C    0.969334  -0.047911
     5  C    0.879214  -0.064438
     6  C   -1.359586   0.238798
     7  C    0.823067  -0.101857
     8  C    0.748904  -0.034467
     9  C    0.598314   0.099086
    10  C   -0.732919   0.065838
    11  N   -0.048717   0.006420
    12  C   -0.290634   0.229768
    13  C   -1.631684   0.134174
    14  C    0.784350  -0.018405
    15  S   -0.877177  -0.010983
    16  O   -0.190039  -0.002478
    17  C   -0.299607   0.006474
    18  O   -0.180309  -0.001493
    19  C   -0.290580  -0.005925
    20  O   -0.202698  -0.001218
    21  H    0.108014   0.033159
    22  H    0.089598   0.063077
    23  H    0.113576   0.032085
    24  H    0.073177   0.092025
    25  H    0.164775   0.000917
    26  H    0.161781  -0.007319
    27  H    0.133683  -0.005429
    28  H    0.152729  -0.012211
    29  H    0.136950  -0.000535
    30  H    0.125133  -0.001038
    31  H    0.121959   0.005260
    32  H    0.141965  -0.002066
    33  H    0.098951   0.026105
    34  H    0.122739  -0.003436
    35  H    0.191787   0.034034
 Sum of Mulliken charges =  -1.00000   1.00000

 Dipole moment (field-independent basis, Debye):
    X=              4.3855    Y=             -0.0499    Z=             -0.3885  Tot=              4.4029
 Quadrupole moment (field-independent basis, Debye-Ang):
   XX=           -197.9926   YY=           -140.0450   ZZ=           -133.7976
   XY=             17.0573   XZ=             -0.4745   YZ=             -8.2687

 Summary of Natural Population Analysis:

                                       Natural Population
                Natural  -----------------------------------------------
    Atom  No    Charge         Core      Valence    Rydberg      Total
 -----------------------------------------------------------------------
      C    1   -0.29392      0.99965     2.28876    0.00551     3.29392
      C    2    0.04639      0.99950     1.93951    0.01460     2.95361
      C    3   -0.04995      0.99946     2.03809    0.01241     3.04995
      C    4   -0.12011      0.99943     2.11100    0.00968     3.12011
      C    5   -0.05550      0.99944     2.04640    0.00966     3.05550
      C    6    0.24165      0.99928     1.74645    0.01263     2.75835
      C    7   -0.07895      0.99947     2.07207    0.00741     3.07895
      C    8   -0.06023      0.99953     2.04585    0.01485     3.06023
      C    9   -0.09678      0.99944     2.08853    0.00882     3.09678
      C   10    0.01905      0.99960     1.96539    0.01597     2.98095
      N   11   -0.24683      0.99971     2.73451    0.01262     3.74683
      C   12    0.10007      0.99959     1.88498    0.01536     2.89993
      C   13    0.23327      0.99923     1.75326    0.01424     2.76673
      C   14   -0.12229      0.99942     2.10514    0.01773     3.12229
      S   15    0.16833      4.99945     2.81094    0.02128     7.83167
      O   16   -0.30269      0.99987     3.28566    0.01717     4.30269
      C   17   -0.09540      0.99961     2.08729    0.00850     3.09540
      O   18   -0.29366      0.99987     3.28381    0.00999     4.29366
      C   19   -0.09157      0.99960     2.08344    0.00853     3.09157
      O   20   -0.36849      0.99990     3.36153    0.00705     4.36849
      H   21    0.09717      0.00000     0.40123    0.00160     0.40283
      H   22    0.09916      0.00000     0.39935    0.00149     0.40084
      H   23    0.10148      0.00000     0.39735    0.00118     0.39852
      H   24    0.09176      0.00000     0.40642    0.00182     0.40824
      H   25    0.10535      0.00000     0.39308    0.00157     0.39465
      H   26    0.09784      0.00000     0.39989    0.00227     0.40216
      H   27    0.07879      0.00000     0.41983    0.00138     0.42121
      H   28    0.08210      0.00000     0.41627    0.00162     0.41790
      H   29    0.08270      0.00000     0.41577    0.00153     0.41730
      H   30    0.08169      0.00000     0.41690    0.00141     0.41831
      H   31    0.08258      0.00000     0.41638    0.00104     0.41742
      H   32    0.08255      0.00000     0.41612    0.00133     0.41745
      H   33    0.08150      0.00000     0.41717    0.00133     0.41850
      H   34    0.07949      0.00000     0.41864    0.00188     0.42051
      H   35    0.22580      0.00000     0.27113    0.00307     0.27420
 =======================================================================
   * Total *    0.00235     23.99105    51.73810    0.26850    75.99765

 Normal termination of Gaussian 16 at Mon Dec 14 19:01:51 2020.
