 Gaussian 16, Revision A.03,

 -----------------------------------------------------------
 # opt freq B3LYP/6-31G(d) empiricaldispersion=gd3bj scf=xqc
 -----------------------------------------------------------

 -------------------------------
 CID_105492594_JID_7988_neutraal
 -------------------------------
 Symbolic Z-matrix:
 Charge =  0 Multiplicity = 1

 SCF Done:  E(RB3LYP) =  -784.819155445     A.U. after   15 cycles
 SCF Done:  E(RB3LYP) =  -784.833689005     A.U. after   14 cycles
 SCF Done:  E(RB3LYP) =  -784.835110870     A.U. after   12 cycles
 SCF Done:  E(RB3LYP) =  -784.836435473     A.U. after   12 cycles
 SCF Done:  E(RB3LYP) =  -784.837208232     A.U. after   12 cycles
 SCF Done:  E(RB3LYP) =  -784.837156030     A.U. after   12 cycles
 SCF Done:  E(RB3LYP) =  -784.837831253     A.U. after   12 cycles
 SCF Done:  E(RB3LYP) =  -784.837988039     A.U. after   11 cycles
 SCF Done:  E(RB3LYP) =  -784.838061539     A.U. after   11 cycles
 SCF Done:  E(RB3LYP) =  -784.838093276     A.U. after   11 cycles
 SCF Done:  E(RB3LYP) =  -784.838127736     A.U. after    8 cycles
 SCF Done:  E(RB3LYP) =  -784.838128358     A.U. after    8 cycles
 SCF Done:  E(RB3LYP) =  -784.838128487     A.U. after    7 cycles
 SCF Done:  E(RB3LYP) =  -784.838128527     A.U. after    6 cycles
 SCF Done:  E(RB3LYP) =  -784.838128544     A.U. after    6 cycles
 Optimization completed.
    -- Stationary point found.
 Normal termination of Gaussian 16 at Fri Dec 11 13:31:05 2020.

 --------------------------------------------------------------------
 #N Geom=AllCheck Guess=TCheck SCRF=Check GenChk RB3LYP/6-31G(d) Freq
 --------------------------------------------------------------------

 Structure from the checkpoint file:  "JID_7988.chk"
 -------------------------------
 CID_105492594_JID_7988_neutraal
 -------------------------------
 Charge =  0 Multiplicity = 1

 SCF Done:  E(RB3LYP) =  -784.838128544     A.U. after    1 cycles

  Exact polarizability: 198.480  -1.108 152.410   4.219  -0.692  91.139
 Approx polarizability: 288.423  -1.313 238.183  15.275  -1.901 136.041

                      1                      2                      3
                      A                      A                      A
 Frequencies --     22.7524                43.1450                54.0890
 Red. masses --      7.6568                 2.9472                 3.3565
 Frc consts  --      0.0023                 0.0032                 0.0058
 IR Inten    --      0.1704                 0.3629                 0.5328

                      4                      5                      6
                      A                      A                      A
 Frequencies --     65.0731                73.8750                97.8105
 Red. masses --      5.1356                 7.7792                 3.2440
 Frc consts  --      0.0128                 0.0250                 0.0183
 IR Inten    --      0.7005                 0.9256                 1.6955

                      7                      8                      9
                      A                      A                      A
 Frequencies --    133.3294               144.6507               164.8467
 Red. masses --      1.6578                 1.4743                 2.6824
 Frc consts  --      0.0174                 0.0182                 0.0429
 IR Inten    --      1.1953                 0.7169                 3.2864

                     10                     11                     12
                      A                      A                      A
 Frequencies --    185.9535               218.7460               252.8747
 Red. masses --      3.2195                 4.2610                 1.4119
 Frc consts  --      0.0656                 0.1201                 0.0532
 IR Inten    --      0.4558                 9.6883                 0.9427

                     13                     14                     15
                      A                      A                      A
 Frequencies --    284.5177               302.1325               306.9745
 Red. masses --      5.5440                 3.5805                 4.6697
 Frc consts  --      0.2644                 0.1926                 0.2593
 IR Inten    --      0.5560                 1.8574                 8.4767

                     16                     17                     18
                      A                      A                      A
 Frequencies --    321.2631               346.2273               406.4314
 Red. masses --      3.4133                 3.1076                 3.5730
 Frc consts  --      0.2076                 0.2195                 0.3477
 IR Inten    --      3.0272                 0.1438                 2.0333

                     19                     20                     21
                      A                      A                      A
 Frequencies --    443.0175               467.3151               491.5583
 Red. masses --      3.3289                 4.8342                 4.7634
 Frc consts  --      0.3849                 0.6220                 0.6781
 IR Inten    --      3.3727                 7.0285                11.3269

                     22                     23                     24
                      A                      A                      A
 Frequencies --    523.3731               545.4941               570.8730
 Red. masses --      4.4882                12.4208                 4.2104
 Frc consts  --      0.7243                 2.1776                 0.8084
 IR Inten    --      0.3419                18.3823                 2.7192

                     25                     26                     27
                      A                      A                      A
 Frequencies --    592.4402               620.5375               645.7797
 Red. masses --      5.7242                 6.0972                 5.1776
 Frc consts  --      1.1837                 1.3833                 1.2722
 IR Inten    --      2.5262                28.3728                 9.7856

                     28                     29                     30
                      A                      A                      A
 Frequencies --    665.7550               758.0775               772.2449
 Red. masses --      5.2148                 2.6995                 1.9634
 Frc consts  --      1.3618                 0.9140                 0.6899
 IR Inten    --      8.1362                 9.1671                23.5151

                     31                     32                     33
                      A                      A                      A
 Frequencies --    790.6028               803.2067               820.7122
 Red. masses --      1.3179                 1.5157                 2.1280
 Frc consts  --      0.4854                 0.5761                 0.8445
 IR Inten    --      8.5706                21.3964                 2.7695

                     34                     35                     36
                      A                      A                      A
 Frequencies --    834.5252               881.4982               890.9006
 Red. masses --      2.3371                 2.4230                 3.2245
 Frc consts  --      0.9590                 1.1093                 1.5079
 IR Inten    --     12.5431                12.8718                 1.6689

                     37                     38                     39
                      A                      A                      A
 Frequencies --    922.1471               951.7410               966.6644
 Red. masses --      1.7505                 2.6007                 1.5409
 Frc consts  --      0.8770                 1.3880                 0.8484
 IR Inten    --      1.6885                12.1535                 7.2548

                     40                     41                     42
                      A                      A                      A
 Frequencies --    968.1548               972.7038              1044.4738
 Red. masses --      1.2651                 2.2633                 7.9829
 Frc consts  --      0.6986                 1.2617                 5.1311
 IR Inten    --      0.3810                20.4428                73.0160

                     43                     44                     45
                      A                      A                      A
 Frequencies --   1067.5467              1073.0552              1093.5156
 Red. masses --      2.8759                 1.5301                 1.3703
 Frc consts  --      1.9311                 1.0380                 0.9654
 IR Inten    --     92.3194                23.6152                 5.8355

                     46                     47                     48
                      A                      A                      A
 Frequencies --   1114.8146              1126.5344              1172.1142
 Red. masses --      1.8535                 1.9625                 1.9819
 Frc consts  --      1.3572                 1.4674                 1.6043
 IR Inten    --     24.8484                58.2658                11.1822

                     49                     50                     51
                      A                      A                      A
 Frequencies --   1184.5578              1199.8985              1202.0598
 Red. masses --      1.2568                 1.4991                 1.3058
 Frc consts  --      1.0391                 1.2717                 1.1117
 IR Inten    --      3.3987                17.3712                 0.8328

                     52                     53                     54
                      A                      A                      A
 Frequencies --   1206.2573              1223.7175              1232.8032
 Red. masses --      1.5476                 2.5080                 1.6896
 Frc consts  --      1.3267                 2.2128                 1.5129
 IR Inten    --      5.9524                12.4080                22.2501

                     55                     56                     57
                      A                      A                      A
 Frequencies --   1262.4193              1291.8188              1334.0154
 Red. masses --      2.6958                 2.4406                 2.7654
 Frc consts  --      2.5313                 2.3997                 2.8996
 IR Inten    --     51.4160               134.7574                10.6271

                     58                     59                     60
                      A                      A                      A
 Frequencies --   1340.9305              1356.5614              1417.2735
 Red. masses --      1.6485                 3.2107                 1.2613
 Frc consts  --      1.7464                 3.4812                 1.4927
 IR Inten    --      1.2683                67.4281                 4.7810

                     61                     62                     63
                      A                      A                      A
 Frequencies --   1444.5064              1475.3931              1481.3023
 Red. masses --      1.2900                 1.4517                 1.1573
 Frc consts  --      1.5859                 1.8618                 1.4962
 IR Inten    --     24.5363                41.1608                13.7890

                     64                     65                     66
                      A                      A                      A
 Frequencies --   1499.5036              1506.2298              1512.2063
 Red. masses --      7.1225                 1.5705                 1.2986
 Frc consts  --      9.4358                 2.0992                 1.7497
 IR Inten    --      2.4191                74.4632                 9.7450

                     67                     68                     69
                      A                      A                      A
 Frequencies --   1512.3572              1515.7367              1521.6461
 Red. masses --      1.1821                 1.2378                 1.2882
 Frc consts  --      1.5930                 1.6756                 1.7574
 IR Inten    --     11.9277                 3.9043                 3.5724

                     70                     71                     72
                      A                      A                      A
 Frequencies --   1523.7522              1538.5181              1550.0514
 Red. masses --      1.6023                 1.1552                 1.0505
 Frc consts  --      2.1920                 1.6111                 1.4871
 IR Inten    --     36.3633                 8.8691                 6.1880

                     73                     74                     75
                      A                      A                      A
 Frequencies --   1639.7000              1650.7865              2389.0941
 Red. masses --      6.0504                 6.7737                12.6552
 Frc consts  --      9.5844                10.8757                42.5585
 IR Inten    --      7.7860                12.5987              1251.1288

                     76                     77                     78
                      A                      A                      A
 Frequencies --   3037.3675              3040.5180              3060.8450
 Red. masses --      1.0669                 1.0417                 1.0369
 Frc consts  --      5.7990                 5.6740                 5.7235
 IR Inten    --     50.9697                47.7939                13.2820

                     79                     80                     81
                      A                      A                      A
 Frequencies --   3111.8747              3130.2156              3130.4605
 Red. masses --      1.0984                 1.0919                 1.0995
 Frc consts  --      6.2670                 6.3036                 6.3486
 IR Inten    --     18.7839                37.6292                41.7027

                     82                     83                     84
                      A                      A                      A
 Frequencies --   3148.6974              3166.1249              3168.1780
 Red. masses --      1.1039                 1.0570                 1.1066
 Frc consts  --      6.4484                 6.2427                 6.5443
 IR Inten    --     31.6861                10.6696                12.0022

                     85                     86                     87
                      A                      A                      A
 Frequencies --   3171.6294              3195.7156              3212.4093
 Red. masses --      1.0620                 1.0870                 1.0944
 Frc consts  --      6.2943                 6.5406                 6.6539
 IR Inten    --      9.5639                 8.5105                14.4064

                     88                     89                     90
                      A                      A                      A
 Frequencies --   3236.8085              3267.7830              3278.1004
 Red. masses --      1.0916                 1.1141                 1.1117
 Frc consts  --      6.7380                 7.0095                 7.0384
 IR Inten    --      4.3224                 0.1948                 4.1425

 - Thermochemistry -
 -------------------
 Temperature   298.150 Kelvin.  Pressure   1.00000 Atm.
 Atom     1 has atomic number  6 and mass  12.00000

 Molecular mass:   233.10519 amu.
 Principal axes and moments of inertia in atomic units:
                           1         2         3
     Eigenvalues --  1971.818906271.762847320.07694
           X            0.99993  -0.00276  -0.01146
           Y            0.00287   0.99995   0.00940
           Z            0.01144  -0.00944   0.99989
 This molecule is an asymmetric top.
 Rotational symmetry number  1.
 Warning -- assumption of classical behavior for rotation
           may cause significant error
 Rotational temperatures (Kelvin)      0.04393     0.01381     0.01183
 Rotational constants (GHZ):           0.91527     0.28776     0.24655
 Zero-point vibrational energy     684179.6 (Joules/Mol)
                                  163.52285 (Kcal/Mol)
 Warning -- explicit consideration of  26 degrees of freedom as
           vibrations may cause significant error
 Vibrational temperatures:     32.74    62.08    77.82    93.63   106.29
          (Kelvin)            140.73   191.83   208.12   237.18   267.55
                              314.73   363.83   409.36   434.70   441.67
                              462.23   498.14   584.76   637.40   672.36
                              707.24   753.02   784.84   821.36   852.39
                              892.81   929.13   957.87  1090.70  1111.09
                             1137.50  1155.64  1180.82  1200.70  1268.28
                             1281.81  1326.76  1369.34  1390.81  1392.96
                             1399.50  1502.76  1535.96  1543.89  1573.32
                             1603.97  1620.83  1686.41  1704.31  1726.39
                             1729.50  1735.54  1760.66  1773.73  1816.34
                             1858.64  1919.35  1929.30  1951.79  2039.14
                             2078.32  2122.76  2131.26  2157.45  2167.13
                             2175.73  2175.94  2180.81  2189.31  2192.34
                             2213.58  2230.18  2359.16  2375.11  3437.37
                             4370.09  4374.63  4403.87  4477.29  4503.68
                             4504.03  4530.27  4555.35  4558.30  4563.27
                             4597.92  4621.94  4657.05  4701.61  4716.46

 Zero-point correction=                           0.260590 (Hartree/Particle)
 Thermal correction to Energy=                    0.277304
 Thermal correction to Enthalpy=                  0.278248
 Thermal correction to Gibbs Free Energy=         0.214815
 Sum of electronic and zero-point Energies=           -784.577538
 Sum of electronic and thermal Energies=              -784.560824
 Sum of electronic and thermal Enthalpies=            -784.559880
 Sum of electronic and thermal Free Energies=         -784.623313

                     E (Thermal)             CV                S
                      KCal/Mol        Cal/Mol-Kelvin    Cal/Mol-Kelvin
 Total                  174.011             61.997            133.506
 Electronic               0.000              0.000              0.000
 Translational            0.889              2.981             42.241
 Rotational               0.889              2.981             32.870
 Vibrational            172.234             56.035             58.395
 Vibration     1          0.593              1.985              6.378
 Vibration     2          0.595              1.980              5.109
 Vibration     3          0.596              1.976              4.662
 Vibration     4          0.597              1.971              4.297
 Vibration     5          0.599              1.966              4.047
 Vibration     6          0.603              1.951              3.497
 Vibration     7          0.613              1.920              2.897
 Vibration     8          0.616              1.908              2.741
 Vibration     9          0.623              1.886              2.493
 Vibration    10          0.632              1.859              2.268
 Vibration    11          0.647              1.813              1.969
 Vibration    12          0.664              1.758              1.710
 Vibration    13          0.683              1.702              1.506
 Vibration    14          0.694              1.670              1.405
 Vibration    15          0.697              1.660              1.379
 Vibration    16          0.707              1.633              1.304
 Vibration    17          0.724              1.583              1.183
 Vibration    18          0.771              1.456              0.939
 Vibration    19          0.803              1.376              0.817
 Vibration    20          0.825              1.323              0.745
 Vibration    21          0.847              1.269              0.680
 Vibration    22          0.878              1.198              0.602
 Vibration    23          0.901              1.150              0.554
 Vibration    24          0.927              1.094              0.503
 Vibration    25          0.950              1.048              0.463
 Vibration    26          0.981              0.989              0.416

                           ! Non-Optimized Parameters !
 Normal termination of Gaussian 16 at Fri Dec 11 13:42:22 2020.

 ----------------------------------------------------------------------
 # B3LYP/6-311++G(d,p) empiricaldispersion=gd3bj scf=xqc pop=npa geom=c
 heck
 ----------------------------------------------------------------------

 ---------------------------------------
 CID_105492594_JID_7988_Energie_neutraal
 ---------------------------------------
 Structure from the checkpoint file:  "JID_7988.chk"
 Charge =  0 Multiplicity = 1

 SCF Done:  E(RB3LYP) =  -785.054929482     A.U. after   16 cycles
 Normal termination of Gaussian 16 at Fri Dec 11 13:47:03 2020.

 ----------------------------------------------------------------------
 # B3LYP/6-311++G(d,p) empiricaldispersion=gd3bj scf=xqc pop=npa geom=c
 heck
 ----------------------------------------------------------------------

 -------------------------------------
 CID_105492594_JID_7988_Energie_kation
 -------------------------------------
 Structure from the checkpoint file:  "JID_7988.chk"
 Charge =  1 Multiplicity = 2

 SCF Done:  E(UB3LYP) =  -784.756985599     A.U. after   25 cycles
 Normal termination of Gaussian 16 at Fri Dec 11 13:57:03 2020.
 Gaussian 16:  ES64L-G16RevA.03 25-Dec-2016

 ----------------------------------------------------------------------
 # B3LYP/6-311++G(d,p) empiricaldispersion=gd3bj scf=xqc pop=npa geom=c
 heck
 ----------------------------------------------------------------------

 ------------------------------------
 CID_105492594_JID_7988_Energie_anion
 ------------------------------------
 Structure from the checkpoint file:  "JID_7988.chk"
 Charge = -1 Multiplicity = 2

                         Standard orientation:
 ---------------------------------------------------------------------
 Center     Atomic      Atomic             Coordinates (Angstroms)
 Number     Number       Type             X           Y           Z
 ---------------------------------------------------------------------
      1          6           0       -3.366660   -0.701306    1.801928
      2          6           0       -3.905744    0.175702    0.681134
      3          8           0       -3.105114    0.108742   -0.511818
      4          6           0       -1.865167    0.704881   -0.413382
      5          6           0       -1.749858    2.092764   -0.465247
      6          6           0       -0.491650    2.677220   -0.363187
      7          6           0        0.638432    1.878680   -0.207551
      8          6           0        0.551973    0.479951   -0.170068
      9          6           0       -0.724346   -0.105964   -0.287459
     10          8           0       -0.859885   -1.475132   -0.207572
     11          6           0       -1.404075   -2.118075   -1.366207
     12          6           0        1.808099   -0.323666    0.029829
     13          6           0        1.833558   -1.594092    0.868151
     14          6           0        2.042586   -1.679721   -0.618717
     15          7           0        2.964733    0.514168    0.135942
     16          6           0        4.151217    0.404544    0.314422
     17          8           0        5.321142    0.425574    0.479954
     18          1           0       -3.289325   -1.742202    1.475745
     19          1           0       -4.034797   -0.650467    2.669403
     20          1           0       -2.372468   -0.368645    2.115387
     21          1           0       -4.898451   -0.155309    0.363427
     22          1           0       -3.983455    1.221423    1.008733
     23          1           0       -2.648669    2.689455   -0.586483
     24          1           0       -0.387107    3.757300   -0.402305
     25          1           0        1.615539    2.336941   -0.118722
     26          1           0       -2.437713   -1.811537   -1.535772
     27          1           0       -0.800354   -1.887384   -2.253473
     28          1           0       -1.355639   -3.190064   -1.162075
     29          1           0        2.692090   -1.716074    1.522057
     30          1           0        0.889400   -1.946147    1.263404
     31          1           0        1.251601   -2.101572   -1.223792
     32          1           0        3.046861   -1.853876   -0.993511
 ---------------------------------------------------------------------

 SCF Done:  E(UB3LYP) =  -785.041406609     A.U. after   33 cycles
 SCF Done:  E(UB3LYP) =  -785.041406610     a.u. after    1 cycles

 The electronic state is 2-A.
 Alpha  occ. eigenvalues --  -19.08255 -19.05048 -19.04375 -14.25558 -10.21995
 Alpha  occ. eigenvalues --  -10.16240 -10.13940 -10.13537 -10.12631 -10.11790
 Alpha  occ. eigenvalues --  -10.10302 -10.09430 -10.09318 -10.08350 -10.08281
 Alpha  occ. eigenvalues --  -10.08042 -10.06342  -1.01701  -0.97408  -0.95166
 Alpha  occ. eigenvalues --   -0.88471  -0.78140  -0.75906  -0.67874  -0.66806
 Alpha  occ. eigenvalues --   -0.64507  -0.60107  -0.58250  -0.55036  -0.52723
 Alpha  occ. eigenvalues --   -0.51339  -0.49900  -0.44532  -0.43267  -0.42306
 Alpha  occ. eigenvalues --   -0.41357  -0.40815  -0.39646  -0.38618  -0.37975
 Alpha  occ. eigenvalues --   -0.36914  -0.36639  -0.36311  -0.34652  -0.33730
 Alpha  occ. eigenvalues --   -0.32699  -0.30572  -0.29745  -0.29350  -0.28910
 Alpha  occ. eigenvalues --   -0.28660  -0.28020  -0.26655  -0.25501  -0.24650
 Alpha  occ. eigenvalues --   -0.23639  -0.20962  -0.20388  -0.18664  -0.18333
 Alpha  occ. eigenvalues --   -0.14614  -0.14091   0.04268
 Alpha virt. eigenvalues --    0.06075   0.06442   0.07077   0.07155   0.07973
 Alpha virt. eigenvalues --    0.08283   0.08605   0.08947   0.09363   0.09830
 Alpha virt. eigenvalues --    0.10279   0.10697   0.11278   0.11703   0.12655

  Beta  occ. eigenvalues --  -19.08236 -19.05049 -19.04373 -14.25555 -10.21986
  Beta  occ. eigenvalues --  -10.16239 -10.13912 -10.13517 -10.12596 -10.11743
  Beta  occ. eigenvalues --  -10.10305 -10.09409 -10.09305 -10.08327 -10.08270
  Beta  occ. eigenvalues --  -10.08025 -10.06313  -1.01661  -0.97389  -0.95149
  Beta  occ. eigenvalues --   -0.88451  -0.78117  -0.75873  -0.67835  -0.66754
  Beta  occ. eigenvalues --   -0.64459  -0.60053  -0.58216  -0.54980  -0.52673
  Beta  occ. eigenvalues --   -0.51297  -0.49836  -0.44493  -0.43226  -0.42278
  Beta  occ. eigenvalues --   -0.41326  -0.40781  -0.39613  -0.38568  -0.37949
  Beta  occ. eigenvalues --   -0.36880  -0.36590  -0.36257  -0.34623  -0.33691
  Beta  occ. eigenvalues --   -0.32656  -0.30525  -0.29714  -0.29316  -0.28884
  Beta  occ. eigenvalues --   -0.28624  -0.27983  -0.26611  -0.25466  -0.24617
  Beta  occ. eigenvalues --   -0.23590  -0.20933  -0.20356  -0.18646  -0.18293
  Beta  occ. eigenvalues --   -0.14545  -0.13987
  Beta virt. eigenvalues --    0.06250   0.06893   0.07040   0.07246   0.07733
  Beta virt. eigenvalues --    0.08316   0.08548   0.08929   0.09415   0.09643
  Beta virt. eigenvalues --    0.10251   0.10831   0.11001   0.11550   0.12039

 Mulliken charges and spin densities:
               1          2
     1  C    0.213749  -0.687841
     2  C    0.562449  -0.724969
     3  O   -0.128698   0.014891
     4  C   -0.438610  -0.208008
     5  C    0.254992  -0.267750
     6  C   -0.599252   0.094414
     7  C   -0.464569  -0.036684
     8  C    0.824331   0.032901
     9  C   -0.631784   0.177889
    10  O   -0.112093   0.041535
    11  C    1.008828  -1.262304
    12  C   -0.669490   0.592372
    13  C    0.491507  -0.616538
    14  C    0.381318  -0.578502
    15  N    0.129577  -0.018749
    16  C    0.724681  -0.314108
    17  O   -0.291781   0.005005
    18  H   -0.035852   0.198285
    19  H   -0.468228   0.618916
    20  H    0.087960   0.048708
    21  H   -0.431415   0.606694
    22  H   -0.120158   0.235163
    23  H   -0.192243   0.363697
    24  H   -0.173398   0.335754
    25  H    0.113775   0.073196
    26  H    0.108069   0.089934
    27  H   -0.233549   0.342659
    28  H   -0.405141   0.570241
    29  H   -0.136452   0.314667
    30  H    0.131287   0.088362
    31  H   -0.101311   0.282071
    32  H   -0.398498   0.588096
 Sum of Mulliken charges =  -1.00000   1.00000

 Dipole moment (field-independent basis, Debye):
    X=              3.4837    Y=              2.6769    Z=             -0.0892  Tot=              4.3943
 Quadrupole moment (field-independent basis, Debye-Ang):
   XX=           -197.4097   YY=           -147.7223   ZZ=           -134.0558
   XY=             -2.6449   XZ=              5.7482   YZ=             -3.0520

 Summary of Natural Population Analysis:

                                       Natural Population
                Natural  -----------------------------------------------
    Atom  No    Charge         Core      Valence    Rydberg      Total
 -----------------------------------------------------------------------
      C    1   -0.30119      0.99966     2.29554    0.00599     3.30119
      C    2   -0.00428      0.99957     1.99297    0.01174     3.00428
      O    3   -0.29674      0.99987     3.28562    0.01125     4.29674
      C    4    0.13915      0.99933     1.84736    0.01416     2.86085
      C    5   -0.12038      0.99951     2.11106    0.00981     3.12038
      C    6   -0.09671      0.99957     2.08789    0.00925     3.09671
      C    7   -0.09827      0.99953     2.09068    0.00806     3.09827
      C    8   -0.03221      0.99944     2.02300    0.00978     3.03221
      C    9    0.14696      0.99929     1.84062    0.01313     2.85304
      O   10   -0.29567      0.99986     3.28481    0.01099     4.29567
      C   11   -0.10059      0.99958     2.09205    0.00897     3.10059
      C   12    0.04483      0.99948     1.94059    0.01509     2.95517
      C   13   -0.18706      0.99960     2.17863    0.00883     3.18706
      C   14   -0.18625      0.99960     2.17731    0.00935     3.18625
      N   15   -0.27096      0.99948     2.76177    0.00971     3.77096
      C   16    0.42454      0.99956     1.55884    0.01706     2.57546
      O   17   -0.26794      0.99987     3.26051    0.00756     4.26794
      H   18    0.10405      0.00000     0.39467    0.00128     0.39595
      H   19    0.10160      0.00000     0.39705    0.00135     0.39840
      H   20    0.10063      0.00000     0.39805    0.00132     0.39937
      H   21    0.09149      0.00000     0.40639    0.00213     0.40851
      H   22    0.08029      0.00000     0.41808    0.00162     0.41971
      H   23    0.10607      0.00000     0.39279    0.00114     0.39393
      H   24    0.10015      0.00000     0.39899    0.00086     0.39985
      H   25    0.10915      0.00000     0.38985    0.00100     0.39085
      H   26    0.09821      0.00000     0.40027    0.00152     0.40179
      H   27    0.08080      0.00000     0.41786    0.00134     0.41920
      H   28    0.09251      0.00000     0.40587    0.00162     0.40749
      H   29    0.10281      0.00000     0.39611    0.00108     0.39719
      H   30    0.11835      0.00000     0.38034    0.00131     0.38165
      H   31    0.11246      0.00000     0.38595    0.00159     0.38754
      H   32    0.10420      0.00000     0.39441    0.00139     0.39580
 =======================================================================
   * Total *   -0.00000     16.99280    44.80591    0.20129    62.00000

 Normal termination of Gaussian 16 at Fri Dec 11 14:10:16 2020.
