 Gaussian 16, Revision A.03,

 -----------------------------------------------------------
 # opt freq B3LYP/6-31G(d) empiricaldispersion=gd3bj scf=xqc
 -----------------------------------------------------------

 ------------------------------
 CID_69286841_JID_6719_neutraal
 ------------------------------
 Symbolic Z-matrix:
 Charge =  0 Multiplicity = 1

 SCF Done:  E(RB3LYP) =  -660.149922657     A.U. after   14 cycles
 SCF Done:  E(RB3LYP) =  -660.151369114     A.U. after   11 cycles
 SCF Done:  E(RB3LYP) =  -660.150823440     A.U. after   12 cycles
 SCF Done:  E(RB3LYP) =  -660.151714083     A.U. after   11 cycles
 SCF Done:  E(RB3LYP) =  -660.151769088     A.U. after   10 cycles
 SCF Done:  E(RB3LYP) =  -660.151779792     A.U. after   10 cycles
 SCF Done:  E(RB3LYP) =  -660.151782618     A.U. after    9 cycles
 SCF Done:  E(RB3LYP) =  -660.151783373     A.U. after    8 cycles
 SCF Done:  E(RB3LYP) =  -660.151783515     A.U. after    7 cycles
 SCF Done:  E(RB3LYP) =  -660.151783542     A.U. after    6 cycles
 Optimization completed.
    -- Stationary point found.
 Normal termination of Gaussian 16 at Fri Dec 11 00:13:06 2020.

 --------------------------------------------------------------------
 #N Geom=AllCheck Guess=TCheck SCRF=Check GenChk RB3LYP/6-31G(d) Freq
 --------------------------------------------------------------------

 Structure from the checkpoint file:  "JID_6719.chk"
 ------------------------------
 CID_69286841_JID_6719_neutraal
 ------------------------------
 Charge =  0 Multiplicity = 1

 SCF Done:  E(RB3LYP) =  -660.151783542     A.U. after    1 cycles

  Exact polarizability: 211.401  -0.164 149.915  -1.790  -4.784 106.533
 Approx polarizability: 270.986  -3.528 249.195  -4.517 -11.691 160.963

                      1                      2                      3
                      A                      A                      A
 Frequencies --     34.3133                42.1131                44.8925
 Red. masses --      3.6646                 4.0103                 2.4781
 Frc consts  --      0.0025                 0.0042                 0.0029
 IR Inten    --      0.7798                 0.0641                 0.0395

                      4                      5                      6
                      A                      A                      A
 Frequencies --     77.8736               156.1937               188.2022
 Red. masses --      4.2197                 4.0284                 2.7027
 Frc consts  --      0.0151                 0.0579                 0.0564
 IR Inten    --      0.0126                 0.1943                 0.1263

                      7                      8                      9
                      A                      A                      A
 Frequencies --    210.8267               222.6071               238.3651
 Red. masses --      3.5113                 3.3294                 1.1589
 Frc consts  --      0.0920                 0.0972                 0.0388
 IR Inten    --      0.1507                 0.0360                 0.0925

                     10                     11                     12
                      A                      A                      A
 Frequencies --    265.9938               274.9617               306.5586
 Red. masses --      2.1081                 1.6641                 2.6284
 Frc consts  --      0.0879                 0.0741                 0.1455
 IR Inten    --      0.2396                 0.1120                 0.5641

                     13                     14                     15
                      A                      A                      A
 Frequencies --    317.0560               352.9855               368.9504
 Red. masses --      1.3786                 1.0925                 2.7483
 Frc consts  --      0.0817                 0.0802                 0.2204
 IR Inten    --      0.0118               116.2228                 0.3831

                     16                     17                     18
                      A                      A                      A
 Frequencies --    400.2724               408.6387               422.5874
 Red. masses --      4.3654                 2.8583                 2.3455
 Frc consts  --      0.4121                 0.2812                 0.2468
 IR Inten    --      1.7297                 8.2254                 1.8064

                     19                     20                     21
                      A                      A                      A
 Frequencies --    424.4336               442.4667               480.3367
 Red. masses --      3.0212                 2.8557                 2.3953
 Frc consts  --      0.3207                 0.3294                 0.3256
 IR Inten    --      0.7045                 0.1003                 3.4538

                     22                     23                     24
                      A                      A                      A
 Frequencies --    520.3214               552.5090               569.3831
 Red. masses --      2.5341                 2.3297                 4.9538
 Frc consts  --      0.4042                 0.4190                 0.9462
 IR Inten    --      1.1459                 9.9402                 5.1934

                     25                     26                     27
                      A                      A                      A
 Frequencies --    658.7782               671.5804               733.2982
 Red. masses --      6.9142                 2.5295                 4.3752
 Frc consts  --      1.7680                 0.6722                 1.3861
 IR Inten    --      0.6640                 0.1630                 0.9033

                     28                     29                     30
                      A                      A                      A
 Frequencies --    736.8364               789.2576               808.7626
 Red. masses --      3.2542                 1.5194                 2.7193
 Frc consts  --      1.0410                 0.5576                 1.0480
 IR Inten    --      0.5660                 0.0454                 9.5966

                     31                     32                     33
                      A                      A                      A
 Frequencies --    812.1303               840.0429               842.3760
 Red. masses --      1.3626                 3.4912                 1.5520
 Frc consts  --      0.5295                 1.4515                 0.6489
 IR Inten    --     16.4537                 3.6263                25.7381

                     34                     35                     36
                      A                      A                      A
 Frequencies --    869.7081               901.8942               913.4194
 Red. masses --      3.5455                 2.7202                 1.9312
 Frc consts  --      1.5801                 1.3037                 0.9493
 IR Inten    --      4.3262                 0.1560                 0.1698

                     37                     38                     39
                      A                      A                      A
 Frequencies --    933.8233               937.4139               952.6228
 Red. masses --      1.3954                 1.2597                 1.4301
 Frc consts  --      0.7169                 0.6522                 0.7647
 IR Inten    --      0.1574                 0.3722                 1.1474

                     40                     41                     42
                      A                      A                      A
 Frequencies --    959.1040               962.3367               976.7886
 Red. masses --      1.4431                 1.6487                 1.5703
 Frc consts  --      0.7822                 0.8996                 0.8827
 IR Inten    --      0.1517                 1.1094                 1.0318

                     43                     44                     45
                      A                      A                      A
 Frequencies --   1020.3300              1037.3478              1045.9466
 Red. masses --      2.2963                 2.4519                 1.9911
 Frc consts  --      1.4085                 1.5545                 1.2834
 IR Inten    --     12.6180                 0.1791                 3.8876

                     46                     47                     48
                      A                      A                      A
 Frequencies --   1086.3435              1099.0910              1102.1074
 Red. masses --      1.8277                 2.6154                 1.6458
 Frc consts  --      1.2708                 1.8615                 1.1778
 IR Inten    --      0.1043                 0.3790                 0.2802

                     49                     50                     51
                      A                      A                      A
 Frequencies --   1133.6093              1135.8490              1161.7085
 Red. masses --      1.4530                 1.1461                 2.0159
 Frc consts  --      1.1001                 0.8712                 1.6029
 IR Inten    --      7.3389                 2.7995                10.1874

                     52                     53                     54
                      A                      A                      A
 Frequencies --   1199.4685              1208.7444              1210.3278
 Red. masses --      1.7034                 1.2335                 1.3586
 Frc consts  --      1.4439                 1.0619                 1.1726
 IR Inten    --      6.0675                97.7722                55.9705

                     55                     56                     57
                      A                      A                      A
 Frequencies --   1213.8981              1223.3795              1235.4174
 Red. masses --      1.6566                 1.3890                 2.0647
 Frc consts  --      1.4382                 1.2248                 1.8567
 IR Inten    --     41.0170                 0.7606                 1.4925

                     58                     59                     60
                      A                      A                      A
 Frequencies --   1273.1542              1305.5094              1310.1959
 Red. masses --      1.5580                 1.4747                 3.1537
 Frc consts  --      1.4880                 1.4809                 3.1896
 IR Inten    --      0.2131                 9.1967                96.2751

                     61                     62                     63
                      A                      A                      A
 Frequencies --   1328.1510              1341.2940              1349.4438
 Red. masses --      1.4336                 1.3088                 1.2869
 Frc consts  --      1.4899                 1.3873                 1.3808
 IR Inten    --      8.9085                 2.5719                 0.8396

                     64                     65                     66
                      A                      A                      A
 Frequencies --   1357.0747              1379.1931              1385.6484
 Red. masses --      1.5355                 1.3428                 1.5019
 Frc consts  --      1.6661                 1.5049                 1.6990
 IR Inten    --      0.6323                24.2957                 2.3377

                     67                     68                     69
                      A                      A                      A
 Frequencies --   1387.5762              1392.4275              1400.6947
 Red. masses --      2.3642                 1.3602                 1.3838
 Frc consts  --      2.6819                 1.5538                 1.5996
 IR Inten    --     29.3901                 1.2902                 1.8746

                     70                     71                     72
                      A                      A                      A
 Frequencies --   1411.4320              1418.5303              1429.5785
 Red. masses --      1.3912                 1.4248                 1.3677
 Frc consts  --      1.6329                 1.6892                 1.6469
 IR Inten    --      1.6663                 5.4654                 1.2587

                     73                     74                     75
                      A                      A                      A
 Frequencies --   1432.9625              1453.2892              1491.2121
 Red. masses --      1.3526                 1.2478                 2.5348
 Frc consts  --      1.6364                 1.5528                 3.3210
 IR Inten    --      4.3123                 8.6471                23.7433

                     76                     77                     78
                      A                      A                      A
 Frequencies --   1509.6584              1514.3300              1516.1561
 Red. masses --      1.0810                 1.0617                 1.0854
 Frc consts  --      1.4516                 1.4344                 1.4700
 IR Inten    --      1.5453                 2.0549                 1.6098

                     79                     80                     81
                      A                      A                      A
 Frequencies --   1520.4310              1530.0289              1533.4143
 Red. masses --      1.0688                 1.0666                 1.0765
 Frc consts  --      1.4557                 1.4712                 1.4914
 IR Inten    --      7.1728                 1.2529                 3.8936

                     82                     83                     84
                      A                      A                      A
 Frequencies --   1543.7898              1545.9577              1568.5711
 Red. masses --      1.0559                 1.0652                 2.6658
 Frc consts  --      1.4827                 1.4999                 3.8644
 IR Inten    --      7.7266                11.1521               102.9407

                     85                     86                     87
                      A                      A                      A
 Frequencies --   1652.5264              1680.7518              3001.2080
 Red. masses --      5.7695                 6.0231                 1.0815
 Frc consts  --      9.2829                10.0248                 5.7395
 IR Inten    --     15.1976                38.8561                14.9755

                     88                     89                     90
                      A                      A                      A
 Frequencies --   3004.9221              3006.8206              3020.2239
 Red. masses --      1.0824                 1.0811                 1.0667
 Frc consts  --      5.7582                 5.7586                 5.7328
 IR Inten    --     13.6525                20.6039                27.0309

                     91                     92                     93
                      A                      A                      A
 Frequencies --   3031.9223              3041.7811              3049.3972
 Red. masses --      1.0694                 1.0378                 1.0607
 Frc consts  --      5.7922                 5.6576                 5.8113
 IR Inten    --     77.3814                40.2649                21.5767

                     94                     95                     96
                      A                      A                      A
 Frequencies --   3052.4961              3055.7449              3062.7475
 Red. masses --      1.0541                 1.0602                 1.0915
 Frc consts  --      5.7867                 5.8326                 6.0326
 IR Inten    --     16.7029                27.0835                48.8445

                     97                     98                     99
                      A                      A                      A
 Frequencies --   3073.8568              3092.4275              3100.3625
 Red. masses --      1.0931                 1.1010                 1.1007
 Frc consts  --      6.0852                 6.2032                 6.2337
 IR Inten    --     41.5964                36.8048                55.1226

                    100                    101                    102
                      A                      A                      A
 Frequencies --   3106.4448              3110.4475              3114.2099
 Red. masses --      1.1000                 1.1023                 1.0975
 Frc consts  --      6.2544                 6.2835                 6.2712
 IR Inten    --     47.3552                48.6550                42.5328

                    103                    104                    105
                      A                      A                      A
 Frequencies --   3142.3911              3162.7103              3185.0573
 Red. masses --      1.0982                 1.0876                 1.0921
 Frc consts  --      6.3893                 6.4094                 6.5277
 IR Inten    --     32.7762                25.8085                27.8724

                    106                    107                    108
                      A                      A                      A
 Frequencies --   3186.0453              3215.1070              3751.9340
 Red. masses --      1.0890                 1.0933                 1.0659
 Frc consts  --      6.5128                 6.6586                 8.8404
 IR Inten    --      7.7450                 8.9359                44.5013

 - Thermochemistry -
 -------------------
 Temperature   298.150 Kelvin.  Pressure   1.00000 Atm.
 Atom     1 has atomic number  6 and mass  12.00000

 Molecular mass:   218.16707 amu.
 Principal axes and moments of inertia in atomic units:
                           1         2         3
     Eigenvalues --  1287.796398004.329198463.88025
           X            0.99995   0.00959   0.00149
           Y           -0.00958   0.99995  -0.00200
           Z           -0.00151   0.00199   1.00000
 This molecule is an asymmetric top.
 Rotational symmetry number  1.
 Warning -- assumption of classical behavior for rotation
           may cause significant error
 Rotational temperatures (Kelvin)      0.06726     0.01082     0.01023
 Rotational constants (GHZ):           1.40142     0.22547     0.21323
 Zero-point vibrational energy     898801.2 (Joules/Mol)
                                  214.81864 (Kcal/Mol)
 Warning -- explicit consideration of  24 degrees of freedom as
           vibrations may cause significant error
 Vibrational temperatures:     49.37    60.59    64.59   112.04   224.73
          (Kelvin)            270.78   303.33   320.28   342.95   382.71
                              395.61   441.07   456.17   507.87   530.84
                              575.90   587.94   608.01   610.67   636.61
                              691.10   748.63   794.94   819.22   947.83
                              966.25  1055.05  1060.14  1135.57  1163.63
                             1168.47  1208.63  1211.99  1251.32  1297.62
                             1314.21  1343.56  1348.73  1370.61  1379.94
                             1384.59  1405.38  1468.03  1492.51  1504.88
                             1563.01  1581.35  1585.69  1631.01  1634.23
                             1671.44  1725.77  1739.11  1741.39  1746.53
                             1760.17  1777.49  1831.78  1878.34  1885.08
                             1910.91  1929.82  1941.55  1952.53  1984.35
                             1993.64  1996.41  2003.39  2015.29  2030.74
                             2040.95  2056.84  2061.71  2090.96  2145.52
                             2172.06  2178.78  2181.41  2187.56  2201.37
                             2206.24  2221.17  2224.29  2256.82  2377.62
                             2418.23  4318.07  4323.41  4326.14  4345.43
                             4362.26  4376.44  4387.40  4391.86  4396.54
                             4406.61  4422.59  4449.31  4460.73  4469.48
                             4475.24  4480.65  4521.20  4550.43  4582.59
                             4584.01  4625.82  5398.20

 Zero-point correction=                           0.342335 (Hartree/Particle)
 Thermal correction to Energy=                    0.357766
 Thermal correction to Enthalpy=                  0.358710
 Thermal correction to Gibbs Free Energy=         0.299431
 Sum of electronic and zero-point Energies=           -659.809448
 Sum of electronic and thermal Energies=              -659.794018
 Sum of electronic and thermal Enthalpies=            -659.793073
 Sum of electronic and thermal Free Energies=         -659.852353

                     E (Thermal)             CV                S
                      KCal/Mol        Cal/Mol-Kelvin    Cal/Mol-Kelvin
 Total                  224.501             61.838            124.763
 Electronic               0.000              0.000              0.000
 Translational            0.889              2.981             42.043
 Rotational               0.889              2.981             32.834
 Vibrational            222.724             55.876             49.886
 Vibration     1          0.594              1.983              5.563
 Vibration     2          0.595              1.980              5.157
 Vibration     3          0.595              1.979              5.031
 Vibration     4          0.599              1.964              3.944
 Vibration     5          0.620              1.896              2.595
 Vibration     6          0.633              1.856              2.245
 Vibration     7          0.643              1.824              2.037
 Vibration     8          0.648              1.807              1.938
 Vibration     9          0.656              1.782              1.815
 Vibration    10          0.672              1.735              1.622
 Vibration    11          0.677              1.720              1.565
 Vibration    12          0.697              1.661              1.381
 Vibration    13          0.704              1.641              1.325
 Vibration    14          0.729              1.569              1.153
 Vibration    15          0.741              1.536              1.084
 Vibration    16          0.766              1.470              0.962
 Vibration    17          0.773              1.451              0.931
 Vibration    18          0.785              1.421              0.883
 Vibration    19          0.786              1.417              0.877
 Vibration    20          0.802              1.378              0.819
 Vibration    21          0.837              1.294              0.709
 Vibration    22          0.875              1.205              0.609
 Vibration    23          0.908              1.134              0.539
 Vibration    24          0.925              1.097              0.505

                           ! Non-Optimized Parameters !
 Normal termination of Gaussian 16 at Fri Dec 11 00:26:32 2020.

 ----------------------------------------------------------------------
 # B3LYP/6-311++G(d,p) empiricaldispersion=gd3bj scf=xqc pop=npa geom=c
 heck
 ----------------------------------------------------------------------

 --------------------------------------
 CID_69286841_JID_6719_Energie_neutraal
 --------------------------------------
 Structure from the checkpoint file:  "JID_6719.chk"
 Charge =  0 Multiplicity = 1

 SCF Done:  E(RB3LYP) =  -660.335356678     A.U. after   14 cycles
 Normal termination of Gaussian 16 at Fri Dec 11 00:32:23 2020.

 ----------------------------------------------------------------------
 # B3LYP/6-311++G(d,p) empiricaldispersion=gd3bj scf=xqc pop=npa geom=c
 heck
 ----------------------------------------------------------------------

 ------------------------------------
 CID_69286841_JID_6719_Energie_kation
 ------------------------------------
 Structure from the checkpoint file:  "JID_6719.chk"
 Charge =  1 Multiplicity = 2

 SCF Done:  E(UB3LYP) =  -660.045060549     A.U. after   21 cycles
 Normal termination of Gaussian 16 at Fri Dec 11 00:45:08 2020.
 Gaussian 16:  ES64L-G16RevA.03 25-Dec-2016

 ----------------------------------------------------------------------
 # B3LYP/6-311++G(d,p) empiricaldispersion=gd3bj scf=xqc pop=npa geom=c
 heck
 ----------------------------------------------------------------------

 -----------------------------------
 CID_69286841_JID_6719_Energie_anion
 -----------------------------------
 Structure from the checkpoint file:  "JID_6719.chk"
 Charge = -1 Multiplicity = 2

                         Standard orientation:
 ---------------------------------------------------------------------
 Center     Atomic      Atomic             Coordinates (Angstroms)
 Number     Number       Type             X           Y           Z
 ---------------------------------------------------------------------
      1          6           0        2.802669    1.894952   -0.255738
      2          6           0        3.678857    0.637752   -0.355559
      3          6           0        4.893443    0.792759    0.573255
      4          6           0        2.976063   -0.728777   -0.117787
      5          6           0        2.208649   -0.865238    1.217162
      6          6           0        0.765689   -0.338690    1.195227
      7          6           0       -0.054252   -0.941277    0.038890
      8          6           0        0.656181   -0.677498   -1.301882
      9          6           0        2.094971   -1.209826   -1.293447
     10          6           0       -1.486330   -0.448561    0.036184
     11          6           0       -2.554135   -1.334038    0.202382
     12          6           0       -3.877689   -0.891873    0.201544
     13          6           0       -4.155148    0.465647    0.031499
     14          6           0       -3.102503    1.370932   -0.136605
     15          6           0       -1.790452    0.911219   -0.132874
     16          8           0       -5.429287    0.967751    0.020452
     17          1           0        2.436910    2.046852    0.765715
     18          1           0        1.937994    1.860025   -0.923345
     19          1           0        3.390198    2.781139   -0.523730
     20          1           0        4.065812    0.594108   -1.384982
     21          1           0        4.587849    0.858100    1.624542
     22          1           0        5.581813   -0.054946    0.477773
     23          1           0        5.450240    1.707323    0.338616
     24          1           0        3.808882   -1.444624   -0.065518
     25          1           0        2.170387   -1.933663    1.473102
     26          1           0        2.766876   -0.383162    2.028806
     27          1           0        0.753645    0.752573    1.107725
     28          1           0        0.275753   -0.574245    2.148114
     29          1           0       -0.077418   -2.031792    0.186225
     30          1           0        0.640338    0.397613   -1.512696
     31          1           0        0.091559   -1.153849   -2.112925
     32          1           0        2.589023   -0.973278   -2.244944
     33          1           0        2.040649   -2.307003   -1.242612
     34          1           0       -2.351144   -2.394023    0.335803
     35          1           0       -4.691810   -1.602600    0.333026
     36          1           0       -3.331626    2.423613   -0.267677
     37          1           0       -0.985350    1.629256   -0.264591
     38          1           0       -6.052360    0.235676    0.146454
 ---------------------------------------------------------------------

 SCF Done:  E(UB3LYP) =  -660.323549232     A.U. after   33 cycles
 SCF Done:  E(UB3LYP) =  -660.323549232     a.u. after    1 cycles

 The electronic state is 2-A.
 Alpha  occ. eigenvalues --  -19.05615 -10.14075 -10.08453 -10.08365 -10.08357
 Alpha  occ. eigenvalues --  -10.08208 -10.08118 -10.07954 -10.07902 -10.07853
 Alpha  occ. eigenvalues --  -10.07306 -10.07302 -10.07267 -10.07235 -10.07090
 Alpha  occ. eigenvalues --  -10.06802  -0.96633  -0.76930  -0.74622  -0.70787
 Alpha  occ. eigenvalues --   -0.66448  -0.65814  -0.65178  -0.62098  -0.59616
 Alpha  occ. eigenvalues --   -0.54649  -0.52866  -0.52161  -0.50144  -0.47981
 Alpha  occ. eigenvalues --   -0.45423  -0.43887  -0.40191  -0.38408  -0.37917
 Alpha  occ. eigenvalues --   -0.37414  -0.35530  -0.35122  -0.33815  -0.33245
 Alpha  occ. eigenvalues --   -0.32116  -0.31855  -0.31647  -0.30494  -0.30082
 Alpha  occ. eigenvalues --   -0.29818  -0.28968  -0.28483  -0.27120  -0.26360
 Alpha  occ. eigenvalues --   -0.25369  -0.24750  -0.24391  -0.23701  -0.23167
 Alpha  occ. eigenvalues --   -0.21032  -0.20727  -0.20460  -0.16531  -0.12846
 Alpha  occ. eigenvalues --    0.03958
 Alpha virt. eigenvalues --    0.05056   0.06425   0.07180   0.07359   0.07509
 Alpha virt. eigenvalues --    0.08082   0.08873   0.08974   0.09207   0.09555
 Alpha virt. eigenvalues --    0.09825   0.10396   0.11277   0.11576   0.12114

  Beta  occ. eigenvalues --  -19.05567 -10.14077 -10.08444 -10.08360 -10.08355
  Beta  occ. eigenvalues --  -10.08202 -10.08117 -10.07947 -10.07895 -10.07821
  Beta  occ. eigenvalues --  -10.07296 -10.07292 -10.07255 -10.07231 -10.07076
  Beta  occ. eigenvalues --  -10.06775  -0.96541  -0.76914  -0.74600  -0.70765
  Beta  occ. eigenvalues --   -0.66421  -0.65787  -0.65158  -0.62067  -0.59572
  Beta  occ. eigenvalues --   -0.54602  -0.52829  -0.52130  -0.50103  -0.47941
  Beta  occ. eigenvalues --   -0.45357  -0.43848  -0.40158  -0.38373  -0.37879
  Beta  occ. eigenvalues --   -0.37382  -0.35508  -0.35085  -0.33797  -0.33205
  Beta  occ. eigenvalues --   -0.32091  -0.31832  -0.31620  -0.30470  -0.30061
  Beta  occ. eigenvalues --   -0.29789  -0.28935  -0.28463  -0.27087  -0.26332
  Beta  occ. eigenvalues --   -0.25339  -0.24727  -0.24361  -0.23681  -0.23142
  Beta  occ. eigenvalues --   -0.21003  -0.20706  -0.20437  -0.16520  -0.12829
  Beta virt. eigenvalues --    0.05761   0.06741   0.07025   0.07380   0.07535
  Beta virt. eigenvalues --    0.07803   0.08507   0.09062   0.09078   0.09453
  Beta virt. eigenvalues --    0.09752   0.10156   0.10431   0.11355   0.11951

 Mulliken charges and spin densities:
               1          2
     1  C   -0.314457  -0.324928
     2  C   -0.161680   0.214358
     3  C    0.574733  -1.211364
     4  C    0.539652   0.058805
     5  C   -0.069422  -0.685548
     6  C   -0.246118  -0.061862
     7  C   -0.017659   0.006956
     8  C   -0.120303  -0.255287
     9  C   -0.432169  -0.224360
    10  C    0.803695  -0.265831
    11  C   -1.175294   1.014211
    12  C   -0.194195   0.000826
    13  C    1.752944  -2.208971
    14  C   -0.041763  -0.034626
    15  C   -0.299740   0.128943
    16  O   -0.282475   0.047115
    17  H    0.028814   0.130721
    18  H    0.103181   0.017144
    19  H   -0.017115   0.163695
    20  H   -0.085318   0.257209
    21  H    0.018208   0.105158
    22  H   -0.221755   0.351594
    23  H   -0.122597   0.259370
    24  H   -0.259210   0.484580
    25  H    0.004783   0.142564
    26  H    0.040945   0.111870
    27  H    0.107241  -0.027019
    28  H    0.164881   0.038551
    29  H    0.171861  -0.000030
    30  H    0.050118   0.043478
    31  H    0.115663   0.078895
    32  H   -0.026327   0.180217
    33  H   -0.086396   0.232210
    34  H   -0.130559   0.287399
    35  H   -1.153317   1.330436
    36  H    0.092636   0.086583
    37  H    0.122985   0.014438
    38  H   -0.234473   0.512499
 Sum of Mulliken charges =  -1.00000   1.00000

 Dipole moment (field-independent basis, Debye):
    X=              4.5349    Y=              2.4477    Z=             -0.1925  Tot=              5.1569
 Quadrupole moment (field-independent basis, Debye-Ang):
   XX=           -247.6771   YY=           -136.1924   ZZ=           -128.5019
   XY=             -7.5843   XZ=              4.2393   YZ=              0.8843

 Summary of Natural Population Analysis:

                                       Natural Population
                Natural  -----------------------------------------------
    Atom  No    Charge         Core      Valence    Rydberg      Total
 -----------------------------------------------------------------------
      C    1   -0.28643      0.99964     2.28065    0.00614     3.28643
      C    2   -0.10966      0.99959     2.09985    0.01022     3.10966
      C    3   -0.28348      0.99965     2.27752    0.00631     3.28348
      C    4   -0.10641      0.99957     2.09494    0.01190     3.10641
      C    5   -0.19160      0.99961     2.18273    0.00927     3.19160
      C    6   -0.18630      0.99961     2.17848    0.00821     3.18630
      C    7   -0.11426      0.99956     2.10391    0.01078     3.11426
      C    8   -0.18473      0.99961     2.17693    0.00819     3.18473
      C    9   -0.18743      0.99961     2.17832    0.00950     3.18743
      C   10   -0.02554      0.99949     2.01482    0.01123     3.02554
      C   11   -0.08879      0.99952     2.07966    0.00961     3.08879
      C   12   -0.13420      0.99952     2.12387    0.01081     3.13420
      C   13    0.15507      0.99938     1.83163    0.01392     2.84493
      C   14   -0.12369      0.99952     2.11523    0.00894     3.12369
      C   15   -0.09374      0.99952     2.08708    0.00714     3.09374
      O   16   -0.34216      0.99988     3.33518    0.00711     4.34216
      H   17    0.09570      0.00000     0.40349    0.00081     0.40430
      H   18    0.09803      0.00000     0.40102    0.00095     0.40197
      H   19    0.09852      0.00000     0.40075    0.00074     0.40148
      H   20    0.09291      0.00000     0.40534    0.00175     0.40709
      H   21    0.09492      0.00000     0.40410    0.00098     0.40508
      H   22    0.10015      0.00000     0.39871    0.00114     0.39985
      H   23    0.09816      0.00000     0.40099    0.00085     0.40184
      H   24    0.10003      0.00000     0.39810    0.00186     0.39997
      H   25    0.09763      0.00000     0.40126    0.00111     0.40237
      H   26    0.09958      0.00000     0.39952    0.00090     0.40042
      H   27    0.09497      0.00000     0.40353    0.00150     0.40503
      H   28    0.10029      0.00000     0.39894    0.00077     0.39971
      H   29    0.09549      0.00000     0.40231    0.00219     0.40451
      H   30    0.09275      0.00000     0.40582    0.00143     0.40725
      H   31    0.10064      0.00000     0.39856    0.00080     0.39936
      H   32    0.09871      0.00000     0.40021    0.00108     0.40129
      H   33    0.09633      0.00000     0.40256    0.00111     0.40367
      H   34    0.10060      0.00000     0.39832    0.00108     0.39940
      H   35    0.10549      0.00000     0.39083    0.00368     0.39451
      H   36    0.10348      0.00000     0.39546    0.00106     0.39652
      H   37    0.09884      0.00000     0.39994    0.00122     0.40116
      H   38    0.24012      0.00000     0.24907    0.01081     0.25988
 =======================================================================
   * Total *   -0.00000     15.99327    43.81964    0.18709    60.00000

 Normal termination of Gaussian 16 at Fri Dec 11 01:03:59 2020.
