 Gaussian 16, Revision A.03,

 -----------------------------------------------------------
 # opt freq B3LYP/6-31G(d) empiricaldispersion=gd3bj scf=xqc
 -----------------------------------------------------------

 -------------------------------
 CID_148784482_JID_3717_neutraal
 -------------------------------
 Symbolic Z-matrix:
 Charge =  0 Multiplicity = 1

 SCF Done:  E(RB3LYP) =  -597.744358122     A.U. after   14 cycles
 SCF Done:  E(RB3LYP) =  -597.751689550     A.U. after   12 cycles
 SCF Done:  E(RB3LYP) =  -597.750819892     A.U. after   12 cycles
 SCF Done:  E(RB3LYP) =  -597.752694262     A.U. after   12 cycles
 SCF Done:  E(RB3LYP) =  -597.753105085     A.U. after   10 cycles
 SCF Done:  E(RB3LYP) =  -597.753409083     A.U. after   11 cycles
 SCF Done:  E(RB3LYP) =  -597.753480646     A.U. after   10 cycles
 SCF Done:  E(RB3LYP) =  -597.753505218     A.U. after    9 cycles
 SCF Done:  E(RB3LYP) =  -597.753517983     A.U. after    9 cycles
 SCF Done:  E(RB3LYP) =  -597.753526433     A.U. after    8 cycles
 SCF Done:  E(RB3LYP) =  -597.753561903     A.U. after   10 cycles
 SCF Done:  E(RB3LYP) =  -597.753578570     A.U. after   11 cycles
 SCF Done:  E(RB3LYP) =  -597.753587404     A.U. after    9 cycles
 SCF Done:  E(RB3LYP) =  -597.753589756     A.U. after    9 cycles
 SCF Done:  E(RB3LYP) =  -597.753590404     A.U. after    8 cycles
 SCF Done:  E(RB3LYP) =  -597.753590660     A.U. after    8 cycles
 Optimization completed.
    -- Stationary point found.
 Normal termination of Gaussian 16 at Mon Dec 14 16:37:16 2020.

 --------------------------------------------------------------------
 #N Geom=AllCheck Guess=TCheck SCRF=Check GenChk RB3LYP/6-31G(d) Freq
 --------------------------------------------------------------------

 Structure from the checkpoint file:  "JID_3717.chk"
 -------------------------------
 CID_148784482_JID_3717_neutraal
 -------------------------------
 Charge =  0 Multiplicity = 1

 SCF Done:  E(RB3LYP) =  -597.753590660     A.U. after    1 cycles

  Exact polarizability: 124.914  -2.606 113.752   0.821  -1.526 100.484
 Approx polarizability: 173.746  -4.167 158.186   6.665  -4.853 149.334

                      1                      2                      3
                      A                      A                      A
 Frequencies --     42.6066                89.3112                96.9099
 Red. masses --      6.3560                 3.8525                 3.3360
 Frc consts  --      0.0068                 0.0181                 0.0185
 IR Inten    --      2.0172                 0.2851                 0.8275

                      4                      5                      6
                      A                      A                      A
 Frequencies --    132.4567               187.6724               225.4739
 Red. masses --      3.0176                 2.7528                 1.2288
 Frc consts  --      0.0312                 0.0571                 0.0368
 IR Inten    --      0.7062                 1.7304                 0.5377

                      7                      8                      9
                      A                      A                      A
 Frequencies --    227.5429               241.2369               258.7000
 Red. masses --      1.2952                 3.0353                 2.9258
 Frc consts  --      0.0395                 0.1041                 0.1154
 IR Inten    --      0.7132                 2.3403                 0.5454

                     10                     11                     12
                      A                      A                      A
 Frequencies --    298.7300               310.1418               317.6078
 Red. masses --      1.1613                 2.3132                 3.4591
 Frc consts  --      0.0611                 0.1311                 0.2056
 IR Inten    --      0.0297                 3.8061                 2.3437

                     13                     14                     15
                      A                      A                      A
 Frequencies --    345.4622               374.3300               382.6978
 Red. masses --      2.1290                 2.3359                 1.7200
 Frc consts  --      0.1497                 0.1928                 0.1484
 IR Inten    --      0.8289                13.3772                61.1678

                     16                     17                     18
                      A                      A                      A
 Frequencies --    391.0690               420.7302               496.8908
 Red. masses --      1.8279                 2.4621                 3.8420
 Frc consts  --      0.1647                 0.2568                 0.5589
 IR Inten    --     52.2158                17.0654                11.8555

                     19                     20                     21
                      A                      A                      A
 Frequencies --    505.6850               516.2404               544.2349
 Red. masses --      2.1581                 2.6633                 3.5311
 Frc consts  --      0.3251                 0.4182                 0.6162
 IR Inten    --      7.8795                 3.6160                29.0760

                     22                     23                     24
                      A                      A                      A
 Frequencies --    603.1782               634.2782               699.2109
 Red. masses --      2.4466                 3.7446                 1.8975
 Frc consts  --      0.5244                 0.8876                 0.5466
 IR Inten    --      0.5817                 5.7977                21.6416

                     25                     26                     27
                      A                      A                      A
 Frequencies --    734.2476               760.4330               796.5887
 Red. masses --      1.9589                 3.2267                 3.0159
 Frc consts  --      0.6222                 1.0993                 1.1276
 IR Inten    --     48.9792                17.0126                 6.4936

                     28                     29                     30
                      A                      A                      A
 Frequencies --    850.4279               891.2654               908.5824
 Red. masses --      3.8718                 2.0740                 1.9443
 Frc consts  --      1.6498                 0.9707                 0.9457
 IR Inten    --     26.2933                 3.5391                12.5564

                     31                     32                     33
                      A                      A                      A
 Frequencies --    915.6623               971.2908              1000.8701
 Red. masses --      1.8278                 1.7697                 1.7349
 Frc consts  --      0.9029                 0.9837                 1.0239
 IR Inten    --      1.1635                 2.8162                 7.3456

                     34                     35                     36
                      A                      A                      A
 Frequencies --   1007.3612              1014.1546              1042.6818
 Red. masses --      1.8652                 1.6934                 1.6427
 Frc consts  --      1.1152                 1.0262                 1.0523
 IR Inten    --     13.4601                 3.9254                 4.3549

                     37                     38                     39
                      A                      A                      A
 Frequencies --   1062.1932              1089.0240              1104.9454
 Red. masses --      2.3100                 1.9290                 2.4159
 Frc consts  --      1.5356                 1.3479                 1.7378
 IR Inten    --     59.6720                 7.6810                 5.1721

                     40                     41                     42
                      A                      A                      A
 Frequencies --   1140.3026              1145.7821              1169.7006
 Red. masses --      2.0479                 2.2982                 1.9694
 Frc consts  --      1.5689                 1.7776                 1.5876
 IR Inten    --      9.0011                25.5364                 5.7274

                     43                     44                     45
                      A                      A                      A
 Frequencies --   1193.8140              1199.0969              1262.9649
 Red. masses --      2.1698                 1.9694                 1.3932
 Frc consts  --      1.8220                 1.6684                 1.3093
 IR Inten    --     19.2241                26.7757                55.9933

                     46                     47                     48
                      A                      A                      A
 Frequencies --   1287.7278              1293.7103              1315.8954
 Red. masses --      1.4197                 1.4323                 1.8845
 Frc consts  --      1.3871                 1.4124                 1.9226
 IR Inten    --     96.8258                30.5858                40.6398

                     49                     50                     51
                      A                      A                      A
 Frequencies --   1353.2049              1361.6103              1369.5896
 Red. masses --      1.1949                 1.4062                 1.3901
 Frc consts  --      1.2892                 1.5360                 1.5364
 IR Inten    --      2.5943                63.9788                 2.6641

                     52                     53                     54
                      A                      A                      A
 Frequencies --   1391.8017              1401.7242              1405.9262
 Red. masses --      1.2680                 1.3068                 1.3178
 Frc consts  --      1.4472                 1.5128                 1.5347
 IR Inten    --     18.5818                 2.8302                14.9325

                     55                     56                     57
                      A                      A                      A
 Frequencies --   1416.2717              1431.7990              1433.8538
 Red. masses --      1.2876                 1.2828                 1.3741
 Frc consts  --      1.5217                 1.5494                 1.6645
 IR Inten    --     10.4639                13.0387                13.1993

                     58                     59                     60
                      A                      A                      A
 Frequencies --   1439.8004              1446.4760              1451.8511
 Red. masses --      1.3120                 1.3198                 1.2229
 Frc consts  --      1.6025                 1.6270                 1.5188
 IR Inten    --      2.6719                11.1507                13.3600

                     61                     62                     63
                      A                      A                      A
 Frequencies --   1472.1086              1504.2228              1509.2422
 Red. masses --      1.3549                 1.1079                 1.0756
 Frc consts  --      1.7300                 1.4770                 1.4435
 IR Inten    --      6.7988                10.5490                 7.3762

                     64                     65                     66
                      A                      A                      A
 Frequencies --   1521.2254              1522.2604              1529.7167
 Red. masses --      1.1430                 1.3143                 1.0555
 Frc consts  --      1.5585                 1.7944                 1.4552
 IR Inten    --     13.6041                19.1451                 8.7260

                     67                     68                     69
                      A                      A                      A
 Frequencies --   1535.1963              1541.1227              1546.8619
 Red. masses --      1.0590                 1.0500                 1.0448
 Frc consts  --      1.4705                 1.4693                 1.4730
 IR Inten    --      3.7405                 4.0763                 2.9548

                     70                     71                     72
                      A                      A                      A
 Frequencies --   1561.0921              1764.1051              2997.2516
 Red. masses --      1.0519                 6.4416                 1.0846
 Frc consts  --      1.5103                11.8111                 5.7408
 IR Inten    --      0.9040               262.7750                 7.2898

                     73                     74                     75
                      A                      A                      A
 Frequencies --   3011.1762              3027.1847              3046.0517
 Red. masses --      1.0847                 1.0833                 1.0380
 Frc consts  --      5.7946                 5.8492                 5.6746
 IR Inten    --     54.0917                50.3868                21.2488

                     76                     77                     78
                      A                      A                      A
 Frequencies --   3052.6087              3055.1488              3060.1366
 Red. masses --      1.0717                 1.0599                 1.0431
 Frc consts  --      5.8840                 5.8286                 5.7554
 IR Inten    --     13.2050                43.0576                44.1521

                     79                     80                     81
                      A                      A                      A
 Frequencies --   3064.2560              3074.9708              3097.4712
 Red. masses --      1.0458                 1.0790                 1.0993
 Frc consts  --      5.7853                 6.0110                 6.2139
 IR Inten    --     24.6154                 8.2052                12.6166

                     82                     83                     84
                      A                      A                      A
 Frequencies --   3110.1083              3113.4162              3117.6046
 Red. masses --      1.1010                 1.1018                 1.0939
 Frc consts  --      6.2748                 6.2928                 6.2645
 IR Inten    --     41.2182                29.8300                29.0650

                     85                     86                     87
                      A                      A                      A
 Frequencies --   3120.1440              3123.5642              3158.6602
 Red. masses --      1.0998                 1.0974                 1.0996
 Frc consts  --      6.3085                 6.3081                 6.4640
 IR Inten    --     70.7431                14.5803                 9.5908

                     88                     89                     90
                      A                      A                      A
 Frequencies --   3196.6871              3555.2493              3729.4479
 Red. masses --      1.0942                 1.0752                 1.0660
 Frc consts  --      6.5881                 8.0069                 8.7357
 IR Inten    --      6.0066                13.1815                15.3955

 - Thermochemistry -
 -------------------
 Temperature   298.150 Kelvin.  Pressure   1.00000 Atm.
 Atom     1 has atomic number  6 and mass  12.00000

 Molecular mass:   185.14158 amu.
 Principal axes and moments of inertia in atomic units:
                           1         2         3
     Eigenvalues --  1787.725862664.335893004.82371
           X            0.99946  -0.01845  -0.02717
           Y            0.01964   0.99882   0.04450
           Z            0.02631  -0.04501   0.99864
 This molecule is an asymmetric top.
 Rotational symmetry number  1.
 Warning -- assumption of classical behavior for rotation
           may cause significant error
 Rotational temperatures (Kelvin)      0.04845     0.03251     0.02882
 Rotational constants (GHZ):           1.00952     0.67737     0.60061
 Zero-point vibrational energy     760366.3 (Joules/Mol)
                                  181.73191 (Kcal/Mol)
 Warning -- explicit consideration of  22 degrees of freedom as
           vibrations may cause significant error
 Vibrational temperatures:     61.30   128.50   139.43   190.58   270.02
          (Kelvin)            324.41   327.38   347.09   372.21   429.81
                              446.22   456.97   497.04   538.58   550.62
                              562.66   605.34   714.92   727.57   742.75
                              783.03   867.84   912.58  1006.01  1056.42
                             1094.09  1146.11  1223.58  1282.33  1307.25
                             1317.43  1397.47  1440.03  1449.37  1459.14
                             1500.19  1528.26  1566.86  1589.77  1640.64
                             1648.52  1682.94  1717.63  1725.23  1817.12
                             1852.75  1861.36  1893.28  1946.96  1959.05
                             1970.53  2002.49  2016.77  2022.81  2037.70
                             2060.04  2063.00  2071.55  2081.16  2088.89
                             2118.04  2164.24  2171.46  2188.70  2190.19
                             2200.92  2208.81  2217.33  2225.59  2246.06
                             2538.15  4312.38  4332.41  4355.44  4382.59
                             4392.02  4395.68  4402.85  4408.78  4424.20
                             4456.57  4474.75  4479.51  4485.54  4489.19
                             4494.11  4544.61  4599.32  5115.21  5365.84

 Zero-point correction=                           0.289608 (Hartree/Particle)
 Thermal correction to Energy=                    0.303213
 Thermal correction to Enthalpy=                  0.304157
 Thermal correction to Gibbs Free Energy=         0.250523
 Sum of electronic and zero-point Energies=           -597.463982
 Sum of electronic and thermal Energies=              -597.450378
 Sum of electronic and thermal Enthalpies=            -597.449434
 Sum of electronic and thermal Free Energies=         -597.503067

                     E (Thermal)             CV                S
                      KCal/Mol        Cal/Mol-Kelvin    Cal/Mol-Kelvin
 Total                  190.269             53.556            112.882
 Electronic               0.000              0.000              0.000
 Translational            0.889              2.981             41.554
 Rotational               0.889              2.981             31.038
 Vibrational            188.491             47.594             40.290
 Vibration     1          0.595              1.980              5.134
 Vibration     2          0.602              1.957              3.675
 Vibration     3          0.603              1.951              3.516
 Vibration     4          0.613              1.921              2.910
 Vibration     5          0.632              1.857              2.251
 Vibration     6          0.650              1.802              1.915
 Vibration     7          0.651              1.799              1.898
 Vibration     8          0.658              1.777              1.794
 Vibration     9          0.668              1.748              1.671
 Vibration    10          0.692              1.676              1.424
 Vibration    11          0.699              1.654              1.362
 Vibration    12          0.704              1.640              1.322
 Vibration    13          0.724              1.584              1.187
 Vibration    14          0.745              1.525              1.062
 Vibration    15          0.752              1.507              1.028
 Vibration    16          0.759              1.489              0.996
 Vibration    17          0.783              1.425              0.889
 Vibration    18          0.852              1.257              0.666
 Vibration    19          0.861              1.237              0.644
 Vibration    20          0.871              1.214              0.619
 Vibration    21          0.899              1.152              0.556
 Vibration    22          0.962              1.025              0.444

                           ! Non-Optimized Parameters !
 Normal termination of Gaussian 16 at Mon Dec 14 16:47:22 2020.

 ----------------------------------------------------------------------
 # B3LYP/6-311++G(d,p) empiricaldispersion=gd3bj scf=xqc pop=npa geom=c
 heck
 ----------------------------------------------------------------------

 ---------------------------------------
 CID_148784482_JID_3717_Energie_neutraal
 ---------------------------------------
 Structure from the checkpoint file:  "JID_3717.chk"
 Charge =  0 Multiplicity = 1

 SCF Done:  E(RB3LYP) =  -597.936306856     A.U. after   15 cycles
 Normal termination of Gaussian 16 at Mon Dec 14 16:52:09 2020.

 ----------------------------------------------------------------------
 # B3LYP/6-311++G(d,p) empiricaldispersion=gd3bj scf=xqc pop=npa geom=c
 heck
 ----------------------------------------------------------------------

 -------------------------------------
 CID_148784482_JID_3717_Energie_kation
 -------------------------------------
 Structure from the checkpoint file:  "JID_3717.chk"
 Charge =  1 Multiplicity = 2

 SCF Done:  E(UB3LYP) =  -597.605959332     A.U. after   27 cycles
 Normal termination of Gaussian 16 at Mon Dec 14 17:03:55 2020.
 Gaussian 16:  ES64L-G16RevA.03 25-Dec-2016

 ----------------------------------------------------------------------
 # B3LYP/6-311++G(d,p) empiricaldispersion=gd3bj scf=xqc pop=npa geom=c
 heck
 ----------------------------------------------------------------------

 ------------------------------------
 CID_148784482_JID_3717_Energie_anion
 ------------------------------------
 Structure from the checkpoint file:  "JID_3717.chk"
 Charge = -1 Multiplicity = 2

                         Standard orientation:
 ---------------------------------------------------------------------
 Center     Atomic      Atomic             Coordinates (Angstroms)
 Number     Number       Type             X           Y           Z
 ---------------------------------------------------------------------
      1          6           0        2.789814   -0.858491   -1.344624
      2          6           0        1.391216   -0.520175   -0.796693
      3          6           0        1.015096   -1.598107    0.227646
      4          6           0       -0.371916   -1.599620    0.868819
      5          7           0       -1.503045   -1.336765   -0.012573
      6          6           0       -2.011767   -0.197393   -0.634383
      7          8           0       -3.217474   -0.181893   -0.857664
      8          6           0       -1.158374    0.940665   -1.193736
      9          6           0       -0.069984    1.666559   -0.375647
     10          6           0        1.340710    0.961775   -0.332610
     11          6           0        2.090694    1.189411    0.988131
     12          6           0       -0.651550    2.164844    0.957527
     13          8           0       -0.335813   -0.757187    2.017369
     14          1           0        3.076795   -0.164526   -2.142279
     15          1           0        2.813559   -1.873296   -1.758094
     16          1           0        3.556283   -0.804933   -0.563170
     17          1           0        0.704566   -0.634499   -1.641520
     18          1           0        1.115000   -2.564650   -0.280893
     19          1           0        1.736514   -1.608120    1.052636
     20          1           0       -0.554985   -2.629526    1.205670
     21          1           0       -2.294514   -1.945933    0.167492
     22          1           0       -1.913639    1.681032   -1.468666
     23          1           0       -0.743465    0.578643   -2.142971
     24          1           0        0.104780    2.578668   -0.961919
     25          1           0        1.921848    1.484112   -1.104701
     26          1           0        3.092196    0.747401    0.948778
     27          1           0        2.221237    2.258791    1.184166
     28          1           0        1.557037    0.750839    1.833961
     29          1           0       -1.593780    2.692306    0.767194
     30          1           0       -0.845365    1.345534    1.647678
     31          1           0        0.024302    2.869092    1.451012
     32          1           0       -1.214391   -0.787758    2.429413
 ---------------------------------------------------------------------

 SCF Done:  E(UB3LYP) =  -597.927527923     A.U. after   31 cycles

 The electronic state is 2-A.
 Alpha  occ. eigenvalues --  -19.02269 -18.98635 -14.22650 -10.17379 -10.15478
 Alpha  occ. eigenvalues --  -10.07848 -10.07538 -10.07209 -10.07174 -10.06304
 Alpha  occ. eigenvalues --  -10.05948 -10.05083 -10.04934  -0.94288  -0.92892
 Alpha  occ. eigenvalues --   -0.80064  -0.72928  -0.69107  -0.63814  -0.62279
 Alpha  occ. eigenvalues --   -0.59602  -0.54761  -0.54418  -0.48703  -0.47426
 Alpha  occ. eigenvalues --   -0.42956  -0.42283  -0.39154  -0.37719  -0.36749
 Alpha  occ. eigenvalues --   -0.35884  -0.33888  -0.33329  -0.31485  -0.30702
 Alpha  occ. eigenvalues --   -0.30590  -0.29096  -0.28964  -0.28450  -0.27439
 Alpha  occ. eigenvalues --   -0.26763  -0.25814  -0.24696  -0.23980  -0.23228
 Alpha  occ. eigenvalues --   -0.20903  -0.20734  -0.20592  -0.19022  -0.15782
 Alpha  occ. eigenvalues --   -0.14914   0.04250
 Alpha virt. eigenvalues --    0.06313   0.07337   0.07977   0.09093   0.09255
 Alpha virt. eigenvalues --    0.09807   0.10364   0.10826   0.11040   0.11734
 Alpha virt. eigenvalues --    0.12276   0.12936   0.13518   0.13634   0.14034

  Beta  occ. eigenvalues --  -19.02234 -18.98623 -14.22624 -10.17376 -10.15440
  Beta  occ. eigenvalues --  -10.07839 -10.07527 -10.07202 -10.07166 -10.06283
  Beta  occ. eigenvalues --  -10.05922 -10.05067 -10.04918  -0.94244  -0.92833
  Beta  occ. eigenvalues --   -0.79998  -0.72901  -0.69075  -0.63770  -0.62224
  Beta  occ. eigenvalues --   -0.59565  -0.54719  -0.54351  -0.48654  -0.47347
  Beta  occ. eigenvalues --   -0.42882  -0.42213  -0.39098  -0.37675  -0.36703
  Beta  occ. eigenvalues --   -0.35844  -0.33852  -0.33291  -0.31458  -0.30671
  Beta  occ. eigenvalues --   -0.30562  -0.29068  -0.28923  -0.28414  -0.27409
  Beta  occ. eigenvalues --   -0.26737  -0.25783  -0.24663  -0.23951  -0.23175
  Beta  occ. eigenvalues --   -0.20873  -0.20708  -0.20551  -0.18978  -0.15735
  Beta  occ. eigenvalues --   -0.14882
  Beta virt. eigenvalues --    0.06455   0.07764   0.07801   0.08248   0.09505
  Beta virt. eigenvalues --    0.09868   0.10110   0.10545   0.11136   0.11367
  Beta virt. eigenvalues --    0.12348   0.12639   0.13103   0.13588   0.13915

 Mulliken charges and spin densities:
               1          2
     1  C    0.522884  -1.128583
     2  C   -0.557263   1.002302
     3  C   -1.768730   1.229700
     4  C    2.983216  -3.386032
     5  N   -0.631626   0.366072
     6  C   -0.613392   0.465916
     7  O   -0.316199   0.020684
     8  C    0.997541  -1.318883
     9  C   -0.645420   0.715648
    10  C    0.727353  -0.355916
    11  C    0.038769  -0.915670
    12  C   -0.102938  -0.483320
    13  O   -0.198893   0.033402
    14  H   -0.263770   0.397872
    15  H   -0.170511   0.313495
    16  H    0.086933   0.044474
    17  H    0.096567   0.061822
    18  H   -0.124366   0.294077
    19  H    0.051983   0.138588
    20  H   -1.089929   1.295886
    21  H   -0.089604   0.431444
    22  H    0.158358   0.060819
    23  H   -0.018745   0.178378
    24  H   -0.193391   0.382241
    25  H    0.058710   0.130994
    26  H   -0.024959   0.140723
    27  H   -0.008584   0.127580
    28  H    0.155962   0.048467
    29  H   -0.023299   0.162060
    30  H    0.076510   0.031588
    31  H    0.024685   0.104560
    32  H   -0.137854   0.409610
 Sum of Mulliken charges =  -1.00000   1.00000

 Dipole moment (field-independent basis, Debye):
    X=              2.5488    Y=              4.0649    Z=             -1.0041  Tot=              4.9018
 Quadrupole moment (field-independent basis, Debye-Ang):
   XX=           -133.2341   YY=           -130.9224   ZZ=           -119.2957
   XY=             -5.7979   XZ=              3.0775   YZ=              6.1007

 Summary of Natural Population Analysis:

                                       Natural Population
                Natural  -----------------------------------------------
    Atom  No    Charge         Core      Valence    Rydberg      Total
 -----------------------------------------------------------------------
      C    1   -0.27809      0.99965     2.27336    0.00508     3.27809
      C    2   -0.11274      0.99957     2.10245    0.01072     3.11274
      C    3   -0.19934      0.99957     2.18818    0.01158     3.19934
      C    4    0.15286      0.99958     1.82889    0.01868     2.84714
      N    5   -0.33701      0.99966     2.82600    0.01135     3.83701
      C    6    0.35160      0.99966     1.62576    0.02298     2.64840
      O    7   -0.32074      0.99988     3.31486    0.00600     4.32074
      C    8   -0.23137      0.99955     2.22350    0.00832     3.23137
      C    9   -0.10430      0.99958     2.09343    0.01130     3.10430
      C   10   -0.10402      0.99957     2.09211    0.01234     3.10402
      C   11   -0.29210      0.99964     2.28735    0.00511     3.29210
      C   12   -0.29081      0.99964     2.28624    0.00493     3.29081
      O   13   -0.37516      0.99989     3.36850    0.00677     4.37516
      H   14    0.09765      0.00000     0.40122    0.00112     0.40235
      H   15    0.09959      0.00000     0.39945    0.00097     0.40041
      H   16    0.09517      0.00000     0.40381    0.00102     0.40483
      H   17    0.09744      0.00000     0.40027    0.00229     0.40256
      H   18    0.10563      0.00000     0.39281    0.00156     0.39437
      H   19    0.10511      0.00000     0.39344    0.00145     0.39489
      H   20    0.08725      0.00000     0.40579    0.00695     0.41275
      H   21    0.19833      0.00000     0.29762    0.00405     0.30167
      H   22    0.11266      0.00000     0.38621    0.00113     0.38734
      H   23    0.11118      0.00000     0.38750    0.00132     0.38882
      H   24    0.09446      0.00000     0.40385    0.00170     0.40554
      H   25    0.09346      0.00000     0.40436    0.00218     0.40654
      H   26    0.09694      0.00000     0.40213    0.00093     0.40306
      H   27    0.09676      0.00000     0.40235    0.00090     0.40324
      H   28    0.11089      0.00000     0.38765    0.00147     0.38911
      H   29    0.09638      0.00000     0.40263    0.00099     0.40362
      H   30    0.10928      0.00000     0.38944    0.00128     0.39072
      H   31    0.09783      0.00000     0.40118    0.00098     0.40217
      H   32    0.23521      0.00000     0.25909    0.00569     0.26479
 =======================================================================
   * Total *   -0.00000     12.99544    37.83143    0.17314    51.00000

 Normal termination of Gaussian 16 at Mon Dec 14 17:17:06 2020.
