 Gaussian 16, Revision A.03,

 -----------------------------------------------------------
 # opt freq B3LYP/6-31G(d) empiricaldispersion=gd3bj scf=xqc
 -----------------------------------------------------------

 ------------------------------
 CID_61003145_JID_7319_neutraal
 ------------------------------
 Symbolic Z-matrix:
 Charge =  0 Multiplicity = 1

 SCF Done:  E(RB3LYP) =  -803.358133600     A.U. after   15 cycles
 SCF Done:  E(RB3LYP) =  -803.362544935     A.U. after   14 cycles
 SCF Done:  E(RB3LYP) =  -803.364984075     A.U. after   13 cycles
 SCF Done:  E(RB3LYP) =  -803.369585453     A.U. after   13 cycles
 SCF Done:  E(RB3LYP) =  -803.375122626     A.U. after   15 cycles
 SCF Done:  E(RB3LYP) =  -803.377276000     A.U. after   15 cycles
 SCF Done:  E(RB3LYP) =  -803.379472664     A.U. after   12 cycles
 SCF Done:  E(RB3LYP) =  -803.380538772     A.U. after   12 cycles
 SCF Done:  E(RB3LYP) =  -803.381233480     A.U. after   13 cycles
 SCF Done:  E(RB3LYP) =  -803.381894881     A.U. after   12 cycles
 SCF Done:  E(RB3LYP) =  -803.382625430     A.U. after   10 cycles
 SCF Done:  E(RB3LYP) =  -803.382626435     A.U. after    9 cycles
 SCF Done:  E(RB3LYP) =  -803.382630375     A.U. after   10 cycles
 SCF Done:  E(RB3LYP) =  -803.382630659     A.U. after    8 cycles
 SCF Done:  E(RB3LYP) =  -803.382630716     A.U. after    7 cycles
 SCF Done:  E(RB3LYP) =  -803.382630723     A.U. after    7 cycles
 Optimization completed.
    -- Stationary point found.
 Normal termination of Gaussian 16 at Fri Dec 11 12:39:59 2020.

 --------------------------------------------------------------------
 #N Geom=AllCheck Guess=TCheck SCRF=Check GenChk RB3LYP/6-31G(d) Freq
 --------------------------------------------------------------------

 Structure from the checkpoint file:  "JID_7319.chk"
 ------------------------------
 CID_61003145_JID_7319_neutraal
 ------------------------------
 Charge =  0 Multiplicity = 1

 SCF Done:  E(RB3LYP) =  -803.382630723     A.U. after    1 cycles

  Exact polarizability: 168.442  -2.078 178.762 -27.805  -1.328 110.859
 Approx polarizability: 242.027   2.668 276.827 -57.774  -9.677 166.812

                      1                      2                      3
                      A                      A                      A
 Frequencies --     19.3748                28.4915                42.8902
 Red. masses --      4.4190                 4.4094                 2.0313
 Frc consts  --      0.0010                 0.0021                 0.0022
 IR Inten    --      0.1813                 0.1701                 0.0623

                      4                      5                      6
                      A                      A                      A
 Frequencies --     45.1102                51.1428                68.0013
 Red. masses --      2.6155                 1.6475                 4.8363
 Frc consts  --      0.0031                 0.0025                 0.0132
 IR Inten    --      2.4470                 0.1439                 1.1715

                      7                      8                      9
                      A                      A                      A
 Frequencies --     93.0463               108.0939               169.0575
 Red. masses --      2.7982                 2.9024                 3.4183
 Frc consts  --      0.0143                 0.0200                 0.0576
 IR Inten    --      2.4775                 2.3249                 0.8310

                     10                     11                     12
                      A                      A                      A
 Frequencies --    189.6733               220.4399               244.2545
 Red. masses --      3.8450                 3.2929                 1.0810
 Frc consts  --      0.0815                 0.0943                 0.0380
 IR Inten    --      0.6153                 6.3918                 0.3047

                     13                     14                     15
                      A                      A                      A
 Frequencies --    249.2812               252.2815               279.6854
 Red. masses --      1.2203                 4.3707                 3.5181
 Frc consts  --      0.0447                 0.1639                 0.1621
 IR Inten    --      1.1096                 0.7949                 0.2924

                     16                     17                     18
                      A                      A                      A
 Frequencies --    305.7963               336.3742               361.6673
 Red. masses --      3.8720                 2.9434                 3.6306
 Frc consts  --      0.2133                 0.1962                 0.2798
 IR Inten    --      0.6706                 2.0981                 4.3332

                     19                     20                     21
                      A                      A                      A
 Frequencies --    364.8220               397.7689               413.1589
 Red. masses --      3.8523                 6.4835                 2.7357
 Frc consts  --      0.3021                 0.6044                 0.2751
 IR Inten    --      1.0520                 5.6608                11.7530

                     22                     23                     24
                      A                      A                      A
 Frequencies --    470.3403               530.9263               546.7037
 Red. masses --      2.1477                 2.9508                 4.4209
 Frc consts  --      0.2799                 0.4901                 0.7785
 IR Inten    --      3.3296                 4.6759                 4.0046

                     25                     26                     27
                      A                      A                      A
 Frequencies --    552.8207               583.8554               619.6275
 Red. masses --      2.7701                 4.3746                 4.8873
 Frc consts  --      0.4988                 0.8786                 1.1055
 IR Inten    --      3.7086                 8.9690                16.8671

                     28                     29                     30
                      A                      A                      A
 Frequencies --    621.5460               643.4497               657.1003
 Red. masses --      1.3619                 3.7050                 2.1796
 Frc consts  --      0.3100                 0.9038                 0.5545
 IR Inten    --     93.7206                 3.4113                44.6994

                     31                     32                     33
                      A                      A                      A
 Frequencies --    710.0677               749.7780               769.6003
 Red. masses --      1.4769                 5.1889                 3.4555
 Frc consts  --      0.4387                 1.7186                 1.2059
 IR Inten    --     41.9742                22.5444                53.8795

                     34                     35                     36
                      A                      A                      A
 Frequencies --    798.7037               805.4210               838.1867
 Red. masses --      7.6617                 1.1931                 1.2406
 Frc consts  --      2.8797                 0.4560                 0.5135
 IR Inten    --     31.4367                 4.1230                 4.6107

                     37                     38                     39
                      A                      A                      A
 Frequencies --    842.9492               889.6582               923.3807
 Red. masses --      2.3417                 2.3301                 2.3295
 Frc consts  --      0.9804                 1.0866                 1.1702
 IR Inten    --      3.6847                 5.8194                 7.0041

                     40                     41                     42
                      A                      A                      A
 Frequencies --    980.0232              1011.4314              1021.0773
 Red. masses --      2.9911                 2.5118                 2.7665
 Frc consts  --      1.6926                 1.5140                 1.6994
 IR Inten    --      1.8465                11.9042                 9.9309

                     43                     44                     45
                      A                      A                      A
 Frequencies --   1059.7285              1067.1512              1071.6502
 Red. masses --      1.6330                 1.5989                 2.1483
 Frc consts  --      1.0805                 1.0728                 1.4536
 IR Inten    --     20.5328                 8.1757                18.7673

                     46                     47                     48
                      A                      A                      A
 Frequencies --   1076.7458              1104.0878              1110.0246
 Red. masses --      1.5602                 4.7704                 2.4025
 Frc consts  --      1.0658                 3.4262                 1.7441
 IR Inten    --      0.0591                53.1786                25.4880

                     49                     50                     51
                      A                      A                      A
 Frequencies --   1130.3701              1161.3505              1168.0572
 Red. masses --      2.2115                 3.5618                 3.2008
 Frc consts  --      1.6648                 2.8304                 2.5730
 IR Inten    --     19.7228               146.9454                73.5421

                     52                     53                     54
                      A                      A                      A
 Frequencies --   1212.4908              1216.3366              1247.1240
 Red. masses --      1.9931                 2.0529                 1.5321
 Frc consts  --      1.7264                 1.7895                 1.4040
 IR Inten    --     62.2888               284.2127                29.3403

                     55                     56                     57
                      A                      A                      A
 Frequencies --   1293.4932              1312.4948              1331.5088
 Red. masses --      1.3138                 1.4684                 2.2742
 Frc consts  --      1.2951                 1.4904                 2.3756
 IR Inten    --      5.6111                21.8690                 7.2137

                     58                     59                     60
                      A                      A                      A
 Frequencies --   1349.6892              1365.1462              1373.6120
 Red. masses --      1.1338                 2.7715                 2.4698
 Frc consts  --      1.2169                 3.0431                 2.7456
 IR Inten    --      2.4534                16.3014                64.1042

                     61                     62                     63
                      A                      A                      A
 Frequencies --   1396.3856              1411.1445              1427.8508
 Red. masses --      1.3064                 1.4855                 1.4999
 Frc consts  --      1.5009                 1.7428                 1.8017
 IR Inten    --     32.9280                61.1579                34.6133

                     64                     65                     66
                      A                      A                      A
 Frequencies --   1433.5458              1435.7166              1442.7300
 Red. masses --      1.5152                 1.5495                 1.3019
 Frc consts  --      1.8346                 1.8819                 1.5966
 IR Inten    --     75.9961                15.4003                16.3331

                     67                     68                     69
                      A                      A                      A
 Frequencies --   1445.0905              1484.7441              1505.1819
 Red. masses --      1.3201                 1.4154                 1.0458
 Frc consts  --      1.6242                 1.8383                 1.3960
 IR Inten    --     14.3800                20.5156                 5.7173

                     70                     71                     72
                      A                      A                      A
 Frequencies --   1509.2437              1512.3867              1515.0198
 Red. masses --      1.2453                 1.0461                 1.0802
 Frc consts  --      1.6713                 1.4098                 1.4608
 IR Inten    --     15.4123                 7.0853                 1.2942

                     73                     74                     75
                      A                      A                      A
 Frequencies --   1517.7709              1518.2996              1528.4105
 Red. masses --      1.1640                 1.0468                 1.3021
 Frc consts  --      1.5799                 1.4218                 1.7922
 IR Inten    --     35.0179                 5.9527                 2.2251

                     76                     77                     78
                      A                      A                      A
 Frequencies --   1532.7935              1544.6237              1579.3751
 Red. masses --      1.3939                 1.0933                 3.2328
 Frc consts  --      1.9295                 1.5369                 4.7512
 IR Inten    --      3.8633                 3.1796                53.1989

                     79                     80                     81
                      A                      A                      A
 Frequencies --   1629.6386              1645.3523              1756.6025
 Red. masses --      6.1954                 2.8953                 6.9440
 Frc consts  --      9.6940                 4.6180                12.6244
 IR Inten    --    342.0797               393.7658               382.1507

                     82                     83                     84
                      A                      A                      A
 Frequencies --   3033.8598              3041.9719              3050.0145
 Red. masses --      1.0597                 1.0599                 1.0379
 Frc consts  --      5.7468                 5.7788                 5.6889
 IR Inten    --     67.0910                 6.2701                17.7579

                     85                     86                     87
                      A                      A                      A
 Frequencies --   3057.7171              3072.5138              3077.3545
 Red. masses --      1.0362                 1.0355                 1.0811
 Frc consts  --      5.7081                 5.7595                 6.0322
 IR Inten    --     15.4135                16.7053                 1.4403

                     88                     89                     90
                      A                      A                      A
 Frequencies --   3092.7493              3093.7274              3116.6844
 Red. masses --      1.0964                 1.0898                 1.1009
 Frc consts  --      6.1791                 6.1455                 6.3005
 IR Inten    --     20.2538                84.3234                41.2244

                     91                     92                     93
                      A                      A                      A
 Frequencies --   3116.7531              3131.1755              3140.1296
 Red. masses --      1.1006                 1.1038                 1.1001
 Frc consts  --      6.2989                 6.3763                 6.3913
 IR Inten    --      9.6191                44.2729                 7.6533

                     94                     95                     96
                      A                      A                      A
 Frequencies --   3140.4598              3143.6138              3145.1748
 Red. masses --      1.1052                 1.1030                 1.1040
 Frc consts  --      6.4220                 6.4223                 6.4346
 IR Inten    --     15.7871                16.5861                18.5888

                     97                     98                     99
                      A                      A                      A
 Frequencies --   3206.6486              3538.9576              3686.6847
 Red. masses --      1.0910                 1.0781                 1.0639
 Frc consts  --      6.6095                 7.9554                 8.5197
 IR Inten    --     13.8298               126.7873                79.4673

 - Thermochemistry -
 -------------------
 Temperature   298.150 Kelvin.  Pressure   1.00000 Atm.
 Atom     1 has atomic number  6 and mass  12.00000

 Molecular mass:   238.13174 amu.
 Principal axes and moments of inertia in atomic units:
                           1         2         3
     Eigenvalues --  3305.720605006.210966599.80796
           X            0.99998   0.00567   0.00333
           Y           -0.00570   0.99993   0.00998
           Z           -0.00327  -0.01000   0.99994
 This molecule is an asymmetric top.
 Rotational symmetry number  1.
 Warning -- assumption of classical behavior for rotation
           may cause significant error
 Rotational temperatures (Kelvin)      0.02620     0.01730     0.01312
 Rotational constants (GHZ):           0.54594     0.36050     0.27345
 Zero-point vibrational energy     778267.8 (Joules/Mol)
                                  186.01047 (Kcal/Mol)
 Warning -- explicit consideration of  27 degrees of freedom as
           vibrations may cause significant error
 Vibrational temperatures:     27.88    40.99    61.71    64.90    73.58
          (Kelvin)             97.84   133.87   155.52   243.24   272.90
                              317.16   351.43   358.66   362.98   402.40
                              439.97   483.97   520.36   524.90   572.30
                              594.44   676.71   763.88   786.58   795.39
                              840.04   891.51   894.27   925.78   945.42
                             1021.63  1078.76  1107.28  1149.16  1158.82
                             1205.96  1212.82  1280.02  1328.54  1410.03
                             1455.22  1469.10  1524.71  1535.39  1541.87
                             1549.20  1588.54  1597.08  1626.35  1670.92
                             1680.57  1744.50  1750.04  1794.33  1861.05
                             1888.39  1915.74  1941.90  1964.14  1976.32
                             2009.09  2030.32  2054.36  2062.55  2065.68
                             2075.77  2079.16  2136.22  2165.62  2171.47
                             2175.99  2179.78  2183.73  2184.49  2199.04
                             2205.35  2222.37  2272.37  2344.69  2367.29
                             2527.36  4365.05  4376.72  4388.29  4399.37
                             4420.66  4427.63  4449.78  4451.18  4484.21
                             4484.31  4505.06  4517.95  4518.42  4522.96
                             4525.21  4613.65  5091.77  5304.32

 Zero-point correction=                           0.296427 (Hartree/Particle)
 Thermal correction to Energy=                    0.314342
 Thermal correction to Enthalpy=                  0.315287
 Thermal correction to Gibbs Free Energy=         0.247945
 Sum of electronic and zero-point Energies=           -803.086204
 Sum of electronic and thermal Energies=              -803.068288
 Sum of electronic and thermal Enthalpies=            -803.067344
 Sum of electronic and thermal Free Energies=         -803.134686

                     E (Thermal)             CV                S
                      KCal/Mol        Cal/Mol-Kelvin    Cal/Mol-Kelvin
 Total                  197.253             65.467            141.732
 Electronic               0.000              0.000              0.000
 Translational            0.889              2.981             42.304
 Rotational               0.889              2.981             33.057
 Vibrational            195.475             59.506             66.371
 Vibration     1          0.593              1.986              6.697
 Vibration     2          0.593              1.984              5.932
 Vibration     3          0.595              1.980              5.121
 Vibration     4          0.595              1.979              5.021
 Vibration     5          0.595              1.977              4.773
 Vibration     6          0.598              1.969              4.210
 Vibration     7          0.602              1.954              3.595
 Vibration     8          0.606              1.943              3.303
 Vibration     9          0.625              1.881              2.446
 Vibration    10          0.633              1.854              2.231
 Vibration    11          0.647              1.810              1.955
 Vibration    12          0.660              1.772              1.772
 Vibration    13          0.662              1.764              1.736
 Vibration    14          0.664              1.759              1.715
 Vibration    15          0.680              1.711              1.536
 Vibration    16          0.696              1.663              1.385
 Vibration    17          0.717              1.603              1.229
 Vibration    18          0.736              1.551              1.115
 Vibration    19          0.738              1.545              1.101
 Vibration    20          0.764              1.475              0.971
 Vibration    21          0.777              1.442              0.916
 Vibration    22          0.827              1.316              0.737
 Vibration    23          0.886              1.182              0.585
 Vibration    24          0.902              1.147              0.551
 Vibration    25          0.908              1.134              0.538
 Vibration    26          0.941              1.066              0.478
 Vibration    27          0.980              0.990              0.417

 Optimization completed.
    -- Stationary point found.
 Normal termination of Gaussian 16 at Fri Dec 11 12:54:47 2020.

 ----------------------------------------------------------------------
 # B3LYP/6-311++G(d,p) empiricaldispersion=gd3bj scf=xqc pop=npa geom=c
 heck
 ----------------------------------------------------------------------

 --------------------------------------
 CID_61003145_JID_7319_Energie_neutraal
 --------------------------------------
 Structure from the checkpoint file:  "JID_7319.chk"
 Charge =  0 Multiplicity = 1

 SCF Done:  E(RB3LYP) =  -803.616757922     A.U. after   15 cycles
 Normal termination of Gaussian 16 at Fri Dec 11 13:02:00 2020.

 ----------------------------------------------------------------------
 # B3LYP/6-311++G(d,p) empiricaldispersion=gd3bj scf=xqc pop=npa geom=c
 heck
 ----------------------------------------------------------------------

 ------------------------------------
 CID_61003145_JID_7319_Energie_kation
 ------------------------------------
 Structure from the checkpoint file:  "JID_7319.chk"
 Charge =  1 Multiplicity = 2

 SCF Done:  E(UB3LYP) =  -803.337907679     A.U. after   24 cycles
 Normal termination of Gaussian 16 at Fri Dec 11 13:18:36 2020.
 Gaussian 16:  ES64L-G16RevA.03 25-Dec-2016

 ----------------------------------------------------------------------
 # B3LYP/6-311++G(d,p) empiricaldispersion=gd3bj scf=xqc pop=npa geom=c
 heck
 ----------------------------------------------------------------------

 -----------------------------------
 CID_61003145_JID_7319_Energie_anion
 -----------------------------------
 Structure from the checkpoint file:  "JID_7319.chk"
 Charge = -1 Multiplicity = 2

                         Standard orientation:
 ---------------------------------------------------------------------
 Center     Atomic      Atomic             Coordinates (Angstroms)
 Number     Number       Type             X           Y           Z
 ---------------------------------------------------------------------
      1          6           0       -3.385209   -0.291051   -2.365815
      2          6           0       -2.771954   -0.889298   -1.103619
      3          8           0       -3.363453   -0.369110    0.082880
      4          6           0       -2.863268    0.892075    0.507284
      5          6           0       -1.945196    0.719415    1.718186
      6          7           0       -0.797561   -0.120662    1.421204
      7          6           0        0.280509    0.322564    0.731679
      8          6           0        1.296489   -0.581630    0.244424
      9          6           0        2.416206   -0.008315   -0.408528
     10          6           0        2.454892    1.377090   -0.556707
     11          6           0        1.403390    2.167741   -0.085050
     12          7           0        0.344190    1.655684    0.538130
     13          6           0        1.407712    3.663205   -0.262302
     14          6           0        3.577434   -0.794127   -0.967644
     15          6           0        1.095534   -2.022991    0.422933
     16          8           0        0.110135   -2.555334    0.932018
     17          8           0        2.099047   -2.817442   -0.032697
     18          1           0       -4.466865   -0.459806   -2.379236
     19          1           0       -2.948332   -0.748441   -3.261625
     20          1           0       -3.208105    0.789206   -2.419224
     21          1           0       -2.949125   -1.969455   -1.068777
     22          1           0       -1.683972   -0.737588   -1.093067
     23          1           0       -2.313420    1.398156   -0.295779
     24          1           0       -3.718980    1.522803    0.781396
     25          1           0       -1.599776    1.695844    2.066026
     26          1           0       -2.501375    0.233114    2.525376
     27          1           0       -0.910349   -1.128266    1.453278
     28          1           0        3.299006    1.842201   -1.054434
     29          1           0        1.367698    4.158389    0.714292
     30          1           0        2.297283    4.007715   -0.796471
     31          1           0        0.516931    3.978597   -0.816838
     32          1           0        4.306820   -0.109599   -1.408829
     33          1           0        4.073507   -1.384987   -0.193257
     34          1           0        3.252190   -1.501747   -1.734958
     35          1           0        1.795415   -3.724260    0.160142
 ---------------------------------------------------------------------

 SCF Done:  E(UB3LYP) =  -803.621219956     A.U. after   28 cycles

 The electronic state is 2-A.
 Alpha  occ. eigenvalues --  -19.01021 -19.00963 -18.93683 -14.17271 -14.12909
 Alpha  occ. eigenvalues --  -10.12138 -10.10637 -10.09837 -10.08956 -10.07390
 Alpha  occ. eigenvalues --  -10.06534 -10.03303 -10.02944 -10.02416 -10.01978
 Alpha  occ. eigenvalues --  -10.01453 -10.00455  -0.94970  -0.92177  -0.85155
 Alpha  occ. eigenvalues --   -0.81627  -0.75143  -0.66328  -0.66042  -0.62957
 Alpha  occ. eigenvalues --   -0.60283  -0.57295  -0.54708  -0.53150  -0.49417
 Alpha  occ. eigenvalues --   -0.47439  -0.45508  -0.42817  -0.38881  -0.38245
 Alpha  occ. eigenvalues --   -0.36178  -0.35874  -0.34557  -0.34232  -0.33830
 Alpha  occ. eigenvalues --   -0.30899  -0.30613  -0.30209  -0.28945  -0.28863
 Alpha  occ. eigenvalues --   -0.28364  -0.27710  -0.26991  -0.26692  -0.25709
 Alpha  occ. eigenvalues --   -0.25433  -0.24638  -0.24257  -0.23400  -0.22410
 Alpha  occ. eigenvalues --   -0.20491  -0.20048  -0.17392  -0.16395  -0.14011
 Alpha  occ. eigenvalues --   -0.12403  -0.11836  -0.10387  -0.06352   0.05460
 Alpha virt. eigenvalues --    0.07657   0.08909   0.09192   0.09602   0.10523
 Alpha virt. eigenvalues --    0.10671   0.11226   0.11863   0.12091   0.12643
 Alpha virt. eigenvalues --    0.13086   0.13349   0.14088   0.14315   0.14949

  Beta  occ. eigenvalues --  -19.01021 -19.00866 -18.93355 -14.17250 -14.12853
  Beta  occ. eigenvalues --  -10.11817 -10.10636 -10.09836 -10.08897 -10.07390
  Beta  occ. eigenvalues --  -10.06534 -10.02988 -10.02789 -10.02454 -10.01492
  Beta  occ. eigenvalues --  -10.01408 -10.00629  -0.94614  -0.92174  -0.84676
  Beta  occ. eigenvalues --   -0.81422  -0.74837  -0.66216  -0.65544  -0.62734
  Beta  occ. eigenvalues --   -0.60111  -0.56976  -0.54662  -0.53057  -0.49249
  Beta  occ. eigenvalues --   -0.47190  -0.45354  -0.42359  -0.38829  -0.38182
  Beta  occ. eigenvalues --   -0.36025  -0.35553  -0.34467  -0.34079  -0.33654
  Beta  occ. eigenvalues --   -0.30815  -0.30317  -0.29347  -0.28764  -0.28276
  Beta  occ. eigenvalues --   -0.28138  -0.27671  -0.26635  -0.26280  -0.25609
  Beta  occ. eigenvalues --   -0.25315  -0.24569  -0.24031  -0.23017  -0.22183
  Beta  occ. eigenvalues --   -0.20259  -0.20014  -0.16112  -0.15839  -0.13594
  Beta  occ. eigenvalues --   -0.12113  -0.10263  -0.10163  -0.05697
  Beta virt. eigenvalues --    0.07629   0.08869   0.09159   0.09564   0.10500
  Beta virt. eigenvalues --    0.10634   0.11188   0.11697   0.12056   0.12223
  Beta virt. eigenvalues --    0.12806   0.13137   0.13481   0.14112   0.14371

 Mulliken charges and spin densities:
               1          2
     1  C   -0.439375  -0.000117
     2  C   -0.304536   0.001465
     3  O   -0.078752  -0.000698
     4  C   -0.174976   0.002973
     5  C   -0.303558  -0.013783
     6  N   -0.056244   0.022824
     7  C   -0.698432   0.014695
     8  C    0.434959   0.089938
     9  C    0.819551   0.337014
    10  C   -1.080494  -0.151856
    11  C    0.005703   0.324153
    12  N   -0.062681   0.021989
    13  C   -0.557047  -0.051802
    14  C   -0.361067  -0.029425
    15  C   -0.159004   0.169802
    16  O   -0.442505   0.108489
    17  O   -0.232775   0.014111
    18  H    0.136813   0.000218
    19  H    0.113932   0.000458
    20  H    0.135070   0.000114
    21  H    0.141478  -0.000079
    22  H    0.197415  -0.001844
    23  H    0.135766   0.000695
    24  H    0.123273   0.005006
    25  H    0.151618   0.008814
    26  H    0.146669   0.001162
    27  H    0.357801  -0.001785
    28  H    0.064185   0.010155
    29  H    0.089703   0.051189
    30  H    0.120479   0.000830
    31  H    0.108417   0.023620
    32  H    0.094337   0.000787
    33  H    0.157635   0.020193
    34  H    0.154485   0.023041
    35  H    0.262158  -0.002347
 Sum of Mulliken charges =  -1.00000   1.00000

 Dipole moment (field-independent basis, Debye):
    X=             -2.7000    Y=              0.1415    Z=             -2.1119  Tot=              3.4308
 Quadrupole moment (field-independent basis, Debye-Ang):
   XX=           -132.6004   YY=           -128.1728   ZZ=           -113.7416
   XY=             -3.8530   XZ=              2.0831   YZ=              2.7769

 Summary of Natural Population Analysis:

                                       Natural Population
                Natural  -----------------------------------------------
    Atom  No    Charge         Core      Valence    Rydberg      Total
 -----------------------------------------------------------------------
      C    1   -0.29977      0.99967     2.29625    0.00385     3.29977
      C    2   -0.01221      0.99960     2.00117    0.01144     3.01221
      O    3   -0.31126      0.99988     3.29961    0.01177     4.31126
      C    4   -0.01653      0.99958     2.00635    0.01060     3.01653
      C    5   -0.09737      0.99963     2.08771    0.01003     3.09737
      N    6   -0.31986      0.99964     2.80781    0.01241     3.81986
      C    7    0.24142      0.99955     1.74552    0.01351     2.75858
      C    8   -0.13178      0.99939     2.12180    0.01060     3.13178
      C    9    0.11460      0.99953     1.87797    0.00790     2.88540
      C   10   -0.19586      0.99948     2.18810    0.00828     3.19586
      C   11    0.21045      0.99957     1.77789    0.01210     2.78955
      N   12   -0.29668      0.99964     2.78530    0.01175     3.79668
      C   13   -0.29879      0.99965     2.29436    0.00478     3.29879
      C   14   -0.29698      0.99965     2.29208    0.00526     3.29698
      C   15    0.43523      0.99965     1.54246    0.02265     2.56477
      O   16   -0.33165      0.99986     3.32386    0.00792     4.33165
      O   17   -0.35226      0.99988     3.34546    0.00692     4.35226
      H   18    0.09369      0.00000     0.40513    0.00118     0.40631
      H   19    0.09649      0.00000     0.40258    0.00093     0.40351
      H   20    0.09672      0.00000     0.40231    0.00097     0.40328
      H   21    0.08589      0.00000     0.41299    0.00112     0.41411
      H   22    0.09332      0.00000     0.40539    0.00129     0.40668
      H   23    0.08997      0.00000     0.40866    0.00137     0.41003
      H   24    0.07745      0.00000     0.42126    0.00129     0.42255
      H   25    0.10580      0.00000     0.39302    0.00117     0.39420
      H   26    0.08917      0.00000     0.40976    0.00107     0.41083
      H   27    0.21506      0.00000     0.28321    0.00174     0.28494
      H   28    0.08865      0.00000     0.41021    0.00114     0.41135
      H   29    0.10253      0.00000     0.39630    0.00117     0.39747
      H   30    0.09020      0.00000     0.40901    0.00079     0.40980
      H   31    0.10138      0.00000     0.39747    0.00114     0.39862
      H   32    0.08783      0.00000     0.41114    0.00103     0.41217
      H   33    0.10740      0.00000     0.39158    0.00102     0.39260
      H   34    0.10729      0.00000     0.39169    0.00102     0.39271
      H   35    0.23047      0.00000     0.26650    0.00303     0.26953
 =======================================================================
   * Total *    0.00000     16.99384    46.81190    0.19425    64.00000

 Normal termination of Gaussian 16 at Fri Dec 11 13:37:47 2020.
