 Gaussian 16, Revision A.03,

 -----------------------------------------------------------
 # opt freq B3LYP/6-31G(d) empiricaldispersion=gd3bj scf=xqc
 -----------------------------------------------------------

 --------------------------------
 CID_132057662_JID_10743_neutraal
 --------------------------------
 Symbolic Z-matrix:
 Charge =  0 Multiplicity = 1

 SCF Done:  E(RB3LYP) =  -1167.61386589     A.U. after   15 cycles
 SCF Done:  E(RB3LYP) =  -1167.61832280     A.U. after   12 cycles
 SCF Done:  E(RB3LYP) =  -1167.61606506     A.U. after   12 cycles
 SCF Done:  E(RB3LYP) =  -1167.61914287     A.U. after   12 cycles
 SCF Done:  E(RB3LYP) =  -1167.61964381     A.U. after   12 cycles
 SCF Done:  E(RB3LYP) =  -1167.62031216     A.U. after   12 cycles
 SCF Done:  E(RB3LYP) =  -1167.62035653     A.U. after   12 cycles
 SCF Done:  E(RB3LYP) =  -1167.62038614     A.U. after   10 cycles
 SCF Done:  E(RB3LYP) =  -1167.62039216     A.U. after   10 cycles
 SCF Done:  E(RB3LYP) =  -1167.62042983     A.U. after   11 cycles
 SCF Done:  E(RB3LYP) =  -1167.62911511     A.U. after   10 cycles
 SCF Done:  E(RB3LYP) =  -1167.62913832     A.U. after   10 cycles
 SCF Done:  E(RB3LYP) =  -1167.62914249     A.U. after    9 cycles
 SCF Done:  E(RB3LYP) =  -1167.62914295     A.U. after    8 cycles
 SCF Done:  E(RB3LYP) =  -1167.62914307     A.U. after    7 cycles
 Optimization completed.
    -- Stationary point found.
 Normal termination of Gaussian 16 at Sun Dec 13 13:44:14 2020.

 --------------------------------------------------------------------
 #N Geom=AllCheck Guess=TCheck SCRF=Check GenChk RB3LYP/6-31G(d) Freq
 --------------------------------------------------------------------

 Structure from the checkpoint file:  "JID_10743.chk"
 --------------------------------
 CID_132057662_JID_10743_neutraal
 --------------------------------
 Charge =  0 Multiplicity = 1

 SCF Done:  E(RB3LYP) =  -1167.62914307     A.U. after    1 cycles

  Exact polarizability: 224.180  21.022 233.343  17.901 -14.231 144.656
 Approx polarizability: 346.974  25.678 360.573  50.527 -39.275 244.320

                      1                      2                      3
                      A                      A                      A
 Frequencies --     35.2057                59.8595                66.3261
 Red. masses --      3.6914                 3.2622                 5.2487
 Frc consts  --      0.0027                 0.0069                 0.0136
 IR Inten    --      0.3224                 1.1717                 0.8520

                      4                      5                      6
                      A                      A                      A
 Frequencies --     84.1828               112.1510               152.6417
 Red. masses --      4.0669                 3.4906                 4.2048
 Frc consts  --      0.0170                 0.0259                 0.0577
 IR Inten    --      0.8759                 0.6932                 0.5790

                      7                      8                      9
                      A                      A                      A
 Frequencies --    161.9570               186.6428               242.1396
 Red. masses --      4.1454                 5.1604                 1.2062
 Frc consts  --      0.0641                 0.1059                 0.0417
 IR Inten    --      0.0807                 0.3001                 1.7768

                     10                     11                     12
                      A                      A                      A
 Frequencies --    249.3199               257.1751               269.6341
 Red. masses --      1.7104                 1.8873                 1.5802
 Frc consts  --      0.0626                 0.0735                 0.0677
 IR Inten    --      0.8994                 1.1264                11.1227

                     13                     14                     15
                      A                      A                      A
 Frequencies --    288.3431               299.0876               316.3246
 Red. masses --      1.7501                 2.5035                 2.7330
 Frc consts  --      0.0857                 0.1319                 0.1611
 IR Inten    --      8.3098                 1.4347                 1.0863

                     16                     17                     18
                      A                      A                      A
 Frequencies --    330.4475               346.9460               359.4770
 Red. masses --      1.3394                 3.6867                 2.7124
 Frc consts  --      0.0862                 0.2615                 0.2065
 IR Inten    --      9.8613                 5.4568                 3.8693

                     19                     20                     21
                      A                      A                      A
 Frequencies --    363.0813               385.0111               398.2067
 Red. masses --      3.2911                 4.4508                 3.1467
 Frc consts  --      0.2556                 0.3887                 0.2940
 IR Inten    --      2.6576                 0.5334                 0.9345

                     22                     23                     24
                      A                      A                      A
 Frequencies --    424.2692               449.2031               461.9079
 Red. masses --      4.0146                 6.9392                 3.5788
 Frc consts  --      0.4258                 0.8250                 0.4499
 IR Inten    --      1.8206                 0.4956                 2.8020

                     25                     26                     27
                      A                      A                      A
 Frequencies --    463.8522               478.1983               518.4241
 Red. masses --      2.9735                 3.4652                 3.5142
 Frc consts  --      0.3769                 0.4669                 0.5565
 IR Inten    --      2.9778                16.1284                 1.6715

                     28                     29                     30
                      A                      A                      A
 Frequencies --    543.2590               545.1373               585.2401
 Red. masses --      3.5234                 4.1383                 4.6274
 Frc consts  --      0.6127                 0.7246                 0.9338
 IR Inten    --      0.7419                 0.7312                 0.1567

                     31                     32                     33
                      A                      A                      A
 Frequencies --    620.1849               634.2700               685.2349
 Red. masses --      3.3141                 6.3666                 4.6579
 Frc consts  --      0.7510                 1.5090                 1.2886
 IR Inten    --      5.0487                 1.9193                 6.8683

                     34                     35                     36
                      A                      A                      A
 Frequencies --    703.1911               715.2521               746.8961
 Red. masses --      6.4651                 4.4198                 3.4353
 Frc consts  --      1.8835                 1.3322                 1.1291
 IR Inten    --      7.7909                 9.2287                 1.5309

                     37                     38                     39
                      A                      A                      A
 Frequencies --    752.7791               770.5332               774.5400
 Red. masses --      2.7087                 1.4058                 1.9125
 Frc consts  --      0.9044                 0.4918                 0.6760
 IR Inten    --     21.2910                10.8836                45.6289

                     40                     41                     42
                      A                      A                      A
 Frequencies --    786.0720               874.6106               877.3720
 Red. masses --      2.3601                 1.4121                 1.3728
 Frc consts  --      0.8592                 0.6364                 0.6226
 IR Inten    --      6.4601                 0.5314                21.3006

                     43                     44                     45
                      A                      A                      A
 Frequencies --    879.4543               904.0155               926.6399
 Red. masses --      1.5352                 2.3581                 4.2385
 Frc consts  --      0.6996                 1.1355                 2.1443
 IR Inten    --    227.6254                13.6503                 2.8620

                     46                     47                     48
                      A                      A                      A
 Frequencies --    940.9679               943.6466               948.9890
 Red. masses --      1.7209                 1.4887                 1.4087
 Frc consts  --      0.8977                 0.7811                 0.7474
 IR Inten    --      8.4227                 0.4938                 0.4023

                     49                     50                     51
                      A                      A                      A
 Frequencies --    955.4402               979.7999               981.1753
 Red. masses --      1.6197                 1.3225                 1.2713
 Frc consts  --      0.8711                 0.7480                 0.7211
 IR Inten    --      6.9992                 0.8793                 0.4536

                     52                     53                     54
                      A                      A                      A
 Frequencies --    993.4742              1004.3185              1044.9643
 Red. masses --      2.5443                 1.2578                 1.3721
 Frc consts  --      1.4796                 0.7475                 0.8827
 IR Inten    --     11.3940                 1.3066                 3.9744

                     55                     56                     57
                      A                      A                      A
 Frequencies --   1066.0763              1069.2364              1077.4913
 Red. masses --      3.5532                 2.6527                 1.7232
 Frc consts  --      2.3793                 1.7869                 1.1788
 IR Inten    --     17.5855                 4.8216                19.8981

                     58                     59                     60
                      A                      A                      A
 Frequencies --   1087.0384              1100.2309              1151.0748
 Red. masses --      2.1108                 3.7108                 2.0494
 Frc consts  --      1.4695                 2.6466                 1.5998
 IR Inten    --      7.8485                 7.2746                22.3347

                     61                     62                     63
                      A                      A                      A
 Frequencies --   1154.5163              1167.6964              1187.1394
 Red. masses --      1.7673                 1.7009                 2.0833
 Frc consts  --      1.3879                 1.3664                 1.7298
 IR Inten    --     15.5581                13.1698                89.7011

                     64                     65                     66
                      A                      A                      A
 Frequencies --   1193.4868              1194.8176              1211.7163
 Red. masses --      1.1039                 1.1219                 2.4771
 Frc consts  --      0.9264                 0.9437                 2.1429
 IR Inten    --      1.5251                 3.5300                 8.0807

                     67                     68                     69
                      A                      A                      A
 Frequencies --   1251.8750              1262.3572              1276.0980
 Red. masses --      2.9396                 3.2430                 1.7253
 Frc consts  --      2.7143                 3.0449                 1.6553
 IR Inten    --     18.0427                25.8696                 9.2237

                     70                     71                     72
                      A                      A                      A
 Frequencies --   1284.4044              1303.6911              1329.5994
 Red. masses --      1.6711                 1.4962                 5.7861
 Frc consts  --      1.6243                 1.4983                 6.0267
 IR Inten    --      2.6564                 1.7067                28.5450

                     73                     74                     75
                      A                      A                      A
 Frequencies --   1337.1391              1343.1721              1386.1304
 Red. masses --      3.1643                 8.8402                 1.4191
 Frc consts  --      3.3333                 9.3967                 1.6065
 IR Inten    --     26.7799                 0.6552                 5.5199

                     76                     77                     78
                      A                      A                      A
 Frequencies --   1418.5330              1428.1873              1441.3462
 Red. masses --      1.2252                 1.2484                 1.3312
 Frc consts  --      1.4526                 1.5003                 1.6294
 IR Inten    --      5.9767                11.8663                13.6078

                     79                     80                     81
                      A                      A                      A
 Frequencies --   1454.4945              1484.6260              1491.0612
 Red. masses --      1.2513                 2.2127                 2.2384
 Frc consts  --      1.5597                 2.8735                 2.9321
 IR Inten    --     13.3190                 0.7563                14.8651

                     82                     83                     84
                      A                      A                      A
 Frequencies --   1507.4828              1515.8821              1521.2236
 Red. masses --      2.3809                 1.1143                 1.1487
 Frc consts  --      3.1878                 1.5086                 1.5662
 IR Inten    --    130.6002                 4.2347                 3.0887

                     85                     86                     87
                      A                      A                      A
 Frequencies --   1524.6296              1528.8878              1534.0057
 Red. masses --      1.5055                 1.2749                 1.0528
 Frc consts  --      2.0619                 1.7558                 1.4597
 IR Inten    --     13.4969                16.0179                 3.5931

                     88                     89                     90
                      A                      A                      A
 Frequencies --   1540.7905              1544.5654              1620.5278
 Red. masses --      1.0534                 1.0651                 5.5845
 Frc consts  --      1.4734                 1.4972                 8.6407
 IR Inten    --      8.2763                11.3304                 2.6667

                     91                     92                     93
                      A                      A                      A
 Frequencies --   1631.6431              1635.7266              1654.2685
 Red. masses --      6.1925                 5.6260                 5.9229
 Frc consts  --      9.7133                 8.8689                 9.5498
 IR Inten    --      1.2321                 0.6513                10.2508

                     94                     95                     96
                      A                      A                      A
 Frequencies --   1694.7114              3050.5903              3062.7324
 Red. masses --      1.0934                 1.0479                 1.0400
 Frc consts  --      1.8501                 5.7455                 5.7480
 IR Inten    --     17.0869                 9.5319                15.4537

                     97                     98                     99
                      A                      A                      A
 Frequencies --   3066.1259              3078.1522              3121.6283
 Red. masses --      1.0743                 1.0370                 1.0928
 Frc consts  --      5.9505                 5.7893                 6.2740
 IR Inten    --     37.5138                15.0208                25.4838

                    100                    101                    102
                      A                      A                      A
 Frequencies --   3128.1516              3140.6529              3148.2607
 Red. masses --      1.1003                 1.1013                 1.1025
 Frc consts  --      6.3439                 6.4005                 6.4383
 IR Inten    --     25.1631                32.1096                17.3188

                    103                    104                    105
                      A                      A                      A
 Frequencies --   3155.2539              3158.3561              3189.0761
 Red. masses --      1.1023                 1.1012                 1.0855
 Frc consts  --      6.4660                 6.4722                 6.5042
 IR Inten    --     32.2080                16.2167                 0.3476

                    106                    107                    108
                      A                      A                      A
 Frequencies --   3189.6852              3198.8486              3199.4733
 Red. masses --      1.0856                 1.0903                 1.0905
 Frc consts  --      6.5074                 6.5735                 6.5771
 IR Inten    --      0.2471                10.2711                10.3420

                    109                    110                    111
                      A                      A                      A
 Frequencies --   3211.6972              3212.3481              3225.9717
 Red. masses --      1.0954                 1.0957                 1.0936
 Frc consts  --      6.6571                 6.6619                 6.7052
 IR Inten    --     33.7963                25.7648                 8.5630

                    112                    113                    114
                      A                      A                      A
 Frequencies --   3230.8623              3476.3754              3569.5258
 Red. masses --      1.0929                 1.0489                 1.0923
 Frc consts  --      6.7214                 7.4685                 8.1997
 IR Inten    --      9.3539                 1.2792                 0.2982

 - Thermochemistry -
 -------------------
 Temperature   298.150 Kelvin.  Pressure   1.00000 Atm.
 Atom     1 has atomic number  6 and mass  12.00000

 Molecular mass:   284.13472 amu.
 Principal axes and moments of inertia in atomic units:
                           1         2         3
     Eigenvalues --  4835.262065146.249327964.57606
           X            0.99812  -0.06107  -0.00588
           Y            0.06109   0.99813   0.00307
           Z            0.00568  -0.00342   0.99998
 This molecule is an asymmetric top.
 Rotational symmetry number  1.
 Warning -- assumption of classical behavior for rotation
           may cause significant error
 Rotational temperatures (Kelvin)      0.01791     0.01683     0.01087
 Rotational constants (GHZ):           0.37325     0.35069     0.22660
 Zero-point vibrational energy     887023.9 (Joules/Mol)
                                  212.00381 (Kcal/Mol)
 Warning -- explicit consideration of  31 degrees of freedom as
           vibrations may cause significant error
 Vibrational temperatures:     50.65    86.12    95.43   121.12   161.36
          (Kelvin)            219.62   233.02   268.54   348.38   358.72
                              370.02   387.94   414.86   430.32   455.12
                              475.44   499.18   517.21   522.39   553.95
                              572.93   610.43   646.30   664.58   667.38
                              688.02   745.90   781.63   784.33   842.03
                              892.31   912.57   985.90  1011.74  1029.09
                             1074.62  1083.08  1108.63  1114.39  1130.98
                             1258.37  1262.34  1265.34  1300.68  1333.23
                             1353.84  1357.70  1365.38  1374.67  1409.71
                             1411.69  1429.39  1444.99  1503.47  1533.85
                             1538.39  1550.27  1564.01  1582.99  1656.14
                             1661.09  1680.05  1708.03  1717.16  1719.08
                             1743.39  1801.17  1816.25  1836.02  1847.97
                             1875.72  1913.00  1923.84  1932.53  1994.33
                             2040.95  2054.84  2073.78  2092.69  2136.05
                             2145.30  2168.93  2181.02  2188.70  2193.60
                             2199.73  2207.09  2216.85  2222.29  2331.58
                             2347.57  2353.45  2380.12  2438.31  4389.12
                             4406.59  4411.47  4428.77  4491.33  4500.71
                             4518.70  4529.64  4539.71  4544.17  4588.37
                             4589.25  4602.43  4603.33  4620.92  4621.85
                             4641.45  4648.49  5001.73  5135.75

 Zero-point correction=                           0.337850 (Hartree/Particle)
 Thermal correction to Energy=                    0.355968
 Thermal correction to Enthalpy=                  0.356913
 Thermal correction to Gibbs Free Energy=         0.292947
 Sum of electronic and zero-point Energies=          -1167.291293
 Sum of electronic and thermal Energies=             -1167.273175
 Sum of electronic and thermal Enthalpies=           -1167.272230
 Sum of electronic and thermal Free Energies=        -1167.336196

                     E (Thermal)             CV                S
                      KCal/Mol        Cal/Mol-Kelvin    Cal/Mol-Kelvin
 Total                  223.374             73.860            134.627
 Electronic               0.000              0.000              0.000
 Translational            0.889              2.981             42.831
 Rotational               0.889              2.981             33.649
 Vibrational            221.596             67.898             58.148
 Vibration     1          0.594              1.982              5.512
 Vibration     2          0.597              1.973              4.462
 Vibration     3          0.598              1.970              4.260
 Vibration     4          0.601              1.960              3.791
 Vibration     5          0.607              1.939              3.231
 Vibration     6          0.619              1.900              2.639
 Vibration     7          0.622              1.889              2.527
 Vibration     8          0.632              1.858              2.261
 Vibration     9          0.658              1.776              1.787
 Vibration    10          0.662              1.764              1.735
 Vibration    11          0.667              1.751              1.681
 Vibration    12          0.674              1.729              1.599
 Vibration    13          0.685              1.695              1.484
 Vibration    14          0.692              1.675              1.422
 Vibration    15          0.703              1.642              1.329
 Vibration    16          0.713              1.615              1.258
 Vibration    17          0.725              1.581              1.180
 Vibration    18          0.734              1.556              1.124
 Vibration    19          0.737              1.548              1.109
 Vibration    20          0.754              1.502              1.019
 Vibration    21          0.764              1.474              0.969
 Vibration    22          0.786              1.417              0.878
 Vibration    23          0.808              1.363              0.798
 Vibration    24          0.820              1.335              0.761
 Vibration    25          0.821              1.330              0.755
 Vibration    26          0.835              1.298              0.715
 Vibration    27          0.873              1.209              0.614
 Vibration    28          0.898              1.154              0.558
 Vibration    29          0.900              1.150              0.554
 Vibration    30          0.942              1.063              0.476
 Vibration    31          0.980              0.989              0.416

                           ! Non-Optimized Parameters !
 Normal termination of Gaussian 16 at Sun Dec 13 14:09:02 2020.

 ----------------------------------------------------------------------
 # B3LYP/6-311++G(d,p) empiricaldispersion=gd3bj scf=xqc pop=npa geom=c
 heck
 ----------------------------------------------------------------------

 ----------------------------------------
 CID_132057662_JID_10743_Energie_neutraal
 ----------------------------------------
 Structure from the checkpoint file:  "JID_10743.chk"
 Charge =  0 Multiplicity = 1

 SCF Done:  E(RB3LYP) =  -1167.85889588     A.U. after   16 cycles
 Normal termination of Gaussian 16 at Sun Dec 13 14:21:17 2020.

 ----------------------------------------------------------------------
 # B3LYP/6-311++G(d,p) empiricaldispersion=gd3bj scf=xqc pop=npa geom=c
 heck
 ----------------------------------------------------------------------

 --------------------------------------
 CID_132057662_JID_10743_Energie_kation
 --------------------------------------
 Structure from the checkpoint file:  "JID_10743.chk"
 Charge =  1 Multiplicity = 2

 SCF Done:  E(UB3LYP) =  -1167.59873360     A.U. after   26 cycles
 Normal termination of Gaussian 16 at Sun Dec 13 14:49:15 2020.
 Gaussian 16:  ES64L-G16RevA.03 25-Dec-2016

 ----------------------------------------------------------------------
 # B3LYP/6-311++G(d,p) empiricaldispersion=gd3bj scf=xqc pop=npa geom=c
 heck
 ----------------------------------------------------------------------

 -------------------------------------
 CID_132057662_JID_10743_Energie_anion
 -------------------------------------
 Structure from the checkpoint file:  "JID_10743.chk"
 Charge = -1 Multiplicity = 2

                         Standard orientation:
 ---------------------------------------------------------------------
 Center     Atomic      Atomic             Coordinates (Angstroms)
 Number     Number       Type             X           Y           Z
 ---------------------------------------------------------------------
      1          6           0       -2.336746    2.039392   -1.422936
      2          6           0       -2.580323    1.288944   -0.113664
      3          6           0       -1.260782    0.985508    0.685122
      4          6           0       -0.640468    2.277538    1.231537
      5          6           0       -1.588416    0.079455    1.888817
      6          7           0       -0.280703    0.278977   -0.225891
      7          6           0       -0.427854   -1.129068   -0.394443
      8          6           0       -1.439309   -1.653656   -1.208402
      9          6           0       -1.622332   -3.031210   -1.325213
     10          6           0       -0.761595   -3.910522   -0.667562
     11          6           0        0.291935   -3.407046    0.093773
     12          6           0        0.452149   -2.027311    0.236199
     13         16           0        1.779435   -1.383919    1.237619
     14          6           0        2.122597    0.080107    0.279768
     15          6           0        3.433539    0.547801    0.161813
     16          6           0        3.695564    1.706077   -0.567600
     17          6           0        2.651364    2.367448   -1.216187
     18          6           0        1.349805    1.877966   -1.124748
     19          6           0        1.057615    0.751985   -0.345071
     20          7           0       -3.620659    2.003901    0.635542
     21          1           0       -1.935487    3.043875   -1.237186
     22          1           0       -3.283650    2.157003   -1.957015
     23          1           0       -1.627408    1.504413   -2.057986
     24          1           0       -3.017087    0.314323   -0.359504
     25          1           0       -1.348706    2.745792    1.920788
     26          1           0        0.275552    2.065087    1.788717
     27          1           0       -0.396977    3.001698    0.451931
     28          1           0       -2.073242   -0.848942    1.573596
     29          1           0       -0.674366   -0.178656    2.429808
     30          1           0       -2.258805    0.592616    2.585698
     31          1           0       -2.080343   -0.970293   -1.752621
     32          1           0       -2.425673   -3.415101   -1.947054
     33          1           0       -0.892076   -4.984092   -0.765916
     34          1           0        0.992824   -4.079227    0.580013
     35          1           0        4.240762    0.002101    0.641478
     36          1           0        4.713768    2.075047   -0.647644
     37          1           0        2.851669    3.254733   -1.809650
     38          1           0        0.538265    2.369995   -1.648926
     39          1           0       -3.845675    1.518110    1.500408
     40          1           0       -3.295233    2.933636    0.894374
 ---------------------------------------------------------------------

 SCF Done:  E(UB3LYP) =  -1167.84553626     A.U. after   33 cycles
 SCF Done:  E(UB3LYP) =  -1167.84610188     a.u. after   12 cycles

 The electronic state is 2-A.
 Alpha  occ. eigenvalues --  -88.76889 -14.22766 -14.19972 -10.12735 -10.12253
 Alpha  occ. eigenvalues --  -10.12192 -10.11635 -10.11577 -10.10422 -10.08922
 Alpha  occ. eigenvalues --  -10.08845 -10.08688 -10.08541 -10.08507 -10.08327
 Alpha  occ. eigenvalues --  -10.08210 -10.08006 -10.06839 -10.06645 -10.06003
 Alpha  occ. eigenvalues --   -7.85524  -5.81895  -5.81540  -5.80929  -0.86249
 Alpha  occ. eigenvalues --   -0.79876  -0.77167  -0.76437  -0.71358  -0.69213
 Alpha  occ. eigenvalues --   -0.66865  -0.66050  -0.63717  -0.63507  -0.59998
 Alpha  occ. eigenvalues --   -0.59260  -0.54137  -0.52940  -0.51678  -0.51128
 Alpha  occ. eigenvalues --   -0.48416  -0.45774  -0.44512  -0.40952  -0.40173
 Alpha  occ. eigenvalues --   -0.39584  -0.38776  -0.38315  -0.36963  -0.36808
 Alpha  occ. eigenvalues --   -0.35065  -0.34876  -0.33682  -0.33112  -0.32251
 Alpha  occ. eigenvalues --   -0.30913  -0.30333  -0.29880  -0.29607  -0.29193
 Alpha  occ. eigenvalues --   -0.27818  -0.27622  -0.27314  -0.27208  -0.26283
 Alpha  occ. eigenvalues --   -0.25605  -0.24869  -0.24260  -0.23348  -0.20798
 Alpha  occ. eigenvalues --   -0.19758  -0.17025  -0.16090  -0.15293  -0.13471
 Alpha  occ. eigenvalues --   -0.11012   0.04146
 Alpha virt. eigenvalues --    0.05652   0.05876   0.06312   0.06974   0.07043
 Alpha virt. eigenvalues --    0.07484   0.07654   0.07722   0.08295   0.08669
 Alpha virt. eigenvalues --    0.09144   0.09644   0.10227   0.10482   0.10845

  Beta  occ. eigenvalues --  -88.76886 -14.22762 -14.19942 -10.12729 -10.12249
  Beta  occ. eigenvalues --  -10.12189 -10.11626 -10.11574 -10.10418 -10.08874
  Beta  occ. eigenvalues --  -10.08808 -10.08676 -10.08525 -10.08494 -10.08312
  Beta  occ. eigenvalues --  -10.08160 -10.07961 -10.06822 -10.06634 -10.05978
  Beta  occ. eigenvalues --   -7.85521  -5.81894  -5.81532  -5.80927  -0.86227
  Beta  occ. eigenvalues --   -0.79832  -0.77110  -0.76393  -0.71314  -0.69180
  Beta  occ. eigenvalues --   -0.66795  -0.65993  -0.63659  -0.63450  -0.59966
  Beta  occ. eigenvalues --   -0.59216  -0.54080  -0.52910  -0.51607  -0.51028
  Beta  occ. eigenvalues --   -0.48376  -0.45730  -0.44474  -0.40914  -0.40131
  Beta  occ. eigenvalues --   -0.39547  -0.38727  -0.38272  -0.36928  -0.36772
  Beta  occ. eigenvalues --   -0.35025  -0.34831  -0.33647  -0.33075  -0.32228
  Beta  occ. eigenvalues --   -0.30847  -0.30298  -0.29835  -0.29571  -0.29136
  Beta  occ. eigenvalues --   -0.27725  -0.27586  -0.27283  -0.27172  -0.26241
  Beta  occ. eigenvalues --   -0.25568  -0.24836  -0.24215  -0.23326  -0.20721
  Beta  occ. eigenvalues --   -0.19663  -0.16835  -0.15973  -0.15207  -0.13376
  Beta  occ. eigenvalues --   -0.10949
  Beta virt. eigenvalues --    0.06085   0.06366   0.06454   0.06786   0.07091
  Beta virt. eigenvalues --    0.07401   0.07598   0.07964   0.08144   0.08607
  Beta virt. eigenvalues --    0.09012   0.09315   0.09915   0.10478   0.10747

 Mulliken charges and spin densities:
               1          2
     1  C    0.189553  -0.771415
     2  C   -0.054562  -0.282762
     3  C   -0.511080   0.507042
     4  C    0.015218  -0.606182
     5  C   -0.215968  -0.365681
     6  N    0.806262  -0.092819
     7  C   -1.029797   0.372016
     8  C   -0.297457   0.538653
     9  C    0.604022  -0.939836
    10  C    0.521165  -0.850467
    11  C    0.294661   0.141829
    12  C   -0.071084   0.070479
    13  S   -0.073471  -0.312992
    14  C   -0.166767   0.147802
    15  C    0.079892   0.177553
    16  C    0.747364  -1.110135
    17  C    0.700565  -1.092980
    18  C   -0.195549   0.483632
    19  C   -0.918881   0.347834
    20  N   -0.223532   0.015015
    21  H   -0.062253   0.229328
    22  H   -0.052817   0.231723
    23  H   -0.305298   0.451528
    24  H    0.095812   0.101157
    25  H   -0.113584   0.283802
    26  H    0.116791   0.042863
    27  H   -0.008330   0.176862
    28  H    0.178798  -0.016767
    29  H    0.055118   0.078554
    30  H    0.019939   0.118636
    31  H    0.188248  -0.041433
    32  H   -0.390986   0.572813
    33  H   -0.237576   0.395571
    34  H   -0.002649   0.168878
    35  H   -0.040977   0.207565
    36  H   -0.219568   0.377429
    37  H   -0.591310   0.774048
    38  H    0.175024  -0.014713
    39  H   -0.039430   0.276207
    40  H    0.034496   0.209362
 Sum of Mulliken charges =  -1.00000   1.00000

 Dipole moment (field-independent basis, Debye):
    X=              1.3739    Y=             -2.4860    Z=              2.8466  Tot=              4.0213
 Quadrupole moment (field-independent basis, Debye-Ang):
   XX=           -196.9342   YY=           -197.7374   ZZ=           -163.6983
   XY=             -4.5104   XZ=              3.4867   YZ=             -1.0427

 Summary of Natural Population Analysis:

                                       Natural Population
                Natural  -----------------------------------------------
    Atom  No    Charge         Core      Valence    Rydberg      Total
 -----------------------------------------------------------------------
      C    1   -0.29097      0.99963     2.28499    0.00634     3.29097
      C    2   -0.02085      0.99954     2.00780    0.01351     3.02085
      C    3    0.07982      0.99952     1.90541    0.01525     2.92018
      C    4   -0.29998      0.99961     2.29225    0.00813     3.29998
      C    5   -0.30006      0.99961     2.29295    0.00750     3.30006
      N    6   -0.29095      0.99961     2.77206    0.01928     3.79095
      C    7    0.08343      0.99939     1.90456    0.01263     2.91657
      C    8   -0.09512      0.99950     2.08632    0.00930     3.09512
      C    9   -0.09973      0.99956     2.09043    0.00973     3.09973
      C   10   -0.10318      0.99956     2.09369    0.00993     3.10318
      C   11   -0.09924      0.99950     2.08890    0.01083     3.09924
      C   12   -0.09046      0.99934     2.07901    0.01211     3.09046
      S   13    0.14776      4.99948     2.83478    0.01799     7.85224
      C   14   -0.09246      0.99934     2.08100    0.01212     3.09246
      C   15   -0.10178      0.99950     2.09150    0.01078     3.10178
      C   16   -0.10196      0.99956     2.09235    0.01005     3.10196
      C   17   -0.09991      0.99956     2.09042    0.00993     3.09991
      C   18   -0.09339      0.99950     2.08447    0.00943     3.09339
      C   19    0.08310      0.99938     1.90431    0.01320     2.91690
      N   20   -0.42051      0.99977     2.91065    0.01009     3.92051
      H   21    0.09568      0.00000     0.40315    0.00117     0.40432
      H   22    0.10445      0.00000     0.39464    0.00091     0.39555
      H   23    0.10645      0.00000     0.39213    0.00142     0.39355
      H   24    0.09263      0.00000     0.40519    0.00218     0.40737
      H   25    0.10372      0.00000     0.39522    0.00106     0.39628
      H   26    0.10804      0.00000     0.39092    0.00104     0.39196
      H   27    0.10662      0.00000     0.39212    0.00127     0.39338
      H   28    0.10513      0.00000     0.39384    0.00103     0.39487
      H   29    0.10811      0.00000     0.39073    0.00115     0.39189
      H   30    0.09899      0.00000     0.40003    0.00098     0.40101
      H   31    0.10623      0.00000     0.39212    0.00165     0.39377
      H   32    0.10218      0.00000     0.39677    0.00106     0.39782
      H   33    0.10150      0.00000     0.39754    0.00096     0.39850
      H   34    0.10315      0.00000     0.39583    0.00101     0.39685
      H   35    0.10318      0.00000     0.39579    0.00104     0.39682
      H   36    0.10168      0.00000     0.39733    0.00099     0.39832
      H   37    0.10314      0.00000     0.39551    0.00135     0.39686
      H   38    0.10740      0.00000     0.39077    0.00183     0.39260
      H   39    0.17511      0.00000     0.32310    0.00179     0.32489
      H   40    0.17307      0.00000     0.32497    0.00196     0.32693
 =======================================================================
   * Total *    0.00000     23.99046    51.75556    0.25398    76.00000

 Normal termination of Gaussian 16 at Sun Dec 13 21:35:17 2020.
