 Gaussian 16, Revision A.03,

 -----------------------------------------------------------
 # opt freq B3LYP/6-31G(d) empiricaldispersion=gd3bj scf=xqc
 -----------------------------------------------------------

 ----------------------------
 CID_57125000_JID_14_neutraal
 ----------------------------
 Symbolic Z-matrix:
 Charge =  0 Multiplicity = 1

 SCF Done:  E(RB3LYP) =  -422.799291252     A.U. after   13 cycles
 SCF Done:  E(RB3LYP) =  -422.802192162     A.U. after   11 cycles
 SCF Done:  E(RB3LYP) =  -422.802585454     A.U. after   11 cycles
 SCF Done:  E(RB3LYP) =  -422.802693929     A.U. after   11 cycles
 SCF Done:  E(RB3LYP) =  -422.802728147     A.U. after    9 cycles
 SCF Done:  E(RB3LYP) =  -422.802740283     A.U. after    9 cycles
 SCF Done:  E(RB3LYP) =  -422.802747503     A.U. after    9 cycles
 SCF Done:  E(RB3LYP) =  -422.802753689     A.U. after    9 cycles
 SCF Done:  E(RB3LYP) =  -422.802760512     A.U. after   10 cycles
 SCF Done:  E(RB3LYP) =  -422.802764720     A.U. after   10 cycles
 SCF Done:  E(RB3LYP) =  -422.802765705     A.U. after    9 cycles
 SCF Done:  E(RB3LYP) =  -422.802765728     A.U. after    7 cycles
 Optimization completed.
    -- Stationary point found.

 1\1\GINC-NODE361\FOpt\RB3LYP\6-31G(d)\C8H14N2\VSC10255\08-Dec-2020\0\\
 # opt freq B3LYP/6-31G(d) empiricaldispersion=gd3bj scf=xqc\\CID_57125
 000_JID_14_neutraal\\0,1\C,0.8339846335,0.0381715659,0.0139204018\C,0.
 2570199977,0.0546768702,1.4296804367\C,0.7111158532,1.26241221,2.26374
 56782\C,0.2869409431,2.5699159456,1.642687441\C,-0.9437565965,3.006708
 6684,1.183490605\C,-0.800145243,4.358862246,0.7579203342\C,0.513889835
 4,4.7193746649,0.9667989946\N,1.1585030122,3.6291224429,1.5045905498\N
 ,0.2564379586,1.0747974265,3.653284771\C,0.696907338,2.1274302401,4.56

 Normal termination of Gaussian 16 at Tue Dec  8 10:16:47 2020.

 --------------------------------------------------------------------
 #N Geom=AllCheck Guess=TCheck SCRF=Check GenChk RB3LYP/6-31G(d) Freq
 --------------------------------------------------------------------

 Structure from the checkpoint file:  "JID_14.chk"
 ----------------------------
 CID_57125000_JID_14_neutraal
 ----------------------------
 Charge =  0 Multiplicity = 1

 SCF Done:  E(RB3LYP) =  -422.802765728     A.U. after    1 cycles

  Exact polarizability: 109.117   1.797  80.479   0.915  -6.597  87.444
 Approx polarizability: 153.427   4.504 102.158   1.897 -15.094 146.239

                      1                      2                      3
                      A                      A                      A
 Frequencies --     29.8211                79.2948                92.8546
 Red. masses --      3.3720                 3.0257                 2.3118
 Frc consts  --      0.0018                 0.0112                 0.0117
 IR Inten    --      2.0406                 0.8560                 0.5073

                      4                      5                      6
                      A                      A                      A
 Frequencies --    143.5636               178.5303               190.2069
 Red. masses --      1.7348                 2.2995                 2.0597
 Frc consts  --      0.0211                 0.0432                 0.0439
 IR Inten    --      1.6704                 0.2888                 1.7308

                      7                      8                      9
                      A                      A                      A
 Frequencies --    254.8005               262.1093               314.4354
 Red. masses --      1.4581                 1.3309                 3.5286
 Frc consts  --      0.0558                 0.0539                 0.2055
 IR Inten    --      0.4167                 1.8470                 6.1379

                     10                     11                     12
                      A                      A                      A
 Frequencies --    389.0560               456.9704               474.9638
 Red. masses --      3.2398                 1.8769                 2.9575
 Frc consts  --      0.2889                 0.2309                 0.3931
 IR Inten    --      2.0935                39.3687                 7.5247

                     13                     14                     15
                      A                      A                      A
 Frequencies --    507.8742               630.3239               651.1732
 Red. masses --      2.1461                 3.1476                 2.3634
 Frc consts  --      0.3261                 0.7368                 0.5905
 IR Inten    --     11.3420                 0.2138                 7.4389

                     16                     17                     18
                      A                      A                      A
 Frequencies --    690.8685               719.0150               789.8209
 Red. masses --      1.3070                 2.4152                 1.4086
 Frc consts  --      0.3675                 0.7357                 0.5177
 IR Inten    --     22.2297                45.1087                48.0064

                     19                     20                     21
                      A                      A                      A
 Frequencies --    796.0807               847.0332               857.7828
 Red. masses --      1.2423                 1.5685                 1.2555
 Frc consts  --      0.4639                 0.6630                 0.5443
 IR Inten    --     54.5859                72.3695                 0.4082

                     22                     23                     24
                      A                      A                      A
 Frequencies --    902.6667               926.3669               981.6182
 Red. masses --      4.2450                 1.8636                 2.3388
 Frc consts  --      2.0379                 0.9422                 1.3278
 IR Inten    --      3.3568                 1.4399                 1.2767

                     25                     26                     27
                      A                      A                      A
 Frequencies --    991.3698              1058.3980              1060.2757
 Red. masses --      2.1398                 1.7344                 1.3831
 Frc consts  --      1.2391                 1.1447                 0.9161
 IR Inten    --      5.8014                 3.6728                15.4101

                     28                     29                     30
                      A                      A                      A
 Frequencies --   1101.1944              1111.3390              1132.8054
 Red. masses --      1.7309                 1.8585                 1.9182
 Frc consts  --      1.2367                 1.3524                 1.4503
 IR Inten    --      9.7632                 5.0640                23.1466

                     31                     32                     33
                      A                      A                      A
 Frequencies --   1145.3130              1148.7137              1171.9821
 Red. masses --      1.4355                 3.3215                 1.4444
 Frc consts  --      1.1094                 2.5823                 1.1689
 IR Inten    --      6.1900                37.2237                13.5900

                     34                     35                     36
                      A                      A                      A
 Frequencies --   1214.1443              1256.3235              1282.5315
 Red. masses --      2.0232                 2.1192                 1.7386
 Frc consts  --      1.7572                 1.9707                 1.6850
 IR Inten    --      3.4940                 5.7159                 4.7402

                     37                     38                     39
                      A                      A                      A
 Frequencies --   1307.0112              1337.4489              1386.8188
 Red. masses --      1.3247                 1.3138                 1.4517
 Frc consts  --      1.3333                 1.3846                 1.6450
 IR Inten    --      0.5313                 2.4032                29.9142

                     40                     41                     42
                      A                      A                      A
 Frequencies --   1395.3911              1438.9987              1457.5877
 Red. masses --      1.5014                 1.2583                 3.0127
 Frc consts  --      1.7224                 1.5352                 3.7712
 IR Inten    --      1.1732                 2.8548                 8.8420

                     43                     44                     45
                      A                      A                      A
 Frequencies --   1477.4501              1483.6042              1501.9836
 Red. masses --      1.2707                 2.6479                 3.9345
 Frc consts  --      1.6343                 3.4339                 5.2297
 IR Inten    --      1.2707                 2.0865                 6.2133

                     46                     47                     48
                      A                      A                      A
 Frequencies --   1509.2651              1519.0503              1521.1049
 Red. masses --      1.2126                 1.0512                 1.0700
 Frc consts  --      1.6274                 1.4291                 1.4586
 IR Inten    --     17.0506                 4.6494                 1.4781

                     49                     50                     51
                      A                      A                      A
 Frequencies --   1528.9174              1541.1153              1550.0289
 Red. masses --      1.0454                 1.0640                 1.0458
 Frc consts  --      1.4398                 1.4889                 1.4804
 IR Inten    --      3.3309                 3.8626                 9.6920

                     52                     53                     54
                      A                      A                      A
 Frequencies --   1618.9137              2988.2234              3000.4721
 Red. masses --      3.5486                 1.0530                 1.0814
 Frc consts  --      5.4797                 5.5397                 5.7360
 IR Inten    --      2.3181                58.6272                23.3219

                     55                     56                     57
                      A                      A                      A
 Frequencies --   3035.4252              3047.2002              3067.9075
 Red. masses --      1.0670                 1.0380                 1.0845
 Frc consts  --      5.7923                 5.6787                 6.0139
 IR Inten    --     26.5408                36.8666                47.1321

                     58                     59                     60
                      A                      A                      A
 Frequencies --   3090.1821              3110.6524              3116.4023
 Red. masses --      1.0952                 1.1009                 1.1001
 Frc consts  --      6.1618                 6.2764                 6.2950
 IR Inten    --     18.2991                41.2088                36.8103

                     61                     62                     63
                      A                      A                      A
 Frequencies --   3130.2655              3245.3579              3259.8581
 Red. masses --      1.1019                 1.0908                 1.0948
 Frc consts  --      6.3616                 6.7689                 6.8545
 IR Inten    --     41.0691                 7.0727                 6.5461

                     64                     65                     66
                      A                      A                      A
 Frequencies --   3282.2111              3473.7564              3658.8934
 Red. masses --      1.1027                 1.0735                 1.0800
 Frc consts  --      6.9994                 7.6321                 8.5191
 IR Inten    --      5.0493                 0.7328                38.5354

 - Thermochemistry -
 -------------------
 Temperature   298.150 Kelvin.  Pressure   1.00000 Atm.
 Atom     1 has atomic number  6 and mass  12.00000

 Molecular mass:   138.11570 amu.
 Principal axes and moments of inertia in atomic units:
                           1         2         3
     Eigenvalues --  1117.334921611.278662252.47192
           X            0.99927  -0.03809  -0.00124
           Y            0.03809   0.99927  -0.00376
           Z            0.00138   0.00371   0.99999
 This molecule is an asymmetric top.
 Rotational symmetry number  1.
 Warning -- assumption of classical behavior for rotation
           may cause significant error
 Rotational temperatures (Kelvin)      0.07752     0.05375     0.03845
 Rotational constants (GHZ):           1.61522     1.12007     0.80123
 Zero-point vibrational energy     561785.0 (Joules/Mol)
                                  134.26984 (Kcal/Mol)
 Warning -- explicit consideration of  13 degrees of freedom as
           vibrations may cause significant error
 Vibrational temperatures:     42.91   114.09   133.60   206.56   256.87
          (Kelvin)            273.67   366.60   377.12   452.40   559.76
                              657.48   683.37   730.72   906.90   936.89
                              994.01  1034.50  1136.38  1145.38  1218.69
                             1234.16  1298.74  1332.84  1412.33  1426.36
                             1522.80  1525.50  1584.37  1598.97  1629.85
                             1647.85  1652.74  1686.22  1746.88  1807.57
                             1845.28  1880.50  1924.29  1995.32  2007.66
                             2070.40  2097.14  2125.72  2134.58  2161.02
                             2171.50  2185.57  2188.53  2199.77  2217.32
                             2230.15  2329.26  4299.39  4317.01  4367.30
                             4384.24  4414.03  4446.08  4475.53  4483.81
                             4503.75  4669.35  4690.21  4722.37  4997.96
                             5264.33

 Zero-point correction=                           0.213973 (Hartree/Particle)
 Thermal correction to Energy=                    0.224717
 Thermal correction to Enthalpy=                  0.225661
 Thermal correction to Gibbs Free Energy=         0.177028
 Sum of electronic and zero-point Energies=           -422.588793
 Sum of electronic and thermal Energies=              -422.578049
 Sum of electronic and thermal Enthalpies=            -422.577105
 Sum of electronic and thermal Free Energies=         -422.625738

                     E (Thermal)             CV                S
                      KCal/Mol        Cal/Mol-Kelvin    Cal/Mol-Kelvin
 Total                  141.012             39.789            102.358
 Electronic               0.000              0.000              0.000
 Translational            0.889              2.981             40.681
 Rotational               0.889              2.981             29.785
 Vibrational            139.235             33.828             31.893
 Vibration     1          0.594              1.984              5.841
 Vibration     2          0.600              1.963              3.908
 Vibration     3          0.602              1.954              3.599
 Vibration     4          0.616              1.910              2.756
 Vibration     5          0.629              1.869              2.344
 Vibration     6          0.634              1.853              2.226
 Vibration     7          0.665              1.755              1.697
 Vibration     8          0.669              1.742              1.648
 Vibration     9          0.702              1.646              1.339
 Vibration    10          0.757              1.494              1.004
 Vibration    11          0.815              1.345              0.775
 Vibration    12          0.832              1.306              0.724
 Vibration    13          0.863              1.233              0.639

                           ! Non-Optimized Parameters !

 1\1\GINC-NODE361\Freq\RB3LYP\6-31G(d)\C8H14N2\VSC10255\08-Dec-2020\0\\
 #N Geom=AllCheck Guess=TCheck SCRF=Check GenChk RB3LYP/6-31G(d) Freq\\
 CID_57125000_JID_14_neutraal\\0,1\C,0.8339846335,0.0381715659,0.013920
 4018\C,0.2570199977,0.0546768702,1.4296804367\C,0.7111158532,1.2624122
 1,2.2637456782\C,0.2869409431,2.5699159456,1.642687441\C,-0.9437565965
 ,3.0067086684,1.183490605\C,-0.800145243,4.358862246,0.7579203342\C,0.
 5138898354,4.7193746649,0.9667989946\N,1.1585030122,3.6291224429,1.504
 5905498\N,0.2564379586,1.0747974265,3.653284771\C,0.696907338,2.127430

 Normal termination of Gaussian 16 at Tue Dec  8 10:21:07 2020.

 ----------------------------------------------------------------------
 # B3LYP/6-311++G(d,p) empiricaldispersion=gd3bj scf=xqc pop=npa geom=c
 heck
 ----------------------------------------------------------------------

 ------------------------------------
 CID_57125000_JID_14_Energie_neutraal
 ------------------------------------
 Structure from the checkpoint file:  "JID_14.chk"
 Charge =  0 Multiplicity = 1

 SCF Done:  E(RB3LYP) =  -422.927447621     A.U. after   14 cycles
 Normal termination of Gaussian 16 at Tue Dec  8 10:22:42 2020.

 ----------------------------------------------------------------------
 # B3LYP/6-311++G(d,p) empiricaldispersion=gd3bj scf=xqc pop=npa geom=c
 heck
 ----------------------------------------------------------------------

 ----------------------------------
 CID_57125000_JID_14_Energie_kation
 ----------------------------------
 Structure from the checkpoint file:  "JID_14.chk"
 Charge =  1 Multiplicity = 2

 SCF Done:  E(UB3LYP) =  -422.648444655     A.U. after   21 cycles
 Normal termination of Gaussian 16 at Tue Dec  8 10:25:44 2020.
 Gaussian 16:  ES64L-G16RevA.03 25-Dec-2016

 ---------------------------------
 CID_57125000_JID_14_Energie_anion
 ---------------------------------
 Structure from the checkpoint file:  "JID_14.chk"
 Charge = -1 Multiplicity = 2

                         Standard orientation:
 ---------------------------------------------------------------------
 Center     Atomic      Atomic             Coordinates (Angstroms)
 Number     Number       Type             X           Y           Z
 ---------------------------------------------------------------------
      1          6           0        1.573184   -2.364411   -0.438359
      2          6           0        1.896816   -1.050164    0.272664
      3          6           0        1.063822    0.139929   -0.227627
      4          6           0       -0.414082   -0.076323   -0.017296
      5          6           0       -1.131648   -0.455264    1.104207
      6          6           0       -2.516067   -0.436913    0.767900
      7          6           0       -2.614832   -0.046645   -0.550516
      8          7           0       -1.336678    0.170654   -1.011494
      9          7           0        1.589466    1.374394    0.382736
     10          6           0        0.923777    2.588632   -0.079031
     11          1           0        0.525565   -2.644187   -0.288816
     12          1           0        2.201198   -3.178900   -0.061606
     13          1           0        1.748893   -2.281409   -1.518234
     14          1           0        1.731725   -1.166267    1.353266
     15          1           0        2.953019   -0.789316    0.143912
     16          1           0        1.238033    0.240657   -1.310670
     17          1           0       -0.705309   -0.723697    2.061802
     18          1           0       -3.343633   -0.687743    1.417458
     19          1           0       -3.472833    0.089139   -1.192383
     20          1           0       -1.096350    0.467523   -1.945030
     21          1           0        1.462474    1.298194    1.391803
     22          1           0       -0.167965    2.601808    0.077115
     23          1           0        1.357933    3.452754    0.434028
     24          1           0        1.111919    2.713061   -1.152997
 ---------------------------------------------------------------------

 SCF Done:  E(UB3LYP) =  -422.912142538     A.U. after   33 cycles
 SCF Done:  E(UB3LYP) =  -422.912142538     a.u. after    1 cycles

 The electronic state is 2-A.
 Alpha  occ. eigenvalues --  -14.24243 -14.19422 -10.09959 -10.08292 -10.07901
 Alpha  occ. eigenvalues --  -10.07707 -10.06495 -10.05500 -10.04804 -10.04590
 Alpha  occ. eigenvalues --   -0.86601  -0.80158  -0.68165  -0.66296  -0.62160
 Alpha  occ. eigenvalues --   -0.58036  -0.52879  -0.49756  -0.47844  -0.45564
 Alpha  occ. eigenvalues --   -0.42130  -0.36826  -0.35687  -0.34251  -0.32465
 Alpha  occ. eigenvalues --   -0.31953  -0.30331  -0.30081  -0.28799  -0.28092
 Alpha  occ. eigenvalues --   -0.26979  -0.26201  -0.24647  -0.23464  -0.22972
 Alpha  occ. eigenvalues --   -0.14083  -0.13221  -0.10015   0.04817
 Alpha virt. eigenvalues --    0.07155   0.07682   0.07843   0.09485   0.09574
 Alpha virt. eigenvalues --    0.10150   0.10743   0.12011   0.12231   0.12831
 Alpha virt. eigenvalues --    0.13238   0.13380   0.13580   0.14491   0.15771

  Beta  occ. eigenvalues --  -14.24196 -14.19416 -10.09941 -10.08295 -10.07880
  Beta  occ. eigenvalues --  -10.07677 -10.06487 -10.05477 -10.04800 -10.04576
  Beta  occ. eigenvalues --   -0.86546  -0.80137  -0.68138  -0.66237  -0.62127
  Beta  occ. eigenvalues --   -0.57987  -0.52819  -0.49707  -0.47750  -0.45516
  Beta  occ. eigenvalues --   -0.42087  -0.36789  -0.35646  -0.34220  -0.32415
  Beta  occ. eigenvalues --   -0.31911  -0.30295  -0.30049  -0.28769  -0.28062
  Beta  occ. eigenvalues --   -0.26941  -0.26162  -0.24611  -0.23442  -0.22932
  Beta  occ. eigenvalues --   -0.14058  -0.13207  -0.10006
  Beta virt. eigenvalues --    0.07055   0.08029   0.08344   0.08530   0.10120
  Beta virt. eigenvalues --    0.10351   0.10424   0.11237   0.12104   0.12931
  Beta virt. eigenvalues --    0.13148   0.13517   0.13671   0.13826   0.14813

 Mulliken charges and spin densities:
               1          2
     1  C    0.100609  -0.778586
     2  C   -0.389177   0.442621
     3  C    1.082344  -2.473196
     4  C    1.684229  -1.478507
     5  C   -2.104586   2.381210
     6  C    2.213789  -2.760862
     7  C   -0.846813   0.848938
     8  N   -0.306964   0.353504
     9  N   -0.062133   0.116075
    10  C    0.527680  -0.889440
    11  H    0.140875   0.021013
    12  H   -0.293689   0.423365
    13  H   -0.114827   0.244760
    14  H   -0.000515   0.114955
    15  H    0.079073   0.088804
    16  H   -0.202492   0.413000
    17  H   -0.297933   0.448319
    18  H   -0.105484   0.238050
    19  H   -1.343857   1.516129
    20  H   -0.474653   0.787046
    21  H    0.184716   0.043389
    22  H    0.075553   0.085051
    23  H   -0.186756   0.314873
    24  H   -0.358989   0.499486
 Sum of Mulliken charges =  -1.00000   1.00000

 Dipole moment (field-independent basis, Debye):
    X=              2.8146    Y=             -1.2790    Z=              5.7213  Tot=              6.5032
 Quadrupole moment (field-independent basis, Debye-Ang):
   XX=           -114.0402   YY=           -103.2024   ZZ=           -103.6873
   XY=              1.9482   XZ=             -5.8379   YZ=              4.9165

 Summary of Natural Population Analysis:

                                       Natural Population
                Natural  -----------------------------------------------
    Atom  No    Charge         Core      Valence    Rydberg      Total
 -----------------------------------------------------------------------
      C    1   -0.28594      0.99966     2.28206    0.00422     3.28594
      C    2   -0.18407      0.99962     2.17688    0.00756     3.18407
      C    3   -0.02485      0.99954     2.00985    0.01546     3.02485
      C    4    0.05708      0.99952     1.92623    0.01717     2.94292
      C    5   -0.15017      0.99949     2.14264    0.00805     3.15017
      C    6   -0.14759      0.99957     2.13891    0.00911     3.14759
      C    7   -0.02287      0.99957     2.00851    0.01479     3.02287
      N    8   -0.26430      0.99965     2.75196    0.01269     3.76430
      N    9   -0.33363      0.99975     2.82250    0.01139     3.83363
      C   10   -0.18210      0.99966     2.17410    0.00835     3.18210
      H   11    0.10333      0.00000     0.39543    0.00124     0.39667
      H   12    0.09564      0.00000     0.40325    0.00111     0.40436
      H   13    0.09741      0.00000     0.40127    0.00132     0.40259
      H   14    0.09109      0.00000     0.40759    0.00132     0.40891
      H   15    0.10003      0.00000     0.39845    0.00152     0.39997
      H   16    0.09728      0.00000     0.40011    0.00262     0.40272
      H   17    0.10145      0.00000     0.39750    0.00105     0.39855
      H   18    0.10115      0.00000     0.39809    0.00077     0.39885
      H   19    0.10258      0.00000     0.39474    0.00269     0.39742
      H   20    0.21012      0.00000     0.26883    0.02105     0.28988
      H   21    0.16683      0.00000     0.33004    0.00312     0.33317
      H   22    0.08622      0.00000     0.41230    0.00148     0.41378
      H   23    0.09126      0.00000     0.40786    0.00089     0.40874
      H   24    0.09407      0.00000     0.40434    0.00159     0.40593
 =======================================================================
   * Total *   -0.00000      9.99603    27.85344    0.15053    38.00000

 Normal termination of Gaussian 16 at Tue Dec  8 10:30:33 2020.
