 Gaussian 16, Revision A.03,

 -----------------------------------------------------------
 # opt freq B3LYP/6-31G(d) empiricaldispersion=gd3bj scf=xqc
 -----------------------------------------------------------

 ------------------------------
 CID_79197965_JID_2743_neutraal
 ------------------------------
 Symbolic Z-matrix:
 Charge =  0 Multiplicity = 1

 SCF Done:  E(RB3LYP) =  -553.382022924     A.U. after   14 cycles
 SCF Done:  E(RB3LYP) =  -553.385777267     A.U. after   12 cycles
 SCF Done:  E(RB3LYP) =  -553.386291149     A.U. after   11 cycles
 SCF Done:  E(RB3LYP) =  -553.386617349     A.U. after   12 cycles
 SCF Done:  E(RB3LYP) =  -553.386921701     A.U. after   12 cycles
 SCF Done:  E(RB3LYP) =  -553.387079131     A.U. after   11 cycles
 SCF Done:  E(RB3LYP) =  -553.387088701     A.U. after   12 cycles
 SCF Done:  E(RB3LYP) =  -553.387203188     A.U. after   12 cycles
 SCF Done:  E(RB3LYP) =  -553.387208788     A.U. after   10 cycles
 SCF Done:  E(RB3LYP) =  -553.387203125     A.U. after   10 cycles
 SCF Done:  E(RB3LYP) =  -553.387212053     A.U. after   10 cycles
 SCF Done:  E(RB3LYP) =  -553.387212332     A.U. after    8 cycles
 SCF Done:  E(RB3LYP) =  -553.387212359     A.U. after    6 cycles
 SCF Done:  E(RB3LYP) =  -553.387212414     A.U. after    8 cycles
 Optimization completed.
    -- Stationary point found.
 Normal termination of Gaussian 16 at Wed Dec  9 18:05:15 2020.

 --------------------------------------------------------------------
 #N Geom=AllCheck Guess=TCheck SCRF=Check GenChk RB3LYP/6-31G(d) Freq
 --------------------------------------------------------------------

 Structure from the checkpoint file:  "JID_2743.chk"
 ------------------------------
 CID_79197965_JID_2743_neutraal
 ------------------------------
 Charge =  0 Multiplicity = 1

 SCF Done:  E(RB3LYP) =  -553.387212414     A.U. after    1 cycles

  Exact polarizability: 128.815   0.421  98.563  -0.792   5.721  86.073
 Approx polarizability: 172.076   3.714 149.230   3.070  17.801 126.596

                      1                      2                      3
                      A                      A                      A
 Frequencies --     28.9173                73.9013                93.6062
 Red. masses --      3.8077                 2.7529                 3.1493
 Frc consts  --      0.0019                 0.0089                 0.0163
 IR Inten    --      0.5279                 2.0198                 6.6024

                      4                      5                      6
                      A                      A                      A
 Frequencies --    114.5776               138.2154               201.4584
 Red. masses --      2.2484                 3.4629                 2.3701
 Frc consts  --      0.0174                 0.0390                 0.0567
 IR Inten    --      3.0887                 0.1987                 3.9530

                      7                      8                      9
                      A                      A                      A
 Frequencies --    217.1941               237.0964               242.9057
 Red. masses --      1.4200                 2.7379                 1.0196
 Frc consts  --      0.0395                 0.0907                 0.0354
 IR Inten    --      3.9321                 4.4875                 0.2511

                     10                     11                     12
                      A                      A                      A
 Frequencies --    277.7263               312.3970               334.5611
 Red. masses --      1.1317                 1.4899                 2.2974
 Frc consts  --      0.0514                 0.0857                 0.1515
 IR Inten    --      1.6269                26.3863                 6.8779

                     13                     14                     15
                      A                      A                      A
 Frequencies --    345.5709               356.9586               381.8865
 Red. masses --      2.8162                 2.6659                 3.1012
 Frc consts  --      0.1981                 0.2001                 0.2665
 IR Inten    --      3.7706                 8.4352                 9.2194

                     16                     17                     18
                      A                      A                      A
 Frequencies --    464.4002               483.1392               529.9966
 Red. masses --      4.0105                 3.7859                 3.5577
 Frc consts  --      0.5096                 0.5207                 0.5888
 IR Inten    --      2.3848                 8.9691                 4.1814

                     19                     20                     21
                      A                      A                      A
 Frequencies --    596.4549               626.4543               657.9281
 Red. masses --      3.0734                 1.5969                 2.4968
 Frc consts  --      0.6442                 0.3692                 0.6368
 IR Inten    --     17.6066                39.8813                27.0619

                     22                     23                     24
                      A                      A                      A
 Frequencies --    716.4227               766.1820               835.3596
 Red. masses --      3.4877                 4.6041                 2.6210
 Frc consts  --      1.0547                 1.5924                 1.0776
 IR Inten    --      9.0097                 6.7518                35.3289

                     25                     26                     27
                      A                      A                      A
 Frequencies --    837.4946               891.9549               933.8443
 Red. masses --      1.3148                 1.2873                 2.5399
 Frc consts  --      0.5434                 0.6034                 1.3050
 IR Inten    --     17.3675                91.9272                 3.4779

                     28                     29                     30
                      A                      A                      A
 Frequencies --    949.4757               996.3865              1015.9261
 Red. masses --      1.4725                 2.6671                 1.8511
 Frc consts  --      0.7821                 1.5601                 1.1257
 IR Inten    --      0.1673                16.4923                32.2378

                     31                     32                     33
                      A                      A                      A
 Frequencies --   1032.0840              1037.0562              1071.8065
 Red. masses --      2.1361                 1.9285                 3.1590
 Frc consts  --      1.3406                 1.2220                 2.1381
 IR Inten    --      3.1746                 8.4749                 2.9116

                     34                     35                     36
                      A                      A                      A
 Frequencies --   1125.2632              1154.8786              1182.9667
 Red. masses --      5.7127                 1.6264                 1.8123
 Frc consts  --      4.2619                 1.2780                 1.4943
 IR Inten    --     98.1424                13.4441                12.0772

                     37                     38                     39
                      A                      A                      A
 Frequencies --   1189.8158              1192.6023              1202.9729
 Red. masses --      1.4538                 1.3851                 1.7476
 Frc consts  --      1.2126                 1.1607                 1.4901
 IR Inten    --     13.9920                 7.6664                48.3049

                     40                     41                     42
                      A                      A                      A
 Frequencies --   1216.8198              1247.4012              1270.3736
 Red. masses --      1.8512                 2.2937                 2.2120
 Frc consts  --      1.6149                 2.1028                 2.1033
 IR Inten    --     26.4080                29.9513                35.8524

                     43                     44                     45
                      A                      A                      A
 Frequencies --   1298.3540              1318.2509              1418.5873
 Red. masses --      1.9406                 1.7547                 1.3464
 Frc consts  --      1.9274                 1.7966                 1.5964
 IR Inten    --     61.9793                22.2599                19.3872

                     46                     47                     48
                      A                      A                      A
 Frequencies --   1428.8325              1436.4913              1440.9207
 Red. masses --      2.0064                 1.7587                 1.4440
 Frc consts  --      2.4134                 2.1382                 1.7665
 IR Inten    --     10.3100                22.2054                 8.9624

                     49                     50                     51
                      A                      A                      A
 Frequencies --   1454.0239              1498.2349              1505.9516
 Red. masses --      4.0816                 1.1409                 1.1689
 Frc consts  --      5.0842                 1.5089                 1.5618
 IR Inten    --     25.2930                 1.3212                 3.0100

                     52                     53                     54
                      A                      A                      A
 Frequencies --   1515.9739              1517.0729              1524.9634
 Red. masses --      1.2471                 1.0729                 1.3530
 Frc consts  --      1.6886                 1.4548                 1.8538
 IR Inten    --      0.4027                 4.1613                 2.4343

                     55                     56                     57
                      A                      A                      A
 Frequencies --   1533.0243              1535.7607              1538.1354
 Red. masses --      1.3140                 1.0928                 1.1148
 Frc consts  --      1.8194                 1.5186                 1.5540
 IR Inten    --      3.2187                 0.1687                 6.2293

                     58                     59                     60
                      A                      A                      A
 Frequencies --   1548.0240              1628.5898              1692.4022
 Red. masses --      1.1575                 4.7748                 1.1003
 Frc consts  --      1.6343                 7.4615                 1.8568
 IR Inten    --      6.7464                 7.1839                33.2674

                     61                     62                     63
                      A                      A                      A
 Frequencies --   2994.4934              3001.6439              3037.5207
 Red. masses --      1.0671                 1.0422                 1.0950
 Frc consts  --      5.6380                 5.5326                 5.9527
 IR Inten    --     70.6078                47.8551                38.1029

                     64                     65                     66
                      A                      A                      A
 Frequencies --   3054.6871              3062.7316              3067.5225
 Red. masses --      1.0394                 1.0933                 1.0363
 Frc consts  --      5.7143                 6.0424                 5.7451
 IR Inten    --     13.6786                54.0134                19.5741

                     67                     68                     69
                      A                      A                      A
 Frequencies --   3117.5062              3133.4096              3135.1419
 Red. masses --      1.1010                 1.0984                 1.1033
 Frc consts  --      6.3043                 6.3538                 6.3891
 IR Inten    --     30.9005                36.6474                11.4766

                     70                     71                     72
                      A                      A                      A
 Frequencies --   3143.4249              3168.5157              3252.6903
 Red. masses --      1.1020                 1.1016                 1.0966
 Frc consts  --      6.4154                 6.5162                 6.8359
 IR Inten    --     39.8007                 8.6811                12.9877

                     73                     74                     75
                      A                      A                      A
 Frequencies --   3467.8454              3556.5616              3647.1514
 Red. masses --      1.0499                 1.0929                 1.0798
 Frc consts  --      7.4391                 8.1451                 8.4624
 IR Inten    --      1.8219                 0.4932                53.8216

 - Thermochemistry -
 -------------------
 Temperature   298.150 Kelvin.  Pressure   1.00000 Atm.
 Atom     1 has atomic number  6 and mass  12.00000

 Molecular mass:   169.12151 amu.
 Principal axes and moments of inertia in atomic units:
                           1         2         3
     Eigenvalues --  1127.528573067.757373320.74952
           X            0.99993   0.00404  -0.01135
           Y           -0.00440   0.99948  -0.03184
           Z            0.01122   0.03188   0.99943
 This molecule is an asymmetric top.
 Rotational symmetry number  1.
 Warning -- assumption of classical behavior for rotation
           may cause significant error
 Rotational temperatures (Kelvin)      0.07682     0.02823     0.02608
 Rotational constants (GHZ):           1.60062     0.58829     0.54347
 Zero-point vibrational energy     617613.3 (Joules/Mol)
                                  147.61311 (Kcal/Mol)
 Warning -- explicit consideration of  19 degrees of freedom as
           vibrations may cause significant error
 Vibrational temperatures:     41.61   106.33   134.68   164.85   198.86
          (Kelvin)            289.85   312.49   341.13   349.49   399.59
                              449.47   481.36   497.20   513.58   549.45
                              668.17   695.13   762.55   858.17   901.33
                              946.61  1030.77  1102.36  1201.90  1204.97
                             1283.32  1343.59  1366.08  1433.58  1461.69
                             1484.94  1492.09  1542.09  1619.00  1661.61
                             1702.03  1711.88  1715.89  1730.81  1750.73
                             1794.73  1827.78  1868.04  1896.67  2041.03
                             2055.77  2066.79  2073.16  2092.02  2155.63
                             2166.73  2181.15  2182.73  2194.08  2205.68
                             2209.62  2213.03  2227.26  2343.18  2434.99
                             4308.41  4318.70  4370.31  4395.01  4406.59
                             4413.48  4485.40  4508.28  4510.77  4522.69
                             4558.79  4679.90  4989.46  5117.10  5247.44

 Zero-point correction=                           0.235236 (Hartree/Particle)
 Thermal correction to Energy=                    0.248254
 Thermal correction to Enthalpy=                  0.249198
 Thermal correction to Gibbs Free Energy=         0.195787
 Sum of electronic and zero-point Energies=           -553.151976
 Sum of electronic and thermal Energies=              -553.138959
 Sum of electronic and thermal Enthalpies=            -553.138014
 Sum of electronic and thermal Free Energies=         -553.191425

                     E (Thermal)             CV                S
                      KCal/Mol        Cal/Mol-Kelvin    Cal/Mol-Kelvin
 Total                  155.782             48.437            112.413
 Electronic               0.000              0.000              0.000
 Translational            0.889              2.981             41.284
 Rotational               0.889              2.981             30.819
 Vibrational            154.004             42.475             40.309
 Vibration     1          0.593              1.984              5.902
 Vibration     2          0.599              1.966              4.047
 Vibration     3          0.603              1.954              3.583
 Vibration     4          0.608              1.937              3.190
 Vibration     5          0.614              1.915              2.828
 Vibration     6          0.638              1.838              2.120
 Vibration     7          0.646              1.815              1.982
 Vibration     8          0.656              1.784              1.825
 Vibration     9          0.659              1.774              1.781
 Vibration    10          0.679              1.715              1.548
 Vibration    11          0.701              1.650              1.350
 Vibration    12          0.716              1.606              1.238
 Vibration    13          0.724              1.584              1.186
 Vibration    14          0.732              1.561              1.135
 Vibration    15          0.751              1.509              1.032
 Vibration    16          0.822              1.329              0.753
 Vibration    17          0.839              1.287              0.702
 Vibration    18          0.885              1.184              0.587
 Vibration    19          0.954              1.039              0.456

 Optimization completed.
    -- Stationary point found.
 Normal termination of Gaussian 16 at Wed Dec  9 18:11:45 2020.

 ----------------------------------------------------------------------
 # B3LYP/6-311++G(d,p) empiricaldispersion=gd3bj scf=xqc pop=npa geom=c
 heck
 ----------------------------------------------------------------------

 --------------------------------------
 CID_79197965_JID_2743_Energie_neutraal
 --------------------------------------
 Structure from the checkpoint file:  "JID_2743.chk"
 Charge =  0 Multiplicity = 1

 SCF Done:  E(RB3LYP) =  -553.553613458     A.U. after   14 cycles
 Normal termination of Gaussian 16 at Wed Dec  9 18:16:04 2020.

 ----------------------------------------------------------------------
 # B3LYP/6-311++G(d,p) empiricaldispersion=gd3bj scf=xqc pop=npa geom=c
 heck
 ----------------------------------------------------------------------

 ------------------------------------
 CID_79197965_JID_2743_Energie_kation
 ------------------------------------
 Structure from the checkpoint file:  "JID_2743.chk"
 Charge =  1 Multiplicity = 2

 SCF Done:  E(UB3LYP) =  -553.256384391     A.U. after   23 cycles
 Normal termination of Gaussian 16 at Wed Dec  9 18:22:59 2020.
 Gaussian 16:  ES64L-G16RevA.03 25-Dec-2016

 ----------------------------------------------------------------------
 # B3LYP/6-311++G(d,p) empiricaldispersion=gd3bj scf=xqc pop=npa geom=c
 heck
 ----------------------------------------------------------------------

 -----------------------------------
 CID_79197965_JID_2743_Energie_anion
 -----------------------------------
 Structure from the checkpoint file:  "JID_2743.chk"
 Charge = -1 Multiplicity = 2

                         Standard orientation:
 ---------------------------------------------------------------------
 Center     Atomic      Atomic             Coordinates (Angstroms)
 Number     Number       Type             X           Y           Z
 ---------------------------------------------------------------------
      1          6           0       -2.645617   -1.145543    0.800963
      2          6           0       -1.744500    0.011603    0.366808
      3          6           0       -1.745509    1.128664    1.421668
      4          6           0       -0.348601   -0.505586    0.101914
      5          7           0       -0.054871   -1.604921   -0.572522
      6          6           0        1.319205   -1.644436   -0.650371
      7          6           0        1.875380   -0.560437   -0.010044
      8          7           0        0.796259    0.153983    0.465684
      9          6           0        3.271595   -0.102934    0.259188
     10          7           0        3.327698    1.367849    0.195126
     11          8           0       -2.354951    0.501329   -0.844824
     12          6           0       -1.551262    1.323096   -1.666112
     13          1           0       -2.332818   -1.534275    1.775220
     14          1           0       -2.584061   -1.949682    0.065531
     15          1           0       -3.679294   -0.792945    0.870149
     16          1           0       -1.321456    0.779379    2.369122
     17          1           0       -1.178082    2.007019    1.093399
     18          1           0       -2.775563    1.449768    1.598008
     19          1           0        1.832334   -2.452952   -1.154461
     20          1           0        0.888920    1.046851    0.929181
     21          1           0        3.579063   -0.387349    1.275473
     22          1           0        3.954430   -0.624030   -0.431221
     23          1           0        4.247974    1.692073    0.486691
     24          1           0        3.205126    1.668516   -0.771079
     25          1           0       -1.183025    2.219643   -1.143294
     26          1           0       -0.690562    0.776613   -2.074653
     27          1           0       -2.191126    1.645786   -2.491585
 ---------------------------------------------------------------------

 SCF Done:  E(UB3LYP) =  -553.544102970     A.U. after   29 cycles

 The electronic state is 2-A.
 Alpha  occ. eigenvalues --  -19.02530 -14.25585 -14.18850 -14.18565 -10.14436
 Alpha  occ. eigenvalues --  -10.12014 -10.11008 -10.09663 -10.09607 -10.07607
 Alpha  occ. eigenvalues --  -10.07039 -10.06365  -0.93927  -0.90837  -0.78260
 Alpha  occ. eigenvalues --   -0.75867  -0.70776  -0.64447  -0.60457  -0.57873
 Alpha  occ. eigenvalues --   -0.56476  -0.51578  -0.49329  -0.46720  -0.42437
 Alpha  occ. eigenvalues --   -0.39215  -0.38059  -0.37009  -0.35971  -0.34262
 Alpha  occ. eigenvalues --   -0.33170  -0.32394  -0.31665  -0.31021  -0.29939
 Alpha  occ. eigenvalues --   -0.28902  -0.28712  -0.27793  -0.26212  -0.26147
 Alpha  occ. eigenvalues --   -0.22198  -0.18041  -0.17088  -0.16570  -0.14381
 Alpha  occ. eigenvalues --   -0.11923   0.04433
 Alpha virt. eigenvalues --    0.06811   0.07769   0.08416   0.09200   0.09415
 Alpha virt. eigenvalues --    0.09729   0.10771   0.11124   0.11503   0.12046
 Alpha virt. eigenvalues --    0.12291   0.13106   0.13877   0.14245   0.14700

  Beta  occ. eigenvalues --  -19.02527 -14.25555 -14.18854 -14.18482 -10.14434
  Beta  occ. eigenvalues --  -10.12005 -10.10987 -10.09631 -10.09603 -10.07593
  Beta  occ. eigenvalues --  -10.07009 -10.06361  -0.93919  -0.90815  -0.78172
  Beta  occ. eigenvalues --   -0.75805  -0.70758  -0.64393  -0.60414  -0.57836
  Beta  occ. eigenvalues --   -0.56367  -0.51535  -0.49291  -0.46674  -0.42397
  Beta  occ. eigenvalues --   -0.39166  -0.37996  -0.36974  -0.35932  -0.34210
  Beta  occ. eigenvalues --   -0.33118  -0.32354  -0.31628  -0.30975  -0.29899
  Beta  occ. eigenvalues --   -0.28873  -0.28698  -0.27717  -0.26191  -0.26126
  Beta  occ. eigenvalues --   -0.22183  -0.18012  -0.17083  -0.16557  -0.14304
  Beta  occ. eigenvalues --   -0.11875
  Beta virt. eigenvalues --    0.06810   0.07794   0.08175   0.08768   0.09717
  Beta virt. eigenvalues --    0.09861   0.10124   0.11187   0.11334   0.12080
  Beta virt. eigenvalues --    0.12351   0.12735   0.13180   0.13934   0.14452

 Mulliken charges and spin densities:
               1          2
     1  C   -0.362989  -0.204924
     2  C   -1.130846   1.243495
     3  C    0.678905  -1.244519
     4  C    0.423420  -1.167594
     5  N   -0.021524   0.044629
     6  C    0.102140  -0.372698
     7  C   -0.981424   1.566546
     8  N   -0.188804   0.216437
     9  C    2.206257  -2.949868
    10  N   -0.514886   0.128461
    11  O   -0.028122   0.007106
    12  C    0.237320  -0.413477
    13  H    0.094016   0.046472
    14  H    0.168909   0.010663
    15  H    0.120114   0.024255
    16  H   -0.230544   0.398231
    17  H   -0.098978   0.241886
    18  H   -0.009265   0.175250
    19  H   -0.022381   0.161609
    20  H    0.161865   0.185888
    21  H   -0.521326   0.704187
    22  H   -0.455625   0.624772
    23  H   -0.430571   0.685790
    24  H   -0.216593   0.434169
    25  H   -0.090949   0.218300
    26  H    0.073846   0.111073
    27  H    0.038032   0.123862
 Sum of Mulliken charges =  -1.00000   1.00000

 Dipole moment (field-independent basis, Debye):
    X=             -7.9434    Y=             -3.0641    Z=             -0.6793  Tot=              8.5410
 Quadrupole moment (field-independent basis, Debye-Ang):
   XX=           -150.3938   YY=           -111.4082   ZZ=           -104.0427
   XY=            -12.4196   XZ=             -4.7471   YZ=             -3.7683

 Summary of Natural Population Analysis:

                                       Natural Population
                Natural  -----------------------------------------------
    Atom  No    Charge         Core      Valence    Rydberg      Total
 -----------------------------------------------------------------------
      C    1   -0.28259      0.99962     2.27710    0.00587     3.28259
      C    2    0.11419      0.99949     1.87055    0.01577     2.88581
      C    3   -0.29954      0.99963     2.29264    0.00727     3.29954
      C    4    0.17048      0.99956     1.81048    0.01948     2.82952
      N    5   -0.25783      0.99969     2.74931    0.00883     3.75783
      C    6   -0.03466      0.99951     2.02124    0.01392     3.03466
      C    7    0.05575      0.99954     1.93069    0.01402     2.94425
      N    8   -0.26940      0.99962     2.76124    0.00854     3.76940
      C    9   -0.10161      0.99960     2.08981    0.01219     3.10161
      N   10   -0.42616      0.99978     2.91551    0.01087     3.92616
      O   11   -0.30517      0.99988     3.29505    0.01025     4.30517
      C   12   -0.10208      0.99960     2.09294    0.00955     3.10208
      H   13    0.09915      0.00000     0.40016    0.00069     0.40085
      H   14    0.11331      0.00000     0.38561    0.00108     0.38669
      H   15    0.09827      0.00000     0.40081    0.00092     0.40173
      H   16    0.10448      0.00000     0.39440    0.00112     0.39552
      H   17    0.10199      0.00000     0.39656    0.00145     0.39801
      H   18    0.10419      0.00000     0.39482    0.00100     0.39581
      H   19    0.09539      0.00000     0.40351    0.00110     0.40461
      H   20    0.21675      0.00000     0.27940    0.00385     0.28325
      H   21    0.09881      0.00000     0.39895    0.00224     0.40119
      H   22    0.09012      0.00000     0.40760    0.00228     0.40988
      H   23    0.18485      0.00000     0.30255    0.01260     0.31515
      H   24    0.17758      0.00000     0.31657    0.00585     0.32242
      H   25    0.07885      0.00000     0.41971    0.00144     0.42115
      H   26    0.08693      0.00000     0.41167    0.00140     0.41307
      H   27    0.08796      0.00000     0.41120    0.00085     0.41204
 =======================================================================
   * Total *   -0.00000     11.99550    33.83006    0.17443    46.00000

 Normal termination of Gaussian 16 at Wed Dec  9 18:31:24 2020.
