 Gaussian 16, Revision A.03,

 -----------------------------------------------------------
 # opt freq B3LYP/6-31G(d) empiricaldispersion=gd3bj scf=xqc
 -----------------------------------------------------------

 -------------------------------
 CID_149045614_JID_4654_neutraal
 -------------------------------
 Symbolic Z-matrix:
 Charge =  0 Multiplicity = 1

 SCF Done:  E(RB3LYP) =  -581.273069352     A.U. after   13 cycles
 SCF Done:  E(RB3LYP) =  -581.268721992     A.U. after   11 cycles
 SCF Done:  E(RB3LYP) =  -581.277692992     A.U. after   10 cycles
 SCF Done:  E(RB3LYP) =  -581.278240693     A.U. after   10 cycles
 SCF Done:  E(RB3LYP) =  -581.275012119     A.U. after   11 cycles
 SCF Done:  E(RB3LYP) =  -581.278416253     A.U. after   10 cycles
 SCF Done:  E(RB3LYP) =  -581.278442347     A.U. after    9 cycles
 SCF Done:  E(RB3LYP) =  -581.278391759     A.U. after   10 cycles
 SCF Done:  E(RB3LYP) =  -581.278469619     A.U. after    9 cycles
 SCF Done:  E(RB3LYP) =  -581.278475644     A.U. after    8 cycles
 SCF Done:  E(RB3LYP) =  -581.278483714     A.U. after    8 cycles
 SCF Done:  E(RB3LYP) =  -581.278487188     A.U. after    8 cycles
 SCF Done:  E(RB3LYP) =  -581.278490274     A.U. after    9 cycles
 SCF Done:  E(RB3LYP) =  -581.278492099     A.U. after    8 cycles
 SCF Done:  E(RB3LYP) =  -581.278492324     A.U. after    6 cycles
 SCF Done:  E(RB3LYP) =  -581.278492385     A.U. after    6 cycles
 Optimization completed.
    -- Stationary point found.
 Normal termination of Gaussian 16 at Thu Dec 10 10:23:20 2020.

 --------------------------------------------------------------------
 #N Geom=AllCheck Guess=TCheck SCRF=Check GenChk RB3LYP/6-31G(d) Freq
 --------------------------------------------------------------------

 Structure from the checkpoint file:  "JID_4654.chk"
 -------------------------------
 CID_149045614_JID_4654_neutraal
 -------------------------------
 Charge =  0 Multiplicity = 1

 SCF Done:  E(RB3LYP) =  -581.278492385     A.U. after    1 cycles

  Exact polarizability: 146.850  -1.360 136.960  -0.926   1.156 117.990
 Approx polarizability: 187.543   1.299 188.219  -1.321   0.923 181.152

                      1                      2                      3
                      A                      A                      A
 Frequencies --     24.2656                67.0993                90.6134
 Red. masses --      3.0796                 3.2775                 2.8877
 Frc consts  --      0.0011                 0.0087                 0.0140
 IR Inten    --      0.5146                 0.3165                 1.3448

                      4                      5                      6
                      A                      A                      A
 Frequencies --    132.2107               152.2240               201.4245
 Red. masses --      2.2207                 2.5092                 2.0411
 Frc consts  --      0.0229                 0.0343                 0.0488
 IR Inten    --      0.4211                 0.4125                 0.0132

                      7                      8                      9
                      A                      A                      A
 Frequencies --    205.7651               215.8367               233.2384
 Red. masses --      1.6041                 2.4129                 2.1786
 Frc consts  --      0.0400                 0.0662                 0.0698
 IR Inten    --      0.0274                 0.0622                 0.3690

                     10                     11                     12
                      A                      A                      A
 Frequencies --    251.9990               272.0679               274.7888
 Red. masses --      1.5580                 2.3565                 1.9319
 Frc consts  --      0.0583                 0.1028                 0.0859
 IR Inten    --      0.4952                 1.9403                 1.0466

                     13                     14                     15
                      A                      A                      A
 Frequencies --    297.7986               322.6904               368.8557
 Red. masses --      2.4954                 2.2673                 2.1267
 Frc consts  --      0.1304                 0.1391                 0.1705
 IR Inten    --      1.2061                 0.8870                 1.8311

                     16                     17                     18
                      A                      A                      A
 Frequencies --    405.9296               443.8142               502.8104
 Red. masses --      2.2895                 2.5815                 3.0060
 Frc consts  --      0.2223                 0.2996                 0.4478
 IR Inten    --      0.5941                 0.8904                 1.1869

                     19                     20                     21
                      A                      A                      A
 Frequencies --    553.7910               610.6248               621.9301
 Red. masses --      2.1117                 2.5131                 2.8656
 Frc consts  --      0.3816                 0.5521                 0.6531
 IR Inten    --      3.5807                34.8588                 9.5581

                     22                     23                     24
                      A                      A                      A
 Frequencies --    696.2471               708.9812               750.7595
 Red. masses --      2.3334                 2.4062                 3.6024
 Frc consts  --      0.6665                 0.7126                 1.1963
 IR Inten    --      2.6517                 9.7072                 0.5887

                     25                     26                     27
                      A                      A                      A
 Frequencies --    786.6868               821.6613               865.1189
 Red. masses --      2.2484                 2.3014                 1.5870
 Frc consts  --      0.8198                 0.9155                 0.6998
 IR Inten    --     32.9924                 5.1298                 7.8568

                     28                     29                     30
                      A                      A                      A
 Frequencies --    872.3947               899.4940               924.5101
 Red. masses --      2.2507                 2.0499                 2.0659
 Frc consts  --      1.0092                 0.9772                 1.0404
 IR Inten    --      3.8702                89.0358                 8.4421

                     31                     32                     33
                      A                      A                      A
 Frequencies --    927.3949               937.8505               956.8404
 Red. masses --      1.9608                 1.8374                 2.2122
 Frc consts  --      0.9936                 0.9522                 1.1933
 IR Inten    --      0.8847                21.4516                 3.5107

                     34                     35                     36
                      A                      A                      A
 Frequencies --    959.6372               968.5666               997.1700
 Red. masses --      2.4307                 1.6797                 1.6607
 Frc consts  --      1.3189                 0.9284                 0.9729
 IR Inten    --      1.9706                10.4485                 0.9826

                     37                     38                     39
                      A                      A                      A
 Frequencies --   1011.2715              1020.7518              1043.8499
 Red. masses --      1.6612                 1.5104                 1.4557
 Frc consts  --      1.0009                 0.9272                 0.9346
 IR Inten    --      3.8673                 1.6195                 1.7556

                     40                     41                     42
                      A                      A                      A
 Frequencies --   1051.4283              1061.8605              1069.1759
 Red. masses --      2.1818                 1.7936                 1.7643
 Frc consts  --      1.4211                 1.1915                 1.1883
 IR Inten    --      6.4742                 4.6953                 5.2699

                     43                     44                     45
                      A                      A                      A
 Frequencies --   1081.9058              1100.4720              1127.5942
 Red. masses --      1.8967                 2.0136                 1.6813
 Frc consts  --      1.3081                 1.4367                 1.2595
 IR Inten    --      0.8256                 1.2800                 3.6300

                     46                     47                     48
                      A                      A                      A
 Frequencies --   1138.9999              1163.2788              1165.2976
 Red. masses --      2.5572                 1.7823                 1.6895
 Frc consts  --      1.9546                 1.4210                 1.3517
 IR Inten    --      7.2101                11.3859                 2.8291

                     49                     50                     51
                      A                      A                      A
 Frequencies --   1171.0514              1180.2684              1204.5397
 Red. masses --      1.4582                 1.7795                 1.3897
 Frc consts  --      1.1782                 1.4605                 1.1880
 IR Inten    --      2.7901                27.7991                 0.7339

                     52                     53                     54
                      A                      A                      A
 Frequencies --   1223.0315              1235.9248              1242.5768
 Red. masses --      1.4537                 1.5644                 1.3528
 Frc consts  --      1.2812                 1.4079                 1.2306
 IR Inten    --      4.6947                 4.4537                 4.1962

                     55                     56                     57
                      A                      A                      A
 Frequencies --   1266.9036              1284.5056              1291.0473
 Red. masses --      1.2788                 1.7525                 1.5546
 Frc consts  --      1.2093                 1.7037                 1.5267
 IR Inten    --      2.6446                11.2036                 0.6640

                     58                     59                     60
                      A                      A                      A
 Frequencies --   1299.9139              1317.7822              1328.1220
 Red. masses --      1.2839                 1.3552                 1.2749
 Frc consts  --      1.2783                 1.3865                 1.3250
 IR Inten    --     14.5594                 0.5974                 5.9545

                     61                     62                     63
                      A                      A                      A
 Frequencies --   1333.8199              1341.8234              1348.8798
 Red. masses --      1.2365                 1.3288                 1.3490
 Frc consts  --      1.2961                 1.4096                 1.4461
 IR Inten    --      3.3362                 0.2239                 2.8115

                     64                     65                     66
                      A                      A                      A
 Frequencies --   1356.9635              1369.2880              1381.0304
 Red. masses --      1.3862                 1.3496                 1.2758
 Frc consts  --      1.5039                 1.4909                 1.4336
 IR Inten    --      1.6352                 1.1511                 3.1185

                     67                     68                     69
                      A                      A                      A
 Frequencies --   1388.8422              1412.2131              1422.8881
 Red. masses --      1.3049                 1.3623                 1.4213
 Frc consts  --      1.4829                 1.6008                 1.6955
 IR Inten    --     14.2913                 4.3487                 1.8382

                     70                     71                     72
                      A                      A                      A
 Frequencies --   1430.1013              1443.2179              1453.0853
 Red. masses --      1.3826                 1.2253                 1.3931
 Frc consts  --      1.6661                 1.5036                 1.7331
 IR Inten    --      7.1377                 4.2755                 5.4520

                     73                     74                     75
                      A                      A                      A
 Frequencies --   1480.4086              1508.7455              1520.0190
 Red. masses --      1.1703                 1.0771                 1.0853
 Frc consts  --      1.5111                 1.4445                 1.4774
 IR Inten    --      0.9810                 5.7120                 7.7653

                     76                     77                     78
                      A                      A                      A
 Frequencies --   1524.5294              1529.5415              1531.5990
 Red. masses --      1.0820                 1.0595                 1.0743
 Frc consts  --      1.4816                 1.4604                 1.4847
 IR Inten    --      0.3074                 7.9028                10.2970

                     79                     80                     81
                      A                      A                      A
 Frequencies --   1536.1089              1540.3926              1543.6087
 Red. masses --      1.0576                 1.0875                 1.0612
 Frc consts  --      1.4703                 1.5203                 1.4897
 IR Inten    --      2.4656                 0.0739                 0.3992

                     82                     83                     84
                      A                      A                      A
 Frequencies --   1551.5277              1562.4583              1589.1526
 Red. masses --      1.0919                 1.0988                 1.1433
 Frc consts  --      1.5487                 1.5804                 1.7011
 IR Inten    --      0.9833                 2.9255                15.8029

                     85                     86                     87
                      A                      A                      A
 Frequencies --   2950.1930              2953.4699              2965.4097
 Red. masses --      1.0609                 1.0758                 1.0739
 Frc consts  --      5.4403                 5.5288                 5.5641
 IR Inten    --     99.9255                63.3599               130.6599

                     88                     89                     90
                      A                      A                      A
 Frequencies --   2997.7406              3004.3804              3031.1919
 Red. masses --      1.0834                 1.0842                 1.0722
 Frc consts  --      5.7363                 5.7658                 5.8041
 IR Inten    --     21.1658                26.2166                22.5592

                     91                     92                     93
                      A                      A                      A
 Frequencies --   3043.5204              3045.7723              3048.6241
 Red. masses --      1.0480                 1.0819                 1.0727
 Frc consts  --      5.7195                 5.9132                 5.8739
 IR Inten    --     18.2471                61.4089                57.8725

                     94                     95                     96
                      A                      A                      A
 Frequencies --   3054.0059              3070.3576              3076.1261
 Red. masses --      1.0721                 1.0673                 1.0719
 Frc consts  --      5.8913                 5.9282                 5.9761
 IR Inten    --     75.9745                54.8297                42.2929

                     97                     98                     99
                      A                      A                      A
 Frequencies --   3087.3201              3094.1619              3100.3835
 Red. masses --      1.0885                 1.0700                 1.1009
 Frc consts  --      6.1131                 6.0354                 6.2350
 IR Inten    --     30.8385                42.7312                43.3278

                    100                    101                    102
                      A                      A                      A
 Frequencies --   3101.2059              3108.4216              3114.4648
 Red. masses --      1.0950                 1.1015                 1.1017
 Frc consts  --      6.2047                 6.2705                 6.2964
 IR Inten    --     29.9877                35.4733                42.2638

                    103                    104                    105
                      A                      A                      A
 Frequencies --   3130.0705              3138.7000              3149.5769
 Red. masses --      1.0921                 1.0978                 1.0881
 Frc consts  --      6.3040                 6.3719                 6.3593
 IR Inten    --     26.2956                35.0059                24.4529

                    106                    107                    108
                      A                      A                      A
 Frequencies --   3152.1219              3412.8957              3498.7735
 Red. masses --      1.0957                 1.0763                 1.0748
 Frc consts  --      6.4146                 7.3864                 7.7519
 IR Inten    --     12.3134               149.8506                 0.4217

 - Thermochemistry -
 -------------------
 Temperature   298.150 Kelvin.  Pressure   1.00000 Atm.
 Atom     1 has atomic number  6 and mass  12.00000

 Molecular mass:   196.19395 amu.
 Principal axes and moments of inertia in atomic units:
                           1         2         3
     Eigenvalues --  1963.128403144.904794103.35166
           X            0.99979  -0.02000  -0.00357
           Y            0.02000   0.99980   0.00179
           Z            0.00353  -0.00186   0.99999
 This molecule is an asymmetric top.
 Rotational symmetry number  1.
 Warning -- assumption of classical behavior for rotation
           may cause significant error
 Rotational temperatures (Kelvin)      0.04412     0.02754     0.02111
 Rotational constants (GHZ):           0.91932     0.57386     0.43982
 Zero-point vibrational energy     938074.3 (Joules/Mol)
                                  224.20514 (Kcal/Mol)
 Warning -- explicit consideration of  20 degrees of freedom as
           vibrations may cause significant error
 Vibrational temperatures:     34.91    96.54   130.37   190.22   219.02
          (Kelvin)            289.80   296.05   310.54   335.58   362.57
                              391.44   395.36   428.47   464.28   530.70
                              584.04   638.55   723.43   796.78   878.55
                              894.82  1001.74  1020.07  1080.18  1131.87
                             1182.19  1244.71  1255.18  1294.17  1330.16
                             1334.31  1349.36  1376.68  1380.70  1393.55
                             1434.71  1454.99  1468.63  1501.87  1512.77
                             1527.78  1538.31  1556.62  1583.33  1622.36
                             1638.77  1673.70  1676.60  1684.88  1698.14
                             1733.06  1759.67  1778.22  1787.79  1822.79
                             1848.12  1857.53  1870.29  1895.99  1910.87
                             1919.07  1930.58  1940.74  1952.37  1970.10
                             1986.99  1998.23  2031.86  2047.22  2057.60
                             2076.47  2090.67  2129.98  2170.75  2186.97
                             2193.46  2200.67  2203.63  2210.12  2216.28
                             2220.91  2232.30  2248.03  2286.44  4244.67
                             4249.38  4266.56  4313.08  4322.63  4361.21
                             4378.95  4382.19  4386.29  4394.03  4417.56
                             4425.86  4441.97  4451.81  4460.76  4461.94
                             4472.33  4481.02  4503.47  4515.89  4531.54
                             4535.20  4910.40  5033.95

 Zero-point correction=                           0.357294 (Hartree/Particle)
 Thermal correction to Energy=                    0.371463
 Thermal correction to Enthalpy=                  0.372407
 Thermal correction to Gibbs Free Energy=         0.316524
 Sum of electronic and zero-point Energies=           -580.921199
 Sum of electronic and thermal Energies=              -580.907029
 Sum of electronic and thermal Enthalpies=            -580.906085
 Sum of electronic and thermal Free Energies=         -580.961968

                     E (Thermal)             CV                S
                      KCal/Mol        Cal/Mol-Kelvin    Cal/Mol-Kelvin
 Total                  233.097             56.262            117.616
 Electronic               0.000              0.000              0.000
 Translational            0.889              2.981             41.727
 Rotational               0.889              2.981             31.605
 Vibrational            231.319             50.300             44.284
 Vibration     1          0.593              1.985              6.250
 Vibration     2          0.598              1.970              4.237
 Vibration     3          0.602              1.956              3.647
 Vibration     4          0.612              1.921              2.914
 Vibration     5          0.619              1.900              2.644
 Vibration     6          0.638              1.838              2.120
 Vibration     7          0.640              1.832              2.081
 Vibration     8          0.645              1.817              1.994
 Vibration     9          0.654              1.790              1.854
 Vibration    10          0.664              1.759              1.717
 Vibration    11          0.675              1.725              1.583
 Vibration    12          0.677              1.720              1.566
 Vibration    13          0.691              1.678              1.429
 Vibration    14          0.708              1.630              1.296
 Vibration    15          0.741              1.536              1.085
 Vibration    16          0.771              1.457              0.941
 Vibration    17          0.803              1.375              0.815
 Vibration    18          0.858              1.244              0.651
 Vibration    19          0.909              1.131              0.536
 Vibration    20          0.970              1.009              0.432

 Optimization completed.
    -- Stationary point found.
 Normal termination of Gaussian 16 at Thu Dec 10 10:36:44 2020.

 ----------------------------------------------------------------------
 # B3LYP/6-311++G(d,p) empiricaldispersion=gd3bj scf=xqc pop=npa geom=c
 heck
 ----------------------------------------------------------------------

 ---------------------------------------
 CID_149045614_JID_4654_Energie_neutraal
 ---------------------------------------
 Structure from the checkpoint file:  "JID_4654.chk"
 Charge =  0 Multiplicity = 1

 SCF Done:  E(RB3LYP) =  -581.441982896     A.U. after   13 cycles
 Normal termination of Gaussian 16 at Thu Dec 10 10:42:33 2020.

 ----------------------------------------------------------------------
 # B3LYP/6-311++G(d,p) empiricaldispersion=gd3bj scf=xqc pop=npa geom=c
 heck
 ----------------------------------------------------------------------

 -------------------------------------
 CID_149045614_JID_4654_Energie_kation
 -------------------------------------
 Structure from the checkpoint file:  "JID_4654.chk"
 Charge =  1 Multiplicity = 2

 SCF Done:  E(UB3LYP) =  -581.163850729     A.U. after   20 cycles
 Normal termination of Gaussian 16 at Thu Dec 10 10:55:20 2020.
 Gaussian 16:  ES64L-G16RevA.03 25-Dec-2016

 ----------------------------------------------------------------------
 # B3LYP/6-311++G(d,p) empiricaldispersion=gd3bj scf=xqc pop=npa geom=c
 heck
 ----------------------------------------------------------------------

 ------------------------------------
 CID_149045614_JID_4654_Energie_anion
 ------------------------------------
 Structure from the checkpoint file:  "JID_4654.chk"
 Charge = -1 Multiplicity = 2

                         Standard orientation:
 ---------------------------------------------------------------------
 Center     Atomic      Atomic             Coordinates (Angstroms)
 Number     Number       Type             X           Y           Z
 ---------------------------------------------------------------------
      1          6           0        2.623293   -2.007731    0.182616
      2          6           0        1.586457   -1.151018   -0.566750
      3          6           0        0.153916   -1.546408   -0.118828
      4          6           0       -0.405544   -0.998411    1.213494
      5          6           0       -1.908446   -1.275064    1.091995
      6          6           0       -2.226704   -0.816825   -0.354203
      7          6           0       -0.988659   -1.294328   -1.152818
      8          7           0       -2.379542    0.629015   -0.527530
      9          6           0       -3.517409    1.209371    0.165276
     10          6           0        2.046575    0.332923   -0.521681
     11          6           0        2.207196    0.951035    0.903482
     12          6           0        1.387596    2.257190    0.878184
     13          7           0        0.411935    2.029728   -0.197244
     14          6           0        1.177089    1.374513   -1.264817
     15          1           0        2.584712   -1.832066    1.263719
     16          1           0        3.643478   -1.785469   -0.152427
     17          1           0        2.439911   -3.075068    0.017349
     18          1           0        1.650335   -1.440719   -1.626943
     19          1           0        0.200214   -2.636922    0.012820
     20          1           0        0.055325   -1.462415    2.092608
     21          1           0       -0.256330    0.080831    1.282115
     22          1           0       -2.509864   -0.760978    1.848771
     23          1           0       -2.105920   -2.351664    1.192115
     24          1           0       -3.150261   -1.283283   -0.720466
     25          1           0       -0.738563   -0.542799   -1.903444
     26          1           0       -1.207190   -2.217764   -1.699730
     27          1           0       -1.513880    1.097081   -0.246495
     28          1           0       -3.521890    1.086767    1.264454
     29          1           0       -3.559209    2.283813   -0.047266
     30          1           0       -4.444509    0.760525   -0.214458
     31          1           0        3.029785    0.323760   -1.006456
     32          1           0        3.255811    1.151089    1.141155
     33          1           0        1.832262    0.273629    1.671220
     34          1           0        0.876100    2.461649    1.824682
     35          1           0        2.050795    3.113054    0.661791
     36          1           0        0.000475    2.903646   -0.519782
     37          1           0        1.841873    2.086435   -1.786321
     38          1           0        0.507618    0.944186   -2.011297
 ---------------------------------------------------------------------

 SCF Done:  E(UB3LYP) =  -581.428092623     A.U. after   27 cycles

 The electronic state is 2-A.
 Alpha  occ. eigenvalues --  -14.19671 -14.18052 -10.08967 -10.08547 -10.08338
 Alpha  occ. eigenvalues --  -10.08317 -10.07191 -10.06883 -10.06700 -10.05867
 Alpha  occ. eigenvalues --  -10.05814 -10.05614 -10.05591 -10.05464  -0.81654
 Alpha  occ. eigenvalues --   -0.79850  -0.72709  -0.68735  -0.63782  -0.61607
 Alpha  occ. eigenvalues --   -0.60805  -0.59136  -0.54761  -0.51747  -0.48934
 Alpha  occ. eigenvalues --   -0.47016  -0.46077  -0.43465  -0.41306  -0.39413
 Alpha  occ. eigenvalues --   -0.37153  -0.36478  -0.34794  -0.34144  -0.33386
 Alpha  occ. eigenvalues --   -0.32130  -0.32096  -0.29916  -0.29455  -0.28273
 Alpha  occ. eigenvalues --   -0.27805  -0.27517  -0.26786  -0.25586  -0.24647
 Alpha  occ. eigenvalues --   -0.24127  -0.23781  -0.23193  -0.22773  -0.22406
 Alpha  occ. eigenvalues --   -0.20495  -0.19988  -0.19002  -0.13358  -0.11303
 Alpha  occ. eigenvalues --    0.04394
 Alpha virt. eigenvalues --    0.06451   0.06721   0.07692   0.08357   0.08602
 Alpha virt. eigenvalues --    0.09209   0.09350   0.09954   0.10772   0.10911
 Alpha virt. eigenvalues --    0.11557   0.11839   0.12223   0.12931   0.13033

  Beta  occ. eigenvalues --  -14.19652 -14.18049 -10.08964 -10.08517 -10.08317
  Beta  occ. eigenvalues --  -10.08301 -10.07186 -10.06874 -10.06694 -10.05850
  Beta  occ. eigenvalues --  -10.05803 -10.05593 -10.05585 -10.05453  -0.81621
  Beta  occ. eigenvalues --   -0.79841  -0.72692  -0.68710  -0.63742  -0.61565
  Beta  occ. eigenvalues --   -0.60779  -0.59106  -0.54729  -0.51702  -0.48857
  Beta  occ. eigenvalues --   -0.46980  -0.46057  -0.43438  -0.41223  -0.39383
  Beta  occ. eigenvalues --   -0.37131  -0.36460  -0.34766  -0.34113  -0.33365
  Beta  occ. eigenvalues --   -0.32090  -0.32066  -0.29885  -0.29431  -0.28237
  Beta  occ. eigenvalues --   -0.27780  -0.27495  -0.26755  -0.25539  -0.24627
  Beta  occ. eigenvalues --   -0.24095  -0.23760  -0.23173  -0.22752  -0.22381
  Beta  occ. eigenvalues --   -0.20470  -0.19963  -0.18976  -0.13312  -0.11290
  Beta virt. eigenvalues --    0.06363   0.07229   0.07407   0.08096   0.08774
  Beta virt. eigenvalues --    0.09246   0.09531   0.09713   0.10209   0.11217
  Beta virt. eigenvalues --    0.11308   0.11859   0.12130   0.12564   0.13081

 Mulliken charges and spin densities:
               1          2
     1  C    0.208352  -0.914714
     2  C   -0.803640   0.912964
     3  C    0.575718  -0.210652
     4  C   -0.335003   0.128364
     5  C   -0.188041  -0.795607
     6  C   -0.367342   0.692270
     7  C   -0.355011  -0.588038
     8  N   -0.197968  -0.039263
     9  C   -0.038662  -0.328184
    10  C    0.856090  -0.514348
    11  C   -0.799563   0.446664
    12  C    1.119747  -1.577118
    13  N   -0.452050   0.200229
    14  C    0.442394  -1.113519
    15  H    0.057686   0.086388
    16  H   -0.257462   0.407290
    17  H   -0.253098   0.368220
    18  H    0.039041   0.149031
    19  H    0.402063  -0.207425
    20  H   -0.140821   0.321418
    21  H    0.395790  -0.242714
    22  H    0.097196   0.062775
    23  H   -0.165265   0.280879
    24  H    0.047786   0.160212
    25  H    0.221916  -0.070847
    26  H   -0.133875   0.280969
    27  H    0.865802  -0.503661
    28  H    0.010618   0.099170
    29  H   -0.135662   0.258691
    30  H   -0.038259   0.162105
    31  H   -0.077283   0.295603
    32  H   -0.345597   0.538387
    33  H    0.111994   0.020807
    34  H   -0.209367   0.370284
    35  H   -0.541277   0.694574
    36  H   -0.054378   0.335915
    37  H   -0.521127   0.677838
    38  H   -0.041443   0.155038
 Sum of Mulliken charges =  -1.00000   1.00000

 Dipole moment (field-independent basis, Debye):
    X=             -3.7354    Y=             -3.6127    Z=              0.3367  Tot=              5.2075
 Quadrupole moment (field-independent basis, Debye-Ang):
   XX=           -156.1583   YY=           -147.0058   ZZ=           -124.4989
   XY=             -5.7813   XZ=              1.0767   YZ=              1.9410

 Summary of Natural Population Analysis:

                                       Natural Population
                Natural  -----------------------------------------------
    Atom  No    Charge         Core      Valence    Rydberg      Total
 -----------------------------------------------------------------------
      C    1   -0.28244      0.99965     2.27696    0.00583     3.28244
      C    2   -0.10130      0.99956     2.09028    0.01146     3.10130
      C    3   -0.10728      0.99958     2.09632    0.01138     3.10728
      C    4   -0.20060      0.99961     2.19291    0.00808     3.20060
      C    5   -0.19875      0.99962     2.19053    0.00860     3.19875
      C    6   -0.00691      0.99960     1.99388    0.01343     3.00691
      C    7   -0.19024      0.99960     2.18187    0.00877     3.19024
      N    8   -0.35809      0.99973     2.84643    0.01193     3.85809
      C    9   -0.17672      0.99966     2.17021    0.00685     3.17672
      C   10   -0.11091      0.99958     2.09765    0.01368     3.11091
      C   11   -0.19743      0.99962     2.18940    0.00842     3.19743
      C   12   -0.08524      0.99963     2.07475    0.01087     3.08524
      N   13   -0.35327      0.99975     2.83999    0.01353     3.85327
      C   14   -0.08545      0.99960     2.07415    0.01170     3.08545
      H   15    0.09694      0.00000     0.40204    0.00101     0.40306
      H   16    0.09953      0.00000     0.39949    0.00098     0.40047
      H   17    0.09692      0.00000     0.40215    0.00092     0.40308
      H   18    0.09416      0.00000     0.40433    0.00151     0.40584
      H   19    0.09268      0.00000     0.40555    0.00177     0.40732
      H   20    0.09844      0.00000     0.40056    0.00099     0.40156
      H   21    0.10326      0.00000     0.39336    0.00338     0.39674
      H   22    0.09898      0.00000     0.40017    0.00085     0.40102
      H   23    0.09358      0.00000     0.40524    0.00118     0.40642
      H   24    0.08946      0.00000     0.40951    0.00103     0.41054
      H   25    0.10267      0.00000     0.39547    0.00186     0.39733
      H   26    0.09787      0.00000     0.40131    0.00083     0.40213
      H   27    0.19163      0.00000     0.30321    0.00517     0.30837
      H   28    0.07572      0.00000     0.42262    0.00166     0.42428
      H   29    0.09361      0.00000     0.40539    0.00100     0.40639
      H   30    0.08664      0.00000     0.41216    0.00120     0.41336
      H   31    0.10182      0.00000     0.39637    0.00180     0.39818
      H   32    0.10361      0.00000     0.39500    0.00139     0.39639
      H   33    0.10001      0.00000     0.39837    0.00162     0.39999
      H   34    0.09299      0.00000     0.40584    0.00117     0.40701
      H   35    0.08446      0.00000     0.41278    0.00276     0.41554
      H   36    0.18021      0.00000     0.31656    0.00322     0.31979
      H   37    0.08424      0.00000     0.41381    0.00195     0.41576
      H   38    0.09520      0.00000     0.40327    0.00152     0.40480
 =======================================================================
   * Total *   -0.00000     13.99479    40.81985    0.18536    55.00000

 Normal termination of Gaussian 16 at Thu Dec 10 11:14:10 2020.
