 Gaussian 16, Revision A.03,

 -----------------------------------------------------------
 # opt freq B3LYP/6-31G(d) empiricaldispersion=gd3bj scf=xqc
 -----------------------------------------------------------

 -------------------------------
 CID_123608732_JID_7495_neutraal
 -------------------------------
 Symbolic Z-matrix:
 Charge =  0 Multiplicity = 1

 SCF Done:  E(RB3LYP) =  -696.981639819     A.U. after   15 cycles
 SCF Done:  E(RB3LYP) =  -696.991824061     A.U. after   14 cycles
 SCF Done:  E(RB3LYP) =  -696.991478843     A.U. after   13 cycles
 SCF Done:  E(RB3LYP) =  -696.993156470     A.U. after   13 cycles
 SCF Done:  E(RB3LYP) =  -696.993777545     A.U. after   12 cycles
 SCF Done:  E(RB3LYP) =  -696.994908345     A.U. after   13 cycles
 SCF Done:  E(RB3LYP) =  -696.997056116     A.U. after   13 cycles
 SCF Done:  E(RB3LYP) =  -696.998971397     A.U. after   13 cycles
 SCF Done:  E(RB3LYP) =  -697.000279202     A.U. after   13 cycles
 SCF Done:  E(RB3LYP) =  -697.002106567     A.U. after   12 cycles
 SCF Done:  E(RB3LYP) =  -697.004434593     A.U. after   12 cycles
 SCF Done:  E(RB3LYP) =  -697.004421506     A.U. after   11 cycles
 SCF Done:  E(RB3LYP) =  -697.004443372     A.U. after   12 cycles
 SCF Done:  E(RB3LYP) =  -697.004445125     A.U. after   10 cycles
 SCF Done:  E(RB3LYP) =  -697.004445416     A.U. after    8 cycles
 SCF Done:  E(RB3LYP) =  -697.004445445     A.U. after    8 cycles
 Optimization completed.
    -- Stationary point found.
 Normal termination of Gaussian 16 at Fri Dec 11 12:34:57 2020.

 --------------------------------------------------------------------
 #N Geom=AllCheck Guess=TCheck SCRF=Check GenChk RB3LYP/6-31G(d) Freq
 --------------------------------------------------------------------

 Structure from the checkpoint file:  "JID_7495.chk"
 -------------------------------
 CID_123608732_JID_7495_neutraal
 -------------------------------
 Charge =  0 Multiplicity = 1

 SCF Done:  E(RB3LYP) =  -697.004445445     A.U. after    1 cycles

  Exact polarizability: 209.720  15.403 171.337  -0.002 -10.568 124.159
 Approx polarizability: 306.360  29.251 263.341 -14.168 -31.613 199.337

                      1                      2                      3
                      A                      A                      A
 Frequencies --     31.4964                45.8149                57.5330
 Red. masses --      4.4542                 3.4460                 2.7712
 Frc consts  --      0.0026                 0.0043                 0.0054
 IR Inten    --      3.3629                 0.0943                 0.5137

                      4                      5                      6
                      A                      A                      A
 Frequencies --     70.0970                75.3250                89.4731
 Red. masses --      2.7651                 4.0994                 3.7372
 Frc consts  --      0.0080                 0.0137                 0.0176
 IR Inten    --      0.3706                 0.4490                 0.1838

                      7                      8                      9
                      A                      A                      A
 Frequencies --    115.8336               178.6672               186.7517
 Red. masses --      3.5858                 3.7481                 2.3864
 Frc consts  --      0.0283                 0.0705                 0.0490
 IR Inten    --      0.4919                 0.0452                 0.7727

                     10                     11                     12
                      A                      A                      A
 Frequencies --    228.6098               238.9325               244.9825
 Red. masses --      3.2781                 2.1462                 1.3565
 Frc consts  --      0.1009                 0.0722                 0.0480
 IR Inten    --      3.0662                 0.3138                 0.3579

                     13                     14                     15
                      A                      A                      A
 Frequencies --    251.3035               270.7579               290.3491
 Red. masses --      1.1830                 2.5077                 3.5894
 Frc consts  --      0.0440                 0.1083                 0.1783
 IR Inten    --      0.5136                 1.5205                 1.3653

                     16                     17                     18
                      A                      A                      A
 Frequencies --    341.1816               359.1773               398.0454
 Red. masses --      3.4854                 2.8435                 3.8754
 Frc consts  --      0.2390                 0.2161                 0.3618
 IR Inten    --      0.3317                 1.3371                 0.9147

                     19                     20                     21
                      A                      A                      A
 Frequencies --    434.3802               492.3624               511.2934
 Red. masses --      3.4141                 3.7497                 3.6591
 Frc consts  --      0.3796                 0.5356                 0.5636
 IR Inten    --      2.4705                 1.2225                15.6733

                     22                     23                     24
                      A                      A                      A
 Frequencies --    562.5075               572.9769               589.7911
 Red. masses --      3.0882                 2.7949                 2.5363
 Frc consts  --      0.5757                 0.5406                 0.5198
 IR Inten    --      7.4706                 0.6243                 0.7282

                     25                     26                     27
                      A                      A                      A
 Frequencies --    645.0428               658.2526               667.0999
 Red. masses --      4.2557                 3.0643                 4.0312
 Frc consts  --      1.0433                 0.7823                 1.0570
 IR Inten    --      0.0185                 3.4949                 1.8095

                     28                     29                     30
                      A                      A                      A
 Frequencies --    734.2586               764.5743               771.5947
 Red. masses --      2.0889                 2.0214                 2.2847
 Frc consts  --      0.6636                 0.6962                 0.8014
 IR Inten    --      5.0200                10.5005                 4.1216

                     31                     32                     33
                      A                      A                      A
 Frequencies --    782.4381               800.0150               810.3462
 Red. masses --      1.7339                 1.9129                 1.2188
 Frc consts  --      0.6254                 0.7213                 0.4715
 IR Inten    --     16.2004                 8.5580                 3.1606

                     34                     35                     36
                      A                      A                      A
 Frequencies --    844.1335               887.2378               899.6275
 Red. masses --      2.1225                 1.4153                 2.2487
 Frc consts  --      0.8911                 0.6564                 1.0723
 IR Inten    --      2.2786                 0.8476                 0.3723

                     37                     38                     39
                      A                      A                      A
 Frequencies --    925.5972               931.8287               936.4306
 Red. masses --      1.8777                 1.4753                 2.1834
 Frc consts  --      0.9478                 0.7548                 1.1281
 IR Inten    --      8.3362                 6.7221                 1.7321

                     40                     41                     42
                      A                      A                      A
 Frequencies --    949.1748               954.4694               974.9227
 Red. masses --      2.3305                 1.4162                 1.4222
 Frc consts  --      1.2370                 0.7602                 0.7964
 IR Inten    --      1.5024                 0.6121                 1.6792

                     43                     44                     45
                      A                      A                      A
 Frequencies --    986.2427              1016.5730              1026.4446
 Red. masses --      1.2713                 2.0577                 3.2926
 Frc consts  --      0.7286                 1.2529                 2.0439
 IR Inten    --      0.2023                19.1507                 1.6219

                     46                     47                     48
                      A                      A                      A
 Frequencies --   1040.9608              1047.3819              1054.7151
 Red. masses --      2.0728                 2.0525                 1.8626
 Frc consts  --      1.3233                 1.3266                 1.2208
 IR Inten    --      1.2732                 1.9005                 8.9528

                     49                     50                     51
                      A                      A                      A
 Frequencies --   1089.9384              1098.7255              1130.8216
 Red. masses --      2.2102                 1.8131                 1.8507
 Frc consts  --      1.5470                 1.2896                 1.3944
 IR Inten    --      1.7616                 5.6321                 3.0508

                     52                     53                     54
                      A                      A                      A
 Frequencies --   1139.5756              1156.8150              1201.6861
 Red. masses --      2.0892                 1.7908                 1.1024
 Frc consts  --      1.5985                 1.4119                 0.9379
 IR Inten    --      0.8733                 1.6137                 0.0745

                     55                     56                     57
                      A                      A                      A
 Frequencies --   1211.7572              1233.8242              1255.9473
 Red. masses --      1.3377                 1.9717                 1.4244
 Frc consts  --      1.1573                 1.7684                 1.3238
 IR Inten    --      1.0559                 6.3280                 4.2856

                     58                     59                     60
                      A                      A                      A
 Frequencies --   1264.7376              1271.4306              1272.1276
 Red. masses --      1.8947                 1.3166                 1.2706
 Frc consts  --      1.7856                 1.2540                 1.2115
 IR Inten    --      0.1609                 0.0776                 0.4797

                     61                     62                     63
                      A                      A                      A
 Frequencies --   1288.9623              1291.8188              1299.5219
 Red. masses --      3.1969                 1.5203                 1.4082
 Frc consts  --      3.1294                 1.4948                 1.4011
 IR Inten    --    179.2468                 6.1985                 1.2161

                     64                     65                     66
                      A                      A                      A
 Frequencies --   1316.7054              1318.6164              1332.0454
 Red. masses --      1.3064                 1.5943                 3.5188
 Frc consts  --      1.3345                 1.6333                 3.6786
 IR Inten    --     12.9168                 5.8957                 2.0716

                     67                     68                     69
                      A                      A                      A
 Frequencies --   1354.5365              1380.9904              1390.9014
 Red. masses --      1.4541                 1.6697                 1.5738
 Frc consts  --      1.5719                 1.8761                 1.7939
 IR Inten    --      7.4242                 9.9700                 5.2744

                     70                     71                     72
                      A                      A                      A
 Frequencies --   1413.5854              1435.1070              1488.5582
 Red. masses --      1.3323                 1.2229                 2.1605
 Frc consts  --      1.5686                 1.4839                 2.8206
 IR Inten    --     40.4583                 2.8130                 5.6018

                     73                     74                     75
                      A                      A                      A
 Frequencies --   1494.0246              1510.0575              1513.6900
 Red. masses --      1.0622                 1.0849                 1.0549
 Frc consts  --      1.3970                 1.4575                 1.4240
 IR Inten    --     10.6309                 0.9137                 8.3381

                     76                     77                     78
                      A                      A                      A
 Frequencies --   1517.2222              1526.1475              1530.0476
 Red. masses --      1.0829                 1.0548                 1.0473
 Frc consts  --      1.4687                 1.4475                 1.4446
 IR Inten    --      2.2088                 5.9530                 5.1495

                     79                     80                     81
                      A                      A                      A
 Frequencies --   1532.1306              1542.5068              1546.4309
 Red. masses --      2.4592                 1.1356                 1.1116
 Frc consts  --      3.4012                 1.5919                 1.5662
 IR Inten    --      7.9938                 6.7473                 5.9911

                     82                     83                     84
                      A                      A                      A
 Frequencies --   1625.3420              1659.1379              1684.1356
 Red. masses --      5.5001                 5.4932                 7.6578
 Frc consts  --      8.5607                 8.9093                12.7970
 IR Inten    --      3.9689                 1.6248                89.5587

                     85                     86                     87
                      A                      A                      A
 Frequencies --   1749.5279              3056.4607              3057.1310
 Red. masses --      9.6948                 1.0388                 1.0359
 Frc consts  --     17.4836                 5.7176                 5.7042
 IR Inten    --    218.9036                 5.7524                19.3855

                     88                     89                     90
                      A                      A                      A
 Frequencies --   3057.7057              3066.2540              3066.8742
 Red. masses --      1.0817                 1.0719                 1.0587
 Frc consts  --      5.9585                 5.9378                 5.8670
 IR Inten    --      3.4590                12.8363                37.0443

                     91                     92                     93
                      A                      A                      A
 Frequencies --   3074.8405              3084.5482              3114.4135
 Red. masses --      1.0599                 1.0613                 1.1072
 Frc consts  --      5.9041                 5.9493                 6.3275
 IR Inten    --     47.1976                22.6779                19.8438

                     94                     95                     96
                      A                      A                      A
 Frequencies --   3123.8401              3127.3428              3127.9013
 Red. masses --      1.0974                 1.1030                 1.1073
 Frc consts  --      6.3093                 6.3561                 6.3828
 IR Inten    --      9.1550                13.1777                55.1522

                     97                     98                     99
                      A                      A                      A
 Frequencies --   3129.8099              3145.4986              3161.6962
 Red. masses --      1.1012                 1.1073                 1.1018
 Frc consts  --      6.3555                 6.4549                 6.4891
 IR Inten    --     16.2962                40.1071                29.1335

                    100                    101                    102
                      A                      A                      A
 Frequencies --   3172.0224              3184.4716              3188.9530
 Red. masses --      1.0901                 1.0848                 1.0880
 Frc consts  --      6.4624                 6.4814                 6.5188
 IR Inten    --     18.2372                 0.4468                 8.1493

                    103                    104                    105
                      A                      A                      A
 Frequencies --   3193.7078              3205.5311              3214.1566
 Red. masses --      1.0888                 1.0924                 1.0967
 Frc consts  --      6.5430                 6.6132                 6.6751
 IR Inten    --     10.6351                30.1157                24.2548

 - Thermochemistry -
 -------------------
 Temperature   298.150 Kelvin.  Pressure   1.00000 Atm.
 Atom     1 has atomic number  6 and mass  12.00000

 Molecular mass:   228.15142 amu.
 Principal axes and moments of inertia in atomic units:
                           1         2         3
     Eigenvalues --  3187.082824872.465376238.28186
           X            0.99926  -0.02979   0.02445
           Y            0.03001   0.99951  -0.00836
           Z           -0.02419   0.00908   0.99967
 This molecule is an asymmetric top.
 Rotational symmetry number  1.
 Warning -- assumption of classical behavior for rotation
           may cause significant error
 Rotational temperatures (Kelvin)      0.02718     0.01778     0.01388
 Rotational constants (GHZ):           0.56627     0.37040     0.28930
 Zero-point vibrational energy     845576.2 (Joules/Mol)
                                  202.09756 (Kcal/Mol)
 Warning -- explicit consideration of  24 degrees of freedom as
           vibrations may cause significant error
 Vibrational temperatures:     45.32    65.92    82.78   100.85   108.38
          (Kelvin)            128.73   166.66   257.06   268.69   328.92
                              343.77   352.48   361.57   389.56   417.75
                              490.88   516.78   572.70   624.98   708.40
                              735.64   809.32   824.39   848.58   928.07
                              947.08   959.81  1056.43  1100.05  1110.15
                             1125.75  1151.04  1165.91  1214.52  1276.54
                             1294.36  1331.73  1340.69  1347.31  1365.65
                             1373.27  1402.70  1418.98  1462.62  1476.82
                             1497.71  1506.95  1517.50  1568.18  1580.82
                             1627.00  1639.60  1664.40  1728.96  1743.45
                             1775.20  1807.03  1819.68  1829.31  1830.31
                             1854.53  1858.64  1869.72  1894.45  1897.19
                             1916.52  1948.88  1986.94  2001.20  2033.83
                             2064.80  2141.70  2149.57  2172.64  2177.86
                             2182.94  2195.79  2201.40  2204.39  2219.32
                             2224.97  2338.50  2387.13  2423.10  2517.18
                             4397.57  4398.53  4399.36  4411.66  4412.55
                             4424.01  4437.98  4480.95  4494.51  4499.55
                             4500.35  4503.10  4525.67  4548.98  4563.83
                             4581.74  4588.19  4595.03  4612.04  4624.45

 Zero-point correction=                           0.322063 (Hartree/Particle)
 Thermal correction to Energy=                    0.338741
 Thermal correction to Enthalpy=                  0.339685
 Thermal correction to Gibbs Free Energy=         0.276875
 Sum of electronic and zero-point Energies=           -696.682382
 Sum of electronic and thermal Energies=              -696.665705
 Sum of electronic and thermal Enthalpies=            -696.664761
 Sum of electronic and thermal Free Energies=         -696.727571

                     E (Thermal)             CV                S
                      KCal/Mol        Cal/Mol-Kelvin    Cal/Mol-Kelvin
 Total                  212.563             63.783            132.195
 Electronic               0.000              0.000              0.000
 Translational            0.889              2.981             42.177
 Rotational               0.889              2.981             32.938
 Vibrational            210.786             57.822             57.081
 Vibration     1          0.594              1.983              5.733
 Vibration     2          0.595              1.979              4.990
 Vibration     3          0.596              1.974              4.540
 Vibration     4          0.598              1.968              4.151
 Vibration     5          0.599              1.965              4.009
 Vibration     6          0.602              1.957              3.672
 Vibration     7          0.608              1.936              3.169
 Vibration     8          0.629              1.869              2.342
 Vibration     9          0.632              1.858              2.260
 Vibration    10          0.651              1.797              1.890
 Vibration    11          0.657              1.781              1.811
 Vibration    12          0.660              1.771              1.766
 Vibration    13          0.663              1.761              1.721
 Vibration    14          0.674              1.727              1.591
 Vibration    15          0.686              1.692              1.472
 Vibration    16          0.721              1.593              1.207
 Vibration    17          0.734              1.556              1.126
 Vibration    18          0.764              1.474              0.970
 Vibration    19          0.795              1.395              0.844
 Vibration    20          0.848              1.267              0.677
 Vibration    21          0.866              1.225              0.630
 Vibration    22          0.918              1.112              0.519
 Vibration    23          0.929              1.090              0.499
 Vibration    24          0.947              1.054              0.468

                           ! Non-Optimized Parameters !
 Normal termination of Gaussian 16 at Fri Dec 11 12:53:05 2020.

 ----------------------------------------------------------------------
 # B3LYP/6-311++G(d,p) empiricaldispersion=gd3bj scf=xqc pop=npa geom=c
 heck
 ----------------------------------------------------------------------

 ---------------------------------------
 CID_123608732_JID_7495_Energie_neutraal
 ---------------------------------------
 Structure from the checkpoint file:  "JID_7495.chk"
 Charge =  0 Multiplicity = 1

 SCF Done:  E(RB3LYP) =  -697.189647199     A.U. after   16 cycles
 Normal termination of Gaussian 16 at Fri Dec 11 13:02:14 2020.

 ----------------------------------------------------------------------
 # B3LYP/6-311++G(d,p) empiricaldispersion=gd3bj scf=xqc pop=npa geom=c
 heck
 ----------------------------------------------------------------------

 -------------------------------------
 CID_123608732_JID_7495_Energie_kation
 -------------------------------------
 Structure from the checkpoint file:  "JID_7495.chk"
 Charge =  1 Multiplicity = 2

 SCF Done:  E(UB3LYP) =  -696.886419239     A.U. after   30 cycles
 Normal termination of Gaussian 16 at Fri Dec 11 13:26:12 2020.
 Gaussian 16:  ES64L-G16RevA.03 25-Dec-2016

 ----------------------------------------------------------------------
 # B3LYP/6-311++G(d,p) empiricaldispersion=gd3bj scf=xqc pop=npa geom=c
 heck
 ----------------------------------------------------------------------

 ------------------------------------
 CID_123608732_JID_7495_Energie_anion
 ------------------------------------
 Structure from the checkpoint file:  "JID_7495.chk"
 Charge = -1 Multiplicity = 2

                         Standard orientation:
 ---------------------------------------------------------------------
 Center     Atomic      Atomic             Coordinates (Angstroms)
 Number     Number       Type             X           Y           Z
 ---------------------------------------------------------------------
      1          6           0        0.996238   -0.971765    2.524829
      2          6           0        1.304368   -1.700050    1.206517
      3          6           0        0.775802   -0.968125   -0.007665
      4          6           0        1.511430   -0.310241   -0.931152
      5          6           0        2.956366    0.007476   -1.015227
      6          8           0        3.366353    0.546263   -2.037334
      7          6           0        3.927323   -0.262195    0.123553
      8          6           0       -0.707052   -1.024984   -0.190964
      9          6           0       -1.323768   -2.286185   -0.218357
     10          6           0       -2.692335   -2.428653   -0.426721
     11          6           0       -3.476766   -1.290810   -0.597506
     12          6           0       -2.881198   -0.031957   -0.553175
     13          6           0       -1.505093    0.134842   -0.350535
     14          6           0       -0.946530    1.540139   -0.309963
     15          6           0       -1.897979    2.737016   -0.022376
     16          6           0       -0.734772    3.422042    0.735971
     17          6           0       -0.069774    2.031768    0.881215
     18          1           0        1.335172   -1.567171    3.379084
     19          1           0       -0.079696   -0.801414    2.631755
     20          1           0        1.495847    0.001363    2.565619
     21          1           0        2.374299   -1.885216    1.124376
     22          1           0        0.825940   -2.685816    1.243893
     23          1           0        0.988396    0.097541   -1.792067
     24          1           0        3.522503    0.039951    1.094277
     25          1           0        4.170413   -1.330011    0.179865
     26          1           0        4.847363    0.288888   -0.081140
     27          1           0       -0.711426   -3.176379   -0.108514
     28          1           0       -3.137364   -3.418902   -0.459146
     29          1           0       -4.547160   -1.378556   -0.761177
     30          1           0       -3.501685    0.849382   -0.680191
     31          1           0       -0.405945    1.751528   -1.239790
     32          1           0       -2.340940    3.256575   -0.877730
     33          1           0       -2.696645    2.449194    0.669518
     34          1           0       -0.980471    3.967141    1.651857
     35          1           0       -0.153801    4.078941    0.080620
     36          1           0       -0.368121    1.539887    1.812042
     37          1           0        1.014935    1.963063    0.774854
 ---------------------------------------------------------------------

 SCF Done:  E(UB3LYP) =  -697.202706177     A.U. after   28 cycles

 The electronic state is 2-A.
 Alpha  occ. eigenvalues --  -18.91957 -10.07202 -10.06377 -10.06221 -10.06076
 Alpha  occ. eigenvalues --  -10.05136 -10.04994 -10.04868 -10.04775 -10.04419
 Alpha  occ. eigenvalues --  -10.04400 -10.04289 -10.04277 -10.04127 -10.03088
 Alpha  occ. eigenvalues --  -10.01816  -9.99829  -0.86044  -0.74770  -0.72427
 Alpha  occ. eigenvalues --   -0.67729  -0.63275  -0.62119  -0.60394  -0.57725
 Alpha  occ. eigenvalues --   -0.55114  -0.54598  -0.50931  -0.48349  -0.47442
 Alpha  occ. eigenvalues --   -0.43710  -0.42827  -0.39001  -0.37352  -0.36525
 Alpha  occ. eigenvalues --   -0.34941  -0.33625  -0.33029  -0.31877  -0.31657
 Alpha  occ. eigenvalues --   -0.29795  -0.29148  -0.28727  -0.28330  -0.27823
 Alpha  occ. eigenvalues --   -0.25859  -0.25401  -0.25246  -0.24044  -0.23909
 Alpha  occ. eigenvalues --   -0.23568  -0.22866  -0.21427  -0.21032  -0.20590
 Alpha  occ. eigenvalues --   -0.20033  -0.19562  -0.18152  -0.14052  -0.12499
 Alpha  occ. eigenvalues --   -0.09789  -0.08339   0.04202
 Alpha virt. eigenvalues --    0.07526   0.08207   0.08297   0.09517   0.09637
 Alpha virt. eigenvalues --    0.10165   0.10541   0.10944   0.11346   0.11705
 Alpha virt. eigenvalues --    0.12204   0.12538   0.13068   0.13454   0.13859

  Beta  occ. eigenvalues --  -18.91431 -10.06979 -10.06377 -10.06220 -10.06085
  Beta  occ. eigenvalues --  -10.05127 -10.04883 -10.04878 -10.04809 -10.04375
  Beta  occ. eigenvalues --  -10.04242 -10.04241 -10.04210 -10.04149 -10.03107
  Beta  occ. eigenvalues --  -10.01406  -9.99725  -0.85122  -0.74668  -0.72284
  Beta  occ. eigenvalues --   -0.67290  -0.63111  -0.61955  -0.60030  -0.57466
  Beta  occ. eigenvalues --   -0.55091  -0.54552  -0.50644  -0.48027  -0.47352
  Beta  occ. eigenvalues --   -0.43654  -0.42372  -0.38761  -0.37319  -0.36186
  Beta  occ. eigenvalues --   -0.34841  -0.33507  -0.32888  -0.31663  -0.31532
  Beta  occ. eigenvalues --   -0.29389  -0.29050  -0.28552  -0.28172  -0.27791
  Beta  occ. eigenvalues --   -0.25635  -0.25211  -0.24999  -0.24006  -0.23619
  Beta  occ. eigenvalues --   -0.23279  -0.22778  -0.21081  -0.20939  -0.19957
  Beta  occ. eigenvalues --   -0.19633  -0.18550  -0.17940  -0.13055  -0.11997
  Beta  occ. eigenvalues --   -0.08103  -0.07851
  Beta virt. eigenvalues --    0.07492   0.08063   0.08218   0.09481   0.09578
  Beta virt. eigenvalues --    0.09940   0.10196   0.10546   0.11036   0.11434
  Beta virt. eigenvalues --    0.12066   0.12474   0.12843   0.13289   0.13674

 Mulliken charges and spin densities:
               1          2
     1  C   -0.386483  -0.150955
     2  C   -0.527847   0.034101
     3  C    1.017798   0.187298
     4  C   -0.559130   0.031676
     5  C   -0.312536   0.177648
     6  O   -0.380956   0.171262
     7  C   -0.429806  -0.019411
     8  C    0.138291   0.116362
     9  C   -0.507137   0.110452
    10  C   -0.199549  -0.108054
    11  C   -0.519679   0.105615
    12  C   -0.246071  -0.016579
    13  C    0.250091   0.079590
    14  C    0.870980  -0.028142
    15  C   -0.510464  -0.022168
    16  C   -0.521368   0.032824
    17  C   -0.479126  -0.022686
    18  H   -0.030536   0.163210
    19  H    0.130059  -0.008845
    20  H    0.123908   0.001621
    21  H    0.086981   0.030829
    22  H    0.066683   0.052270
    23  H    0.188847  -0.007966
    24  H    0.080990   0.023882
    25  H    0.133621  -0.000169
    26  H    0.138229   0.005242
    27  H    0.100978   0.024482
    28  H    0.105626   0.016607
    29  H    0.123932  -0.009578
    30  H    0.116529   0.003552
    31  H    0.180908   0.004380
    32  H    0.128354   0.006530
    33  H    0.110820   0.001024
    34  H    0.122252   0.004728
    35  H    0.140875   0.001163
    36  H    0.124520  -0.000286
    37  H    0.129415   0.008492
 Sum of Mulliken charges =  -1.00000   1.00000

 Dipole moment (field-independent basis, Debye):
    X=             -4.8433    Y=              1.0066    Z=              4.0683  Tot=              6.4048
 Quadrupole moment (field-independent basis, Debye-Ang):
   XX=           -149.3467   YY=           -120.3682   ZZ=           -130.7025
   XY=             -6.5675   XZ=             13.8543   YZ=              2.9128

 Summary of Natural Population Analysis:

                                       Natural Population
                Natural  -----------------------------------------------
    Atom  No    Charge         Core      Valence    Rydberg      Total
 -----------------------------------------------------------------------
      C    1   -0.28003      0.99966     2.27431    0.00606     3.28003
      C    2   -0.20561      0.99960     2.19762    0.00839     3.20561
      C    3    0.07037      0.99948     1.91814    0.01202     2.92963
      C    4   -0.12710      0.99944     2.11548    0.01219     3.12710
      C    5    0.27965      0.99966     1.70128    0.01940     2.72035
      O    6   -0.25682      0.99988     3.24951    0.00742     4.25682
      C    7   -0.32948      0.99964     2.32586    0.00398     3.32948
      C    8   -0.00846      0.99945     1.99668    0.01232     3.00846
      C    9   -0.08257      0.99952     2.07521    0.00784     3.08257
      C   10   -0.11570      0.99957     2.10714    0.00899     3.11570
      C   11   -0.08235      0.99957     2.07352    0.00926     3.08235
      C   12   -0.11487      0.99953     2.10781    0.00753     3.11487
      C   13    0.00670      0.99946     1.98297    0.01088     2.99330
      C   14   -0.11457      0.99958     2.10373    0.01126     3.11457
      C   15   -0.18724      0.99964     2.18135    0.00625     3.18724
      C   16   -0.19082      0.99966     2.18521    0.00595     3.19082
      C   17   -0.18052      0.99963     2.17409    0.00679     3.18052
      H   18    0.09052      0.00000     0.40833    0.00115     0.40948
      H   19    0.09753      0.00000     0.40164    0.00083     0.40247
      H   20    0.09422      0.00000     0.40483    0.00095     0.40578
      H   21    0.09944      0.00000     0.39893    0.00163     0.40056
      H   22    0.09693      0.00000     0.40175    0.00133     0.40307
      H   23    0.09571      0.00000     0.40303    0.00126     0.40429
      H   24    0.09732      0.00000     0.40065    0.00203     0.40268
      H   25    0.09956      0.00000     0.39880    0.00164     0.40044
      H   26    0.10201      0.00000     0.39665    0.00134     0.39799
      H   27    0.09415      0.00000     0.40442    0.00143     0.40585
      H   28    0.09143      0.00000     0.40718    0.00139     0.40857
      H   29    0.08950      0.00000     0.40949    0.00101     0.41050
      H   30    0.09357      0.00000     0.40515    0.00128     0.40643
      H   31    0.10754      0.00000     0.39098    0.00148     0.39246
      H   32    0.09196      0.00000     0.40718    0.00086     0.40804
      H   33    0.09419      0.00000     0.40463    0.00118     0.40581
      H   34    0.08898      0.00000     0.40999    0.00103     0.41102
      H   35    0.09328      0.00000     0.40563    0.00109     0.40672
      H   36    0.09534      0.00000     0.40363    0.00103     0.40466
      H   37    0.10624      0.00000     0.39294    0.00082     0.39376
 =======================================================================
   * Total *   -0.00000     16.99297    44.82575    0.18128    62.00000

 Normal termination of Gaussian 16 at Fri Dec 11 13:47:49 2020.
