 Gaussian 16, Revision A.03,

 -----------------------------------------------------------
 # opt freq B3LYP/6-31G(d) empiricaldispersion=gd3bj scf=xqc
 -----------------------------------------------------------

 ------------------------------
 CID_89393525_JID_1856_neutraal
 ------------------------------
 Symbolic Z-matrix:
 Charge =  0 Multiplicity = 1

 SCF Done:  E(RB3LYP) =  -517.893788793     A.U. after   14 cycles
 SCF Done:  E(RB3LYP) =  -517.895775499     A.U. after   14 cycles
 SCF Done:  E(RB3LYP) =  -517.894516381     A.U. after   14 cycles
 SCF Done:  E(RB3LYP) =  -517.897658120     A.U. after   13 cycles
 SCF Done:  E(RB3LYP) =  -517.898044771     A.U. after   12 cycles
 SCF Done:  E(RB3LYP) =  -517.898331474     A.U. after   13 cycles
 SCF Done:  E(RB3LYP) =  -517.898682208     A.U. after   13 cycles
 SCF Done:  E(RB3LYP) =  -517.899153542     A.U. after   13 cycles
 SCF Done:  E(RB3LYP) =  -517.899486543     A.U. after   13 cycles
 SCF Done:  E(RB3LYP) =  -517.899757127     A.U. after   13 cycles
 SCF Done:  E(RB3LYP) =  -517.901010982     A.U. after   10 cycles
 SCF Done:  E(RB3LYP) =  -517.901010995     A.U. after    8 cycles
 SCF Done:  E(RB3LYP) =  -517.901010992     A.U. after    7 cycles
 SCF Done:  E(RB3LYP) =  -517.901010988     A.U. after    7 cycles
 Optimization completed.
    -- Stationary point found.
 Normal termination of Gaussian 16 at Tue Dec  8 21:42:36 2020.

 --------------------------------------------------------------------
 #N Geom=AllCheck Guess=TCheck SCRF=Check GenChk RB3LYP/6-31G(d) Freq
 --------------------------------------------------------------------

 Structure from the checkpoint file:  "JID_1856.chk"
 ------------------------------
 CID_89393525_JID_1856_neutraal
 ------------------------------
 Charge =  0 Multiplicity = 1

 SCF Done:  E(RB3LYP) =  -517.901010988     A.U. after    1 cycles

  Exact polarizability: 107.104   1.345  94.117  -7.760   3.336  83.860
 Approx polarizability: 175.203  -8.441 132.633 -16.022   2.342 120.911

                      1                      2                      3
                      A                      A                      A
 Frequencies --     49.6613                78.9322                82.5453
 Red. masses --      5.1000                 4.1042                 3.1397
 Frc consts  --      0.0074                 0.0151                 0.0126
 IR Inten    --      4.7066                 1.4835                 0.6710

                      4                      5                      6
                      A                      A                      A
 Frequencies --    119.3158               123.0594               134.2008
 Red. masses --      1.7226                 1.1367                 1.6630
 Frc consts  --      0.0144                 0.0101                 0.0176
 IR Inten    --      1.0312                 0.5441                 2.7817

                      7                      8                      9
                      A                      A                      A
 Frequencies --    203.9995               209.9065               235.8535
 Red. masses --      3.4589                 3.1868                 2.0851
 Frc consts  --      0.0848                 0.0827                 0.0683
 IR Inten    --      5.0476                 0.8592                 3.0139

                     10                     11                     12
                      A                      A                      A
 Frequencies --    265.1379               298.0189               322.6859
 Red. masses --      1.3142                 2.9093                 3.3141
 Frc consts  --      0.0544                 0.1522                 0.2033
 IR Inten    --      5.5991                19.7930                 7.5216

                     13                     14                     15
                      A                      A                      A
 Frequencies --    358.8807               399.0287               435.1498
 Red. masses --      3.0078                 2.5903                 2.9186
 Frc consts  --      0.2282                 0.2430                 0.3256
 IR Inten    --      0.3966                 2.3596                 5.0332

                     16                     17                     18
                      A                      A                      A
 Frequencies --    461.9337               495.9379               576.6429
 Red. masses --      2.9696                 4.2517                 1.5569
 Frc consts  --      0.3733                 0.6161                 0.3050
 IR Inten    --      1.8238                10.1310                52.6024

                     19                     20                     21
                      A                      A                      A
 Frequencies --    598.4391               651.8560               713.3688
 Red. masses --      2.0802                 3.6359                 4.9523
 Frc consts  --      0.4389                 0.9103                 1.4849
 IR Inten    --     27.6191                 7.4880                 4.7604

                     22                     23                     24
                      A                      A                      A
 Frequencies --    767.5822               769.6547               867.6873
 Red. masses --      2.8349                 1.9615                 2.4447
 Frc consts  --      0.9841                 0.6846                 1.0844
 IR Inten    --     12.7821                18.0952                 2.5366

                     25                     26                     27
                      A                      A                      A
 Frequencies --    978.1869               994.7722              1015.9901
 Red. masses --      1.3886                 1.2801                 1.9357
 Frc consts  --      0.7828                 0.7463                 1.1772
 IR Inten    --      0.5213                 1.1292                 7.9383

                     28                     29                     30
                      A                      A                      A
 Frequencies --   1040.5208              1077.2899              1084.9114
 Red. masses --      2.1760                 1.5064                 2.1186
 Frc consts  --      1.3880                 1.0300                 1.4692
 IR Inten    --     34.5733                 1.6245                11.2077

                     31                     32                     33
                      A                      A                      A
 Frequencies --   1114.3019              1118.2439              1163.8235
 Red. masses --      2.2124                 1.6730                 2.9715
 Frc consts  --      1.6185                 1.2326                 2.3714
 IR Inten    --     14.9006                 2.1147                13.3473

                     34                     35                     36
                      A                      A                      A
 Frequencies --   1185.4598              1265.0802              1276.8003
 Red. masses --      2.0059                 1.7411                 1.7557
 Frc consts  --      1.6608                 1.6418                 1.6864
 IR Inten    --     11.9301                 7.6021                35.8904

                     37                     38                     39
                      A                      A                      A
 Frequencies --   1332.3566              1394.1220              1418.6624
 Red. masses --      2.0015                 1.9623                 1.2728
 Frc consts  --      2.0934                 2.2471                 1.5092
 IR Inten    --     68.5030                68.1936                13.0958

                     40                     41                     42
                      A                      A                      A
 Frequencies --   1430.5006              1437.1016              1450.6333
 Red. masses --      1.3351                 1.2438                 1.2035
 Frc consts  --      1.6097                 1.5135                 1.4922
 IR Inten    --      4.8344                 7.9570                 4.8124

                     43                     44                     45
                      A                      A                      A
 Frequencies --   1482.5054              1502.4772              1508.3855
 Red. masses --      1.5631                 1.1104                 1.0619
 Frc consts  --      2.0241                 1.4769                 1.4235
 IR Inten    --     13.9914                19.7678                 4.1846

                     46                     47                     48
                      A                      A                      A
 Frequencies --   1510.3584              1515.6542              1528.7943
 Red. masses --      1.0524                 1.1004                 1.0648
 Frc consts  --      1.4144                 1.4894                 1.4663
 IR Inten    --      2.2820                32.7414                 8.4100

                     49                     50                     51
                      A                      A                      A
 Frequencies --   1531.1714              1533.2869              1729.7941
 Red. masses --      1.0905                 1.0543                 6.6588
 Frc consts  --      1.5063                 1.4604                11.7392
 IR Inten    --      8.3470                 9.8259                38.0397

                     52                     53                     54
                      A                      A                      A
 Frequencies --   1774.2494              1822.9851              2945.1924
 Red. masses --      8.3912                 9.8574                 1.0860
 Frc consts  --     15.5633                19.3009                 5.5501
 IR Inten    --    322.7620               124.6809                67.7991

                     55                     56                     57
                      A                      A                      A
 Frequencies --   3033.3241              3039.5590              3043.2064
 Red. masses --      1.0423                 1.0440                 1.0576
 Frc consts  --      5.6505                 5.6828                 5.7708
 IR Inten    --      7.5660                40.2847                22.0693

                     58                     59                     60
                      A                      A                      A
 Frequencies --   3044.2389              3083.1481              3088.6505
 Red. masses --      1.0525                 1.0983                 1.0981
 Frc consts  --      5.7467                 6.1513                 6.1723
 IR Inten    --     17.9967                 4.0800                33.3073

                     61                     62                     63
                      A                      A                      A
 Frequencies --   3089.8307              3105.8962              3149.0736
 Red. masses --      1.0984                 1.0902                 1.0981
 Frc consts  --      6.1786                 6.1961                 6.4159
 IR Inten    --     18.1037                11.6473                14.2631

                     64                     65                     66
                      A                      A                      A
 Frequencies --   3158.4499              3174.8549              3592.6498
 Red. masses --      1.0990                 1.0938                 1.0762
 Frc consts  --      6.4595                 6.4960                 8.1841
 IR Inten    --     10.2020                27.2412                22.5549

 - Thermochemistry -
 -------------------
 Temperature   298.150 Kelvin.  Pressure   1.00000 Atm.
 Atom     1 has atomic number  6 and mass  12.00000

 Molecular mass:   155.09463 amu.
 Principal axes and moments of inertia in atomic units:
                           1         2         3
     Eigenvalues --  1509.182921698.190382261.85815
           X            0.95497   0.29419  -0.03852
           Y           -0.29238   0.95517   0.04645
           Z            0.05045  -0.03310   0.99818
 This molecule is an asymmetric top.
 Rotational symmetry number  1.
 Warning -- assumption of classical behavior for rotation
           may cause significant error
 Rotational temperatures (Kelvin)      0.05739     0.05100     0.03829
 Rotational constants (GHZ):           1.19584     1.06274     0.79790
 Zero-point vibrational energy     532254.3 (Joules/Mol)
                                  127.21183 (Kcal/Mol)
 Warning -- explicit consideration of  19 degrees of freedom as
           vibrations may cause significant error
 Vibrational temperatures:     71.45   113.57   118.76   171.67   177.06
          (Kelvin)            193.09   293.51   302.01   339.34   381.47
                              428.78   464.27   516.35   574.11   626.08
                              664.62   713.54   829.66   861.02   937.88
                             1026.38  1104.38  1107.36  1248.41  1407.39
                             1431.26  1461.78  1497.08  1549.98  1560.95
                             1603.23  1608.90  1674.48  1705.61  1820.17
                             1837.03  1916.96  2005.83  2041.14  2058.17
                             2067.67  2087.14  2132.99  2161.73  2170.23
                             2173.07  2180.69  2199.59  2203.01  2206.06
                             2488.79  2552.75  2622.87  4237.48  4364.28
                             4373.25  4378.50  4379.98  4435.96  4443.88
                             4445.58  4468.69  4530.81  4544.30  4567.91
                             5169.02

 Zero-point correction=                           0.202725 (Hartree/Particle)
 Thermal correction to Energy=                    0.215509
 Thermal correction to Enthalpy=                  0.216453
 Thermal correction to Gibbs Free Energy=         0.163862
 Sum of electronic and zero-point Energies=           -517.698286
 Sum of electronic and thermal Energies=              -517.685502
 Sum of electronic and thermal Enthalpies=            -517.684558
 Sum of electronic and thermal Free Energies=         -517.737149

                     E (Thermal)             CV                S
                      KCal/Mol        Cal/Mol-Kelvin    Cal/Mol-Kelvin
 Total                  135.234             45.601            110.688
 Electronic               0.000              0.000              0.000
 Translational            0.889              2.981             41.026
 Rotational               0.889              2.981             30.140
 Vibrational            133.456             39.639             39.522
 Vibration     1          0.595              1.978              4.831
 Vibration     2          0.600              1.963              3.917
 Vibration     3          0.600              1.961              3.829
 Vibration     4          0.609              1.933              3.111
 Vibration     5          0.610              1.930              3.052
 Vibration     6          0.613              1.919              2.885
 Vibration     7          0.640              1.834              2.097
 Vibration     8          0.642              1.826              2.044
 Vibration     9          0.655              1.786              1.834
 Vibration    10          0.671              1.737              1.628
 Vibration    11          0.691              1.677              1.428
 Vibration    12          0.708              1.630              1.296
 Vibration    13          0.734              1.557              1.127
 Vibration    14          0.765              1.472              0.966
 Vibration    15          0.796              1.394              0.842
 Vibration    16          0.820              1.334              0.760
 Vibration    17          0.852              1.259              0.668
 Vibration    18          0.933              1.082              0.492
 Vibration    19          0.956              1.035              0.452

 Optimization completed.
    -- Stationary point found.
 Normal termination of Gaussian 16 at Tue Dec  8 21:49:02 2020.

 ----------------------------------------------------------------------
 # B3LYP/6-311++G(d,p) empiricaldispersion=gd3bj scf=xqc pop=npa geom=c
 heck
 ----------------------------------------------------------------------

 --------------------------------------
 CID_89393525_JID_1856_Energie_neutraal
 --------------------------------------
 Structure from the checkpoint file:  "JID_1856.chk"
 Charge =  0 Multiplicity = 1

 SCF Done:  E(RB3LYP) =  -518.058003755     A.U. after   15 cycles
 Normal termination of Gaussian 16 at Tue Dec  8 21:51:50 2020.

 ----------------------------------------------------------------------
 # B3LYP/6-311++G(d,p) empiricaldispersion=gd3bj scf=xqc pop=npa geom=c
 heck
 ----------------------------------------------------------------------

 ------------------------------------
 CID_89393525_JID_1856_Energie_kation
 ------------------------------------
 Structure from the checkpoint file:  "JID_1856.chk"
 Charge =  1 Multiplicity = 2

 SCF Done:  E(UB3LYP) =  -517.735324437     A.U. after   33 cycles
 SCF Done:  E(UB3LYP) =  -517.735324437     a.u. after    1 cycles
 Normal termination of Gaussian 16 at Tue Dec  8 21:59:35 2020.
 Gaussian 16:  ES64L-G16RevA.03 25-Dec-2016

 ----------------------------------------------------------------------
 # B3LYP/6-311++G(d,p) empiricaldispersion=gd3bj scf=xqc pop=npa geom=c
 heck
 ----------------------------------------------------------------------

 -----------------------------------
 CID_89393525_JID_1856_Energie_anion
 -----------------------------------
 Structure from the checkpoint file:  "JID_1856.chk"
 Charge = -1 Multiplicity = 2

                         Standard orientation:
 ---------------------------------------------------------------------
 Center     Atomic      Atomic             Coordinates (Angstroms)
 Number     Number       Type             X           Y           Z
 ---------------------------------------------------------------------
      1          6           0        0.866277    0.435686   -1.885011
      2          6           0        0.746016    1.042503   -0.509981
      3          6           0       -0.356990    0.919852    0.256261
      4          6           0       -0.612836    1.615826    1.571455
      5          6           0       -1.559133    0.120401   -0.175780
      6          8           0       -2.665027    0.631228   -0.307040
      7          7           0       -1.403868   -1.243618   -0.299608
      8          6           0       -0.189415   -2.031328   -0.228329
      9          6           0        0.761320   -1.607993    0.883292
     10          8           0        1.962602   -1.735009    0.800105
     11          6           0        1.993340    1.765960   -0.076659
     12          1           0        1.677416   -0.305169   -1.907152
     13          1           0       -0.055359   -0.035835   -2.232124
     14          1           0        1.134380    1.214756   -2.609670
     15          1           0       -1.538352    2.195211    1.487583
     16          1           0       -0.765286    0.891391    2.382748
     17          1           0        0.195064    2.285847    1.866495
     18          1           0       -2.262686   -1.714247   -0.557657
     19          1           0       -0.483210   -3.065465   -0.000731
     20          1           0        0.374062   -2.057481   -1.167862
     21          1           0        0.267730   -1.251339    1.811152
     22          1           0        2.324357    2.473380   -0.846902
     23          1           0        1.886858    2.308552    0.863057
     24          1           0        2.800027    1.030523    0.052320
 ---------------------------------------------------------------------

 SCF Done:  E(UB3LYP) =  -518.048664822     A.U. after   33 cycles
 SCF Done:  E(UB3LYP) =  -518.048664822     a.u. after    1 cycles

 The electronic state is 2-A.
 Alpha  occ. eigenvalues --  -18.96642 -18.96175 -14.21141 -10.15172 -10.09356
 Alpha  occ. eigenvalues --  -10.07747 -10.06950 -10.06549 -10.06191 -10.06172
 Alpha  occ. eigenvalues --  -10.05788  -0.91791  -0.89700  -0.79643  -0.71409
 Alpha  occ. eigenvalues --   -0.64014  -0.59955  -0.59144  -0.54907  -0.48816
 Alpha  occ. eigenvalues --   -0.44574  -0.40447  -0.37967  -0.37382  -0.34210
 Alpha  occ. eigenvalues --   -0.33689  -0.32115  -0.31363  -0.30576  -0.29420
 Alpha  occ. eigenvalues --   -0.28607  -0.28513  -0.28185  -0.26972  -0.26198
 Alpha  occ. eigenvalues --   -0.25823  -0.23509  -0.22856  -0.14637  -0.13696
 Alpha  occ. eigenvalues --   -0.12626  -0.11237   0.05790
 Alpha virt. eigenvalues --    0.07494   0.08720   0.09213   0.10100   0.10356
 Alpha virt. eigenvalues --    0.11516   0.11876   0.12277   0.12703   0.13748
 Alpha virt. eigenvalues --    0.14115   0.15041   0.15613   0.15919   0.16501

  Beta  occ. eigenvalues --  -18.96629 -18.95886 -14.21075 -10.15162 -10.08978
  Beta  occ. eigenvalues --  -10.07762 -10.06787 -10.06585 -10.06186 -10.06181
  Beta  occ. eigenvalues --  -10.05798  -0.91763  -0.89110  -0.79537  -0.71263
  Beta  occ. eigenvalues --   -0.63977  -0.59691  -0.59107  -0.54842  -0.48561
  Beta  occ. eigenvalues --   -0.43990  -0.40260  -0.37792  -0.37280  -0.34106
  Beta  occ. eigenvalues --   -0.33489  -0.31892  -0.31235  -0.30505  -0.29190
  Beta  occ. eigenvalues --   -0.28571  -0.28283  -0.28050  -0.26814  -0.26088
  Beta  occ. eigenvalues --   -0.25613  -0.23422  -0.21481  -0.14490  -0.13545
  Beta  occ. eigenvalues --   -0.12292  -0.11004
  Beta virt. eigenvalues --    0.07492   0.08803   0.09780   0.09987   0.10658
  Beta virt. eigenvalues --    0.11538   0.12037   0.12487   0.12840   0.13086
  Beta virt. eigenvalues --    0.13783   0.14461   0.15167   0.15608   0.16061

 Mulliken charges and spin densities:
               1          2
     1  C   -0.240472  -0.346802
     2  C    0.423750   0.244370
     3  C    0.711249  -0.592381
     4  C   -0.180104  -0.213325
     5  C   -0.883785   0.569622
     6  O   -0.359404   0.017546
     7  N   -0.207570  -0.054044
     8  C    1.175778  -1.369230
     9  C   -0.266843   0.356727
    10  O   -0.311998   0.103048
    11  C   -0.654527  -0.020606
    12  H    0.151112   0.020163
    13  H    0.134295   0.054639
    14  H    0.118778   0.014295
    15  H    0.164900   0.014545
    16  H    0.120505   0.017060
    17  H    0.111992  -0.004966
    18  H   -0.404842   0.754035
    19  H   -1.195025   1.410887
    20  H    0.137064   0.045449
    21  H    0.099250  -0.064062
    22  H    0.075177   0.041079
    23  H    0.103293   0.000140
    24  H    0.177426   0.001812
 Sum of Mulliken charges =  -1.00000   1.00000

 Dipole moment (field-independent basis, Debye):
    X=              4.0097    Y=              8.3062    Z=              1.0406  Tot=              9.2819
 Quadrupole moment (field-independent basis, Debye-Ang):
   XX=           -110.2439   YY=           -117.4118   ZZ=            -80.2850
   XY=             -3.6835   XZ=             -7.7410   YZ=             -0.7951

 Summary of Natural Population Analysis:

                                       Natural Population
                Natural  -----------------------------------------------
    Atom  No    Charge         Core      Valence    Rydberg      Total
 -----------------------------------------------------------------------
      C    1   -0.30196      0.99961     2.29686    0.00549     3.30196
      C    2    0.04015      0.99939     1.95203    0.00843     2.95985
      C    3   -0.07585      0.99938     2.06462    0.01184     3.07585
      C    4   -0.28968      0.99963     2.28554    0.00451     3.28968
      C    5    0.33770      0.99959     1.63845    0.02426     2.66230
      O    6   -0.33072      0.99988     3.32498    0.00587     4.33072
      N    7   -0.31165      0.99967     2.79882    0.01316     3.81165
      C    8   -0.14188      0.99959     2.12794    0.01436     3.14188
      C    9    0.26616      0.99974     1.71305    0.02105     2.73384
      O   10   -0.27462      0.99987     3.26825    0.00649     4.27462
      C   11   -0.29642      0.99960     2.29223    0.00458     3.29642
      H   12    0.10790      0.00000     0.39112    0.00098     0.39210
      H   13    0.10712      0.00000     0.39214    0.00073     0.39288
      H   14    0.09891      0.00000     0.40011    0.00097     0.40109
      H   15    0.10918      0.00000     0.38967    0.00114     0.39082
      H   16    0.10017      0.00000     0.39866    0.00117     0.39983
      H   17    0.09600      0.00000     0.40318    0.00082     0.40400
      H   18    0.19995      0.00000     0.29091    0.00914     0.30005
      H   19    0.12131      0.00000     0.36710    0.01159     0.37869
      H   20    0.09638      0.00000     0.40212    0.00150     0.40362
      H   21    0.03576      0.00000     0.46167    0.00257     0.46424
      H   22    0.09619      0.00000     0.40268    0.00113     0.40381
      H   23    0.09739      0.00000     0.40181    0.00080     0.40261
      H   24    0.11254      0.00000     0.38644    0.00103     0.38746
 =======================================================================
   * Total *    0.00004     10.99594    30.85040    0.15362    41.99996

 Normal termination of Gaussian 16 at Tue Dec  8 22:06:52 2020.
