 Gaussian 16, Revision A.03,

 -----------------------------------------------------------
 # opt freq B3LYP/6-31G(d) empiricaldispersion=gd3bj scf=xqc
 -----------------------------------------------------------

 ------------------------------
 CID_67602211_JID_6034_neutraal
 ------------------------------
 Symbolic Z-matrix:
 Charge =  0 Multiplicity = 1

 SCF Done:  E(RB3LYP) =  -798.732656021     A.U. after   14 cycles
 SCF Done:  E(RB3LYP) =  -798.740639738     A.U. after   13 cycles
 SCF Done:  E(RB3LYP) =  -798.734218815     A.U. after   13 cycles
 SCF Done:  E(RB3LYP) =  -798.740767612     A.U. after   13 cycles
 SCF Done:  E(RB3LYP) =  -798.744204359     A.U. after   12 cycles
 SCF Done:  E(RB3LYP) =  -798.744756102     A.U. after   12 cycles
 SCF Done:  E(RB3LYP) =  -798.745138249     A.U. after   11 cycles
 SCF Done:  E(RB3LYP) =  -798.745381428     A.U. after   12 cycles
 SCF Done:  E(RB3LYP) =  -798.745474106     A.U. after   11 cycles
 SCF Done:  E(RB3LYP) =  -798.745485023     A.U. after    9 cycles
 SCF Done:  E(RB3LYP) =  -798.745494363     A.U. after    9 cycles
 SCF Done:  E(RB3LYP) =  -798.745495540     A.U. after    9 cycles
 SCF Done:  E(RB3LYP) =  -798.745495824     A.U. after    8 cycles
 SCF Done:  E(RB3LYP) =  -798.745495986     A.U. after    7 cycles
 SCF Done:  E(RB3LYP) =  -798.745496020     A.U. after    7 cycles
 Optimization completed.
    -- Stationary point found.
 Normal termination of Gaussian 16 at Thu Dec 10 21:16:37 2020.

 --------------------------------------------------------------------
 #N Geom=AllCheck Guess=TCheck SCRF=Check GenChk RB3LYP/6-31G(d) Freq
 --------------------------------------------------------------------

 Structure from the checkpoint file:  "JID_6034.chk"
 ------------------------------
 CID_67602211_JID_6034_neutraal
 ------------------------------
 Charge =  0 Multiplicity = 1

 SCF Done:  E(RB3LYP) =  -798.745496020     A.U. after    1 cycles

  Exact polarizability: 164.642   8.722 127.631 -14.929   5.258  87.390
 Approx polarizability: 219.920  12.120 225.041 -31.387  22.852 136.801

                      1                      2                      3
                      A                      A                      A
 Frequencies --     22.1799                33.7928                48.6535
 Red. masses --      4.3507                 6.6204                 7.0473
 Frc consts  --      0.0013                 0.0045                 0.0098
 IR Inten    --      2.5531                 0.4471                 0.0067

                      4                      5                      6
                      A                      A                      A
 Frequencies --     85.3177               117.6956               171.5305
 Red. masses --      7.3411                 4.1931                 4.9657
 Frc consts  --      0.0315                 0.0342                 0.0861
 IR Inten    --      1.2579                 1.7679                 0.8067

                      7                      8                      9
                      A                      A                      A
 Frequencies --    188.3551               237.2320               257.3396
 Red. masses --      5.7328                 3.8263                 4.5430
 Frc consts  --      0.1198                 0.1269                 0.1773
 IR Inten    --      6.2259                 0.1022                 1.8449

                     10                     11                     12
                      A                      A                      A
 Frequencies --    275.4697               304.4259               338.0682
 Red. masses --      2.6337                 1.5193                 2.3123
 Frc consts  --      0.1177                 0.0830                 0.1557
 IR Inten    --     25.5883                37.7008                 2.3379

                     13                     14                     15
                      A                      A                      A
 Frequencies --    353.8891               409.7329               432.0986
 Red. masses --      4.4571                 3.3333                 1.1327
 Frc consts  --      0.3289                 0.3297                 0.1246
 IR Inten    --      0.6863                17.4973                29.5699

                     16                     17                     18
                      A                      A                      A
 Frequencies --    444.2776               501.4965               517.3545
 Red. masses --      3.8198                 4.2084                 2.7727
 Frc consts  --      0.4442                 0.6236                 0.4372
 IR Inten    --     10.2322                16.6041                 6.2823

                     19                     20                     21
                      A                      A                      A
 Frequencies --    533.6484               547.0846               555.9919
 Red. masses --      2.7325                 3.9897                 4.5765
 Frc consts  --      0.4585                 0.7036                 0.8335
 IR Inten    --     58.3892                16.7383                 4.2945

                     22                     23                     24
                      A                      A                      A
 Frequencies --    587.9486               616.0881               642.9718
 Red. masses --      3.7400                 3.6520                 3.6333
 Frc consts  --      0.7617                 0.8167                 0.8850
 IR Inten    --      1.4239                19.3000                 2.2431

                     25                     26                     27
                      A                      A                      A
 Frequencies --    693.5724               697.7125               708.3414
 Red. masses --      2.7637                 2.2583                 3.6943
 Frc consts  --      0.7833                 0.6477                 1.0921
 IR Inten    --     26.8823                77.8379                60.7547

                     28                     29                     30
                      A                      A                      A
 Frequencies --    751.5627               758.5955               789.9224
 Red. masses --      5.4847                 5.3607                 1.4135
 Frc consts  --      1.8253                 1.8176                 0.5197
 IR Inten    --     18.4604                47.0891                25.6815

                     31                     32                     33
                      A                      A                      A
 Frequencies --    817.9998               819.0795               841.4905
 Red. masses --      1.6643                 2.5150                 1.8587
 Frc consts  --      0.6561                 0.9941                 0.7755
 IR Inten    --    165.6292                56.9614               217.0444

                     34                     35                     36
                      A                      A                      A
 Frequencies --    889.8101               901.3027               914.2685
 Red. masses --      3.6412                 1.2560                 5.9023
 Frc consts  --      1.6986                 0.6011                 2.9068
 IR Inten    --      2.3405                 1.8571               222.3709

                     37                     38                     39
                      A                      A                      A
 Frequencies --    953.0514               983.7564               995.8265
 Red. masses --      2.8216                 1.9850                 2.4105
 Frc consts  --      1.5100                 1.1318                 1.4084
 IR Inten    --     89.8916                23.5073                30.1330

                     40                     41                     42
                      A                      A                      A
 Frequencies --   1053.1436              1093.0391              1158.6748
 Red. masses --      2.7860                 2.4636                 1.7411
 Frc consts  --      1.8206                 1.7342                 1.3772
 IR Inten    --     28.8861                49.3371                63.6669

                     43                     44                     45
                      A                      A                      A
 Frequencies --   1173.1962              1178.6227              1220.6558
 Red. masses --      1.7049                 2.3073                 1.6670
 Frc consts  --      1.3826                 1.8884                 1.4635
 IR Inten    --    188.6946               115.0491               126.5038

                     46                     47                     48
                      A                      A                      A
 Frequencies --   1227.9518              1257.8338              1270.9299
 Red. masses --      1.7611                 1.5001                 1.7797
 Frc consts  --      1.5646                 1.3983                 1.6938
 IR Inten    --      4.8815                78.9519                48.5250

                     49                     50                     51
                      A                      A                      A
 Frequencies --   1278.8349              1303.2451              1335.4406
 Red. masses --      1.8876                 1.7906                 1.8031
 Frc consts  --      1.8188                 1.7919                 1.8946
 IR Inten    --     17.3429                59.4107                46.5105

                     52                     53                     54
                      A                      A                      A
 Frequencies --   1345.9250              1374.4904              1386.2842
 Red. masses --      2.0616                 1.5192                 1.5878
 Frc consts  --      2.2004                 1.6911                 1.7978
 IR Inten    --     91.6214                 8.3839                23.0846

                     55                     56                     57
                      A                      A                      A
 Frequencies --   1413.8645              1440.6650              1466.7897
 Red. masses --      4.0249                 2.0352                 1.3883
 Frc consts  --      4.7405                 2.4887                 1.7598
 IR Inten    --     45.9978                49.6697                77.7396

                     58                     59                     60
                      A                      A                      A
 Frequencies --   1488.3323              1523.7911              1533.6396
 Red. masses --      1.1199                 1.1795                 3.9032
 Frc consts  --      1.4616                 1.6136                 5.4090
 IR Inten    --     18.5852                13.1938               130.4985

                     61                     62                     63
                      A                      A                      A
 Frequencies --   1541.1898              1656.0305              1686.3766
 Red. masses --      3.4346                 7.3011                 1.2667
 Frc consts  --      4.8066                11.7972                 2.1225
 IR Inten    --     88.0760                 2.2911                30.6319

                     64                     65                     66
                      A                      A                      A
 Frequencies --   1691.4966              1722.9160              1825.8270
 Red. masses --      1.9562                 1.6656                 8.8165
 Frc consts  --      3.2976                 2.9130                17.3167
 IR Inten    --     52.9378               117.4077               240.2552

                     67                     68                     69
                      A                      A                      A
 Frequencies --   3039.3091              3063.1558              3095.1683
 Red. masses --      1.0688                 1.0665                 1.0896
 Frc consts  --      5.8170                 5.8960                 6.1503
 IR Inten    --     20.1988                36.6351                77.7418

                     70                     71                     72
                      A                      A                      A
 Frequencies --   3106.1029              3122.0331              3174.8502
 Red. masses --      1.0948                 1.0955                 1.0888
 Frc consts  --      6.2231                 6.2910                 6.4660
 IR Inten    --      1.1415                12.8808                16.5687

                     73                     74                     75
                      A                      A                      A
 Frequencies --   3232.2056              3488.6430              3506.5098
 Red. masses --      1.0932                 1.0492                 1.0512
 Frc consts  --      6.7291                 7.5237                 7.6156
 IR Inten    --      6.1886                 4.5211               136.1339

                     76                     77                     78
                      A                      A                      A
 Frequencies --   3583.6804              3615.2295              3679.6774
 Red. masses --      1.0936                 1.0943                 1.0639
 Frc consts  --      8.2750                 8.4269                 8.4873
 IR Inten    --      3.1878                62.7427                46.8066

 - Thermochemistry -
 -------------------
 Temperature   298.150 Kelvin.  Pressure   1.00000 Atm.
 Atom     1 has atomic number  6 and mass  12.00000

 Molecular mass:   224.07971 amu.
 Principal axes and moments of inertia in atomic units:
                           1         2         3
     Eigenvalues --  1584.319996177.426596762.04044
           X            0.99995   0.00861  -0.00454
           Y           -0.00867   0.99986  -0.01402
           Z            0.00441   0.01406   0.99989
 This molecule is an asymmetric top.
 Rotational symmetry number  1.
 Warning -- assumption of classical behavior for rotation
           may cause significant error
 Rotational temperatures (Kelvin)      0.05467     0.01402     0.01281
 Rotational constants (GHZ):           1.13913     0.29215     0.26689
 Zero-point vibrational energy     586736.5 (Joules/Mol)
                                  140.23340 (Kcal/Mol)
 Warning -- explicit consideration of  23 degrees of freedom as
           vibrations may cause significant error
 Vibrational temperatures:     31.91    48.62    70.00   122.75   169.34
          (Kelvin)            246.79   271.00   341.32   370.25   396.34
                              438.00   486.40   509.17   589.51   621.69
                              639.22   721.54   744.36   767.80   787.13
                              799.95   845.93   886.41   925.09   997.90
                             1003.85  1019.15  1081.33  1091.45  1136.52
                             1176.92  1178.47  1210.72  1280.24  1296.77
                             1315.43  1371.23  1415.41  1432.77  1515.24
                             1572.64  1667.07  1687.97  1695.78  1756.25
                             1766.75  1809.74  1828.58  1839.96  1875.08
                             1921.40  1936.49  1977.59  1994.55  2034.24
                             2072.80  2110.38  2141.38  2192.40  2206.57
                             2217.43  2382.66  2426.32  2433.69  2478.89
                             2626.96  4372.89  4407.20  4453.26  4468.99
                             4491.91  4567.90  4650.42  5019.38  5045.09
                             5156.12  5201.51  5294.24

 Zero-point correction=                           0.223476 (Hartree/Particle)
 Thermal correction to Energy=                    0.237830
 Thermal correction to Enthalpy=                  0.238774
 Thermal correction to Gibbs Free Energy=         0.180639
 Sum of electronic and zero-point Energies=           -798.522020
 Sum of electronic and thermal Energies=              -798.507666
 Sum of electronic and thermal Enthalpies=            -798.506722
 Sum of electronic and thermal Free Energies=         -798.564857

                     E (Thermal)             CV                S
                      KCal/Mol        Cal/Mol-Kelvin    Cal/Mol-Kelvin
 Total                  149.240             55.405            122.355
 Electronic               0.000              0.000              0.000
 Translational            0.889              2.981             42.123
 Rotational               0.889              2.981             32.559
 Vibrational            147.463             49.443             47.673
 Vibration     1          0.593              1.985              6.429
 Vibration     2          0.594              1.983              5.593
 Vibration     3          0.595              1.978              4.871
 Vibration     4          0.601              1.959              3.765
 Vibration     5          0.608              1.935              3.138
 Vibration     6          0.626              1.878              2.419
 Vibration     7          0.633              1.856              2.244
 Vibration     8          0.656              1.784              1.824
 Vibration     9          0.667              1.750              1.680
 Vibration    10          0.677              1.719              1.562
 Vibration    11          0.695              1.665              1.392
 Vibration    12          0.718              1.599              1.221
 Vibration    13          0.730              1.567              1.149
 Vibration    14          0.774              1.449              0.928
 Vibration    15          0.793              1.400              0.852
 Vibration    16          0.804              1.374              0.813
 Vibration    17          0.857              1.247              0.654
 Vibration    18          0.872              1.212              0.616
 Vibration    19          0.889              1.176              0.579
 Vibration    20          0.902              1.146              0.550
 Vibration    21          0.911              1.127              0.532
 Vibration    22          0.945              1.057              0.471
 Vibration    23          0.976              0.998              0.423

 Optimization completed.
    -- Stationary point found.
 Normal termination of Gaussian 16 at Thu Dec 10 21:25:03 2020.

 ----------------------------------------------------------------------
 # B3LYP/6-311++G(d,p) empiricaldispersion=gd3bj scf=xqc pop=npa geom=c
 heck
 ----------------------------------------------------------------------

 --------------------------------------
 CID_67602211_JID_6034_Energie_neutraal
 --------------------------------------
 Structure from the checkpoint file:  "JID_6034.chk"
 Charge =  0 Multiplicity = 1

 SCF Done:  E(RB3LYP) =  -798.992028654     A.U. after   15 cycles
 Normal termination of Gaussian 16 at Thu Dec 10 21:28:34 2020.

 ----------------------------------------------------------------------
 # B3LYP/6-311++G(d,p) empiricaldispersion=gd3bj scf=xqc pop=npa geom=c
 heck
 ----------------------------------------------------------------------

 ------------------------------------
 CID_67602211_JID_6034_Energie_kation
 ------------------------------------
 Structure from the checkpoint file:  "JID_6034.chk"
 Charge =  1 Multiplicity = 2

 SCF Done:  E(UB3LYP) =  -798.718875101     A.U. after   29 cycles
 Normal termination of Gaussian 16 at Thu Dec 10 21:39:33 2020.
 Gaussian 16:  ES64L-G16RevA.03 25-Dec-2016

 ----------------------------------------------------------------------
 # B3LYP/6-311++G(d,p) empiricaldispersion=gd3bj scf=xqc pop=npa geom=c
 heck
 ----------------------------------------------------------------------

 -----------------------------------
 CID_67602211_JID_6034_Energie_anion
 -----------------------------------
 Structure from the checkpoint file:  "JID_6034.chk"
 Charge = -1 Multiplicity = 2

                         Standard orientation:
 ---------------------------------------------------------------------
 Center     Atomic      Atomic             Coordinates (Angstroms)
 Number     Number       Type             X           Y           Z
 ---------------------------------------------------------------------
      1          6           0        0.219192    1.983306   -0.277353
      2          6           0       -1.060567    2.123029    0.279377
      3          6           0       -1.811231    0.962179    0.356043
      4          6           0       -1.318187   -0.250650   -0.087652
      5          6           0       -0.054449   -0.415422   -0.640773
      6          6           0        0.732706    0.763998   -0.734923
      7          6           0        2.118449    0.725087   -1.345361
      8          6           0        3.254967    0.770835   -0.311811
      9          6           0        3.388385   -0.489806    0.508337
     10          8           0        3.002483   -1.599495    0.193615
     11          8           0        4.054615   -0.271659    1.662534
     12          7           0        0.364662   -1.656809   -1.123424
     13          8           0       -2.260409   -1.246407    0.101400
     14          6           0       -3.426471   -0.618595    0.636549
     15          8           0       -3.079764    0.785680    0.851333
     16          7           0       -4.516202   -0.818623   -0.247656
     17          1           0        0.843459    2.868955   -0.372026
     18          1           0       -1.441820    3.077133    0.623286
     19          1           0        2.234104   -0.160904   -1.976343
     20          1           0        2.242869    1.593241   -2.002964
     21          1           0        4.223123    0.914364   -0.813406
     22          1           0        3.132733    1.617692    0.370429
     23          1           0        4.127450   -1.138724    2.104992
     24          1           0       -0.254255   -2.408602   -0.841648
     25          1           0        1.329956   -1.869843   -0.884378
     26          1           0       -3.666911   -1.042319    1.616571
     27          1           0       -5.369829   -0.430344    0.146632
     28          1           0       -4.332263   -0.361335   -1.139237
 ---------------------------------------------------------------------

 SCF Done:  E(UB3LYP) =  -798.981401498     A.U. after   33 cycles
 SCF Done:  E(UB3LYP) =  -798.981401498     a.u. after    1 cycles

 The electronic state is 2-A.
 Alpha  occ. eigenvalues --  -19.07564 -19.07459 -19.06870 -19.02527 -14.22448
 Alpha  occ. eigenvalues --  -14.21538 -10.22730 -10.21431 -10.13628 -10.12946
 Alpha  occ. eigenvalues --  -10.12133 -10.09174 -10.08375 -10.08172 -10.07899
 Alpha  occ. eigenvalues --  -10.07820  -1.03661  -1.01863  -0.94198  -0.92885
 Alpha  occ. eigenvalues --   -0.82977  -0.81491  -0.74972  -0.70800  -0.65284
 Alpha  occ. eigenvalues --   -0.64179  -0.58992  -0.56134  -0.52940  -0.51984
 Alpha  occ. eigenvalues --   -0.49027  -0.45714  -0.45152  -0.42833  -0.41549
 Alpha  occ. eigenvalues --   -0.41278  -0.39980  -0.39129  -0.37862  -0.37160
 Alpha  occ. eigenvalues --   -0.36600  -0.34284  -0.32513  -0.32063  -0.31648
 Alpha  occ. eigenvalues --   -0.30201  -0.29365  -0.28961  -0.28089  -0.27704
 Alpha  occ. eigenvalues --   -0.26367  -0.25686  -0.23870  -0.23401  -0.20883
 Alpha  occ. eigenvalues --   -0.19638  -0.19084  -0.11902  -0.11390   0.04033
 Alpha virt. eigenvalues --    0.05234   0.06556   0.07628   0.07951   0.08694
 Alpha virt. eigenvalues --    0.08875   0.09373   0.09906   0.10211   0.10444
 Alpha virt. eigenvalues --    0.10739   0.12143   0.12328   0.13931   0.14235

  Beta  occ. eigenvalues --  -19.07509 -19.07450 -19.06868 -19.02497 -14.22403
  Beta  occ. eigenvalues --  -14.21529 -10.22717 -10.21389 -10.13619 -10.12945
  Beta  occ. eigenvalues --  -10.12125 -10.09137 -10.08363 -10.08172 -10.07889
  Beta  occ. eigenvalues --  -10.07820  -1.03647  -1.01767  -0.94187  -0.92806
  Beta  occ. eigenvalues --   -0.82942  -0.81443  -0.74953  -0.70748  -0.65231
  Beta  occ. eigenvalues --   -0.64153  -0.58916  -0.56086  -0.52899  -0.51963
  Beta  occ. eigenvalues --   -0.48934  -0.45686  -0.45106  -0.42810  -0.41499
  Beta  occ. eigenvalues --   -0.41203  -0.39946  -0.39049  -0.37793  -0.37135
  Beta  occ. eigenvalues --   -0.36542  -0.34253  -0.32460  -0.32029  -0.31595
  Beta  occ. eigenvalues --   -0.30148  -0.29323  -0.28926  -0.28069  -0.27682
  Beta  occ. eigenvalues --   -0.26342  -0.25650  -0.23818  -0.23315  -0.20855
  Beta  occ. eigenvalues --   -0.19588  -0.19043  -0.11874  -0.11355
  Beta virt. eigenvalues --    0.06306   0.06740   0.07565   0.07872   0.08368
  Beta virt. eigenvalues --    0.08917   0.09196   0.09575   0.09949   0.10524
  Beta virt. eigenvalues --    0.10861   0.11080   0.12352   0.12510   0.13883

 Mulliken charges and spin densities:
               1          2
     1  C   -0.256307  -0.062800
     2  C   -0.313615  -0.222504
     3  C    0.440956  -0.280225
     4  C   -0.784204   0.385777
     5  C   -1.475813   0.342931
     6  C    1.965179  -0.218976
     7  C    0.061501  -0.308463
     8  C    1.309153  -1.575941
     9  C   -0.074929  -0.062086
    10  O   -0.303956  -0.006057
    11  O   -0.204302   0.069734
    12  N   -0.319760  -0.010947
    13  O   -0.176499   0.013752
    14  C    0.395088  -0.611018
    15  O   -0.153275   0.042195
    16  N   -0.153813  -0.089089
    17  H   -0.115412   0.252702
    18  H    0.004794   0.157240
    19  H    0.141714   0.077018
    20  H   -0.012984   0.188401
    21  H   -0.805202   0.997001
    22  H    0.173174   0.047596
    23  H   -0.418792   0.704778
    24  H    0.190159   0.071849
    25  H    0.273635  -0.008368
    26  H   -0.138177   0.353246
    27  H   -0.337170   0.600511
    28  H    0.088858   0.151744
 Sum of Mulliken charges =  -1.00000   1.00000

 Dipole moment (field-independent basis, Debye):
    X=             -2.4358    Y=              1.1213    Z=             -0.9021  Tot=              2.8291
 Quadrupole moment (field-independent basis, Debye-Ang):
   XX=           -205.3319   YY=           -122.3946   ZZ=           -124.1996
   XY=             -2.4159   XZ=             -3.5381   YZ=              2.9992

 Summary of Natural Population Analysis:

                                       Natural Population
                Natural  -----------------------------------------------
    Atom  No    Charge         Core      Valence    Rydberg      Total
 -----------------------------------------------------------------------
      C    1   -0.09405      0.99954     2.08641    0.00811     3.09405
      C    2   -0.14223      0.99953     2.13354    0.00916     3.14223
      C    3    0.13587      0.99933     1.85230    0.01250     2.86413
      C    4    0.10830      0.99928     1.88075    0.01167     2.89170
      C    5    0.07198      0.99941     1.91845    0.01016     2.92802
      C    6   -0.04322      0.99949     2.03420    0.00953     3.04322
      C    7   -0.19996      0.99960     2.18900    0.01135     3.19996
      C    8   -0.23514      0.99957     2.22625    0.00932     3.23514
      C    9    0.42038      0.99971     1.55558    0.02432     2.57962
      O   10   -0.32466      0.99986     3.31778    0.00702     4.32466
      O   11   -0.33988      0.99988     3.33332    0.00669     4.33988
      N   12   -0.40421      0.99971     2.89595    0.00855     3.90421
      O   13   -0.27705      0.99987     3.26902    0.00817     4.27705
      C   14    0.29571      0.99966     1.68241    0.02223     2.70429
      O   15   -0.28306      0.99987     3.27544    0.00775     4.28306
      N   16   -0.41538      0.99974     2.90546    0.01019     3.91538
      H   17    0.09837      0.00000     0.40065    0.00097     0.40163
      H   18    0.10462      0.00000     0.39413    0.00125     0.39538
      H   19    0.10919      0.00000     0.38923    0.00158     0.39081
      H   20    0.10540      0.00000     0.39340    0.00120     0.39460
      H   21    0.12032      0.00000     0.37519    0.00449     0.37968
      H   22    0.11154      0.00000     0.38699    0.00147     0.38846
      H   23    0.24401      0.00000     0.24152    0.01447     0.25599
      H   24    0.18600      0.00000     0.31222    0.00178     0.31400
      H   25    0.20418      0.00000     0.29386    0.00196     0.29582
      H   26    0.07711      0.00000     0.42144    0.00145     0.42289
      H   27    0.18573      0.00000     0.30849    0.00578     0.31427
      H   28    0.18017      0.00000     0.31783    0.00201     0.31983
 =======================================================================
   * Total *    0.00000     15.99404    42.79082    0.21514    59.00000

 Normal termination of Gaussian 16 at Thu Dec 10 21:50:53 2020.
