 Gaussian 16, Revision A.03,

 -----------------------------------------------------------
 # opt freq B3LYP/6-31G(d) empiricaldispersion=gd3bj scf=xqc
 -----------------------------------------------------------

 -------------------------------
 CID_143786994_JID_3017_neutraal
 -------------------------------
 Symbolic Z-matrix:
 Charge =  0 Multiplicity = 1

 SCF Done:  E(RB3LYP) =  -555.606754976     A.U. after   14 cycles
 SCF Done:  E(RB3LYP) =  -555.611346265     A.U. after   12 cycles
 SCF Done:  E(RB3LYP) =  -555.612926796     A.U. after   12 cycles
 SCF Done:  E(RB3LYP) =  -555.613723741     A.U. after   12 cycles
 SCF Done:  E(RB3LYP) =  -555.613877870     A.U. after   11 cycles
 SCF Done:  E(RB3LYP) =  -555.613908734     A.U. after   11 cycles
 SCF Done:  E(RB3LYP) =  -555.613924415     A.U. after   11 cycles
 SCF Done:  E(RB3LYP) =  -555.613934255     A.U. after   10 cycles
 SCF Done:  E(RB3LYP) =  -555.613942948     A.U. after   10 cycles
 SCF Done:  E(RB3LYP) =  -555.613949314     A.U. after   10 cycles
 SCF Done:  E(RB3LYP) =  -555.614649250     A.U. after   10 cycles
 SCF Done:  E(RB3LYP) =  -555.614650813     A.U. after    9 cycles
 SCF Done:  E(RB3LYP) =  -555.614650838     A.U. after    7 cycles
 SCF Done:  E(RB3LYP) =  -555.614651013     A.U. after    7 cycles
 SCF Done:  E(RB3LYP) =  -555.614650911     A.U. after    6 cycles
 Optimization completed.
    -- Stationary point found.
 Normal termination of Gaussian 16 at Wed Dec  9 22:35:49 2020.

 --------------------------------------------------------------------
 #N Geom=AllCheck Guess=TCheck SCRF=Check GenChk RB3LYP/6-31G(d) Freq
 --------------------------------------------------------------------

 Structure from the checkpoint file:  "JID_3017.chk"
 -------------------------------
 CID_143786994_JID_3017_neutraal
 -------------------------------
 Charge =  0 Multiplicity = 1

 SCF Done:  E(RB3LYP) =  -555.614650911     A.U. after    1 cycles

  Exact polarizability: 179.575  -9.182 114.391  12.019   6.798  89.030
 Approx polarizability: 231.187 -16.841 192.950  23.267  17.930 130.307

                      1                      2                      3
                      A                      A                      A
 Frequencies --     15.1940                35.7297                67.2979
 Red. masses --      3.6720                 3.6181                 2.9497
 Frc consts  --      0.0005                 0.0027                 0.0079
 IR Inten    --      0.0985                 0.3050                 0.5711

                      4                      5                      6
                      A                      A                      A
 Frequencies --     83.2684                94.8680               126.1131
 Red. masses --      1.6630                 1.6098                 2.7910
 Frc consts  --      0.0068                 0.0085                 0.0262
 IR Inten    --      1.2990                 1.7473                 0.6086

                      7                      8                      9
                      A                      A                      A
 Frequencies --    150.1792               191.4270               226.8476
 Red. masses --      2.9805                 2.4892                 1.4725
 Frc consts  --      0.0396                 0.0537                 0.0446
 IR Inten    --      0.6244                 0.5967                 1.3455

                     10                     11                     12
                      A                      A                      A
 Frequencies --    292.4503               319.0803               322.0894
 Red. masses --      1.6559                 2.1881                 2.5411
 Frc consts  --      0.0834                 0.1313                 0.1553
 IR Inten    --      2.1246                12.7257                 3.0895

                     13                     14                     15
                      A                      A                      A
 Frequencies --    338.0881               391.6425               406.0522
 Red. masses --      3.4091                 1.6889                 1.8633
 Frc consts  --      0.2296                 0.1526                 0.1810
 IR Inten    --      0.6540                71.1378                23.6932

                     16                     17                     18
                      A                      A                      A
 Frequencies --    433.4549               451.6752               520.4550
 Red. masses --      4.4803                 2.4061                 2.3936
 Frc consts  --      0.4960                 0.2892                 0.3820
 IR Inten    --     10.9672                25.6904                 5.7315

                     19                     20                     21
                      A                      A                      A
 Frequencies --    547.1371               599.5872               662.2244
 Red. masses --      3.7038                 4.1765                 8.5246
 Frc consts  --      0.6533                 0.8846                 2.2026
 IR Inten    --      2.9032                 2.1341                 0.4078

                     22                     23                     24
                      A                      A                      A
 Frequencies --    735.1857               774.8380               778.7857
 Red. masses --      1.2467                 3.8833                 1.9518
 Frc consts  --      0.3970                 1.3736                 0.6974
 IR Inten    --      9.6729                 1.0554                 0.3495

                     25                     26                     27
                      A                      A                      A
 Frequencies --    814.3307               856.4451               889.3027
 Red. masses --      3.8805                 1.6360                 1.6071
 Frc consts  --      1.5161                 0.7070                 0.7489
 IR Inten    --      1.1658                 0.5404                10.2905

                     28                     29                     30
                      A                      A                      A
 Frequencies --    894.7196               917.6379               945.8690
 Red. masses --      2.9114                 2.1801                 1.2875
 Frc consts  --      1.3732                 1.0816                 0.6787
 IR Inten    --      0.4080                 0.6223                 0.3173

                     31                     32                     33
                      A                      A                      A
 Frequencies --    949.2357              1014.4927              1018.6738
 Red. masses --      1.9401                 1.5859                 1.6058
 Frc consts  --      1.0299                 0.9617                 0.9818
 IR Inten    --      0.9651                 2.0160                 0.7715

                     34                     35                     36
                      A                      A                      A
 Frequencies --   1033.2702              1047.9413              1074.2940
 Red. masses --      1.5065                 2.8867                 1.9032
 Frc consts  --      0.9476                 1.8678                 1.2942
 IR Inten    --      0.9551                27.6160                 7.5789

                     37                     38                     39
                      A                      A                      A
 Frequencies --   1075.6230              1123.8691              1151.7769
 Red. masses --      1.5194                 2.4363                 2.0356
 Frc consts  --      1.0357                 1.8131                 1.5911
 IR Inten    --      3.9324                 3.3842                 3.5954

                     40                     41                     42
                      A                      A                      A
 Frequencies --   1169.0377              1232.8978              1246.9916
 Red. masses --      2.3846                 2.5878                 1.2665
 Frc consts  --      1.9201                 2.3176                 1.1603
 IR Inten    --      7.9044                28.8865                 3.4613

                     43                     44                     45
                      A                      A                      A
 Frequencies --   1261.4401              1294.2552              1303.3149
 Red. masses --      1.6161                 1.9397                 1.3971
 Frc consts  --      1.5151                 1.9143                 1.3982
 IR Inten    --     10.6622                19.0212                 5.2168

                     46                     47                     48
                      A                      A                      A
 Frequencies --   1326.1950              1343.5213              1366.1295
 Red. masses --      1.3702                 1.1961                 2.7575
 Frc consts  --      1.4199                 1.2720                 3.0321
 IR Inten    --     25.1414                11.8915                33.7302

                     49                     50                     51
                      A                      A                      A
 Frequencies --   1376.7137              1389.3252              1404.3995
 Red. masses --      1.5863                 1.5350                 1.5781
 Frc consts  --      1.7714                 1.7457                 1.8339
 IR Inten    --     45.2883                 8.8232                10.8338

                     52                     53                     54
                      A                      A                      A
 Frequencies --   1415.3523              1430.2031              1442.8009
 Red. masses --      1.4234                 1.6320                 1.2855
 Frc consts  --      1.6800                 1.9669                 1.5767
 IR Inten    --      1.5004                 6.0771                 2.5286

                     55                     56                     57
                      A                      A                      A
 Frequencies --   1444.8042              1502.7886              1506.8497
 Red. masses --      1.2667                 1.5607                 1.0449
 Frc consts  --      1.5579                 2.0766                 1.3979
 IR Inten    --      5.2234                45.1513                 5.0693

                     58                     59                     60
                      A                      A                      A
 Frequencies --   1511.2121              1521.8012              1525.1200
 Red. masses --      1.0934                 1.0681                 1.1067
 Frc consts  --      1.4712                 1.4574                 1.5167
 IR Inten    --     10.8037                 5.8106                22.8496

                     61                     62                     63
                      A                      A                      A
 Frequencies --   1531.0032              1536.7439              1539.8892
 Red. masses --      1.2057                 1.1792                 1.0619
 Frc consts  --      1.6650                 1.6407                 1.4835
 IR Inten    --      7.7427                32.3313                 6.6176

                     64                     65                     66
                      A                      A                      A
 Frequencies --   1553.3188              1561.7858              1601.4796
 Red. masses --      1.1012                 2.7685                 4.3027
 Frc consts  --      1.5655                 3.9787                 6.5019
 IR Inten    --     64.8431               377.3601                20.6628

                     67                     68                     69
                      A                      A                      A
 Frequencies --   1651.9108              3013.0731              3017.5851
 Red. masses --      5.3813                 1.0737                 1.0666
 Frc consts  --      8.6518                 5.7429                 5.7224
 IR Inten    --    127.7084                50.5353                28.7536

                     70                     71                     72
                      A                      A                      A
 Frequencies --   3039.4363              3046.2882              3050.1938
 Red. masses --      1.0641                 1.0384                 1.0361
 Frc consts  --      5.7917                 5.6776                 5.6797
 IR Inten    --     21.0827                22.9831                36.5466

                     73                     74                     75
                      A                      A                      A
 Frequencies --   3050.4046              3058.0203              3072.5023
 Red. masses --      1.0705                 1.0851                 1.0990
 Frc consts  --      5.8690                 5.9785                 6.1127
 IR Inten    --      4.0983                47.8197                52.0093

                     76                     77                     78
                      A                      A                      A
 Frequencies --   3092.8117              3105.7452              3106.6241
 Red. masses --      1.1023                 1.0898                 1.1013
 Frc consts  --      6.2121                 6.1933                 6.2621
 IR Inten    --     62.1027                20.6694                19.2852

                     79                     80                     81
                      A                      A                      A
 Frequencies --   3111.8354              3119.6060              3130.0074
 Red. masses --      1.1015                 1.1020                 1.1022
 Frc consts  --      6.2843                 6.3187                 6.3620
 IR Inten    --     50.0740                42.8217                15.9458

                     82                     83                     84
                      A                      A                      A
 Frequencies --   3142.8072              3167.4798              3621.2299
 Red. masses --      1.0902                 1.0913                 1.0756
 Frc consts  --      6.3442                 6.4507                 8.3102
 IR Inten    --     40.6420                34.3696                33.3232

 - Thermochemistry -
 -------------------
 Temperature   298.150 Kelvin.  Pressure   1.00000 Atm.
 Atom     1 has atomic number  6 and mass  12.00000

 Molecular mass:   179.14225 amu.
 Principal axes and moments of inertia in atomic units:
                           1         2         3
     Eigenvalues --   850.364586058.575516140.20491
           X            1.00000  -0.00218  -0.00179
           Y            0.00207   0.99826  -0.05888
           Z            0.00192   0.05888   0.99826
 This molecule is an asymmetric top.
 Rotational symmetry number  1.
 Warning -- assumption of classical behavior for rotation
           may cause significant error
 Rotational temperatures (Kelvin)      0.10186     0.01430     0.01411
 Rotational constants (GHZ):           2.12231     0.29788     0.29392
 Zero-point vibrational energy     695676.9 (Joules/Mol)
                                  166.27076 (Kcal/Mol)
 Warning -- explicit consideration of  20 degrees of freedom as
           vibrations may cause significant error
 Vibrational temperatures:     21.86    51.41    96.83   119.80   136.49
          (Kelvin)            181.45   216.07   275.42   326.38   420.77
                              459.09   463.41   486.43   563.49   584.22
                              623.64   649.86   748.82   787.21   862.67
                              952.79  1057.77  1114.82  1120.50  1171.64
                             1232.23  1279.51  1287.30  1320.28  1360.89
                             1365.74  1459.63  1465.64  1486.65  1507.75
                             1545.67  1547.58  1617.00  1657.15  1681.98
                             1773.86  1794.14  1814.93  1862.14  1875.18
                             1908.10  1933.03  1965.56  1980.78  1998.93
                             2020.62  2036.38  2057.74  2075.87  2078.75
                             2162.18  2168.02  2174.30  2189.53  2194.31
                             2202.77  2211.03  2215.56  2234.88  2247.06
                             2304.17  2376.73  4335.14  4341.63  4373.07
                             4382.93  4388.55  4388.85  4399.81  4420.65
                             4449.87  4468.47  4469.74  4477.24  4488.42
                             4503.38  4521.80  4557.30  5210.14

 Zero-point correction=                           0.264969 (Hartree/Particle)
 Thermal correction to Energy=                    0.278857
 Thermal correction to Enthalpy=                  0.279801
 Thermal correction to Gibbs Free Energy=         0.222315
 Sum of electronic and zero-point Energies=           -555.349682
 Sum of electronic and thermal Energies=              -555.335794
 Sum of electronic and thermal Enthalpies=            -555.334850
 Sum of electronic and thermal Free Energies=         -555.392336

                     E (Thermal)             CV                S
                      KCal/Mol        Cal/Mol-Kelvin    Cal/Mol-Kelvin
 Total                  174.985             50.952            120.989
 Electronic               0.000              0.000              0.000
 Translational            0.889              2.981             41.456
 Rotational               0.889              2.981             31.826
 Vibrational            173.208             44.991             47.707
 Vibration     1          0.593              1.986              7.180
 Vibration     2          0.594              1.982              5.483
 Vibration     3          0.598              1.970              4.231
 Vibration     4          0.600              1.961              3.812
 Vibration     5          0.603              1.953              3.557
 Vibration     6          0.611              1.927              3.004
 Vibration     7          0.618              1.902              2.670
 Vibration     8          0.634              1.852              2.214
 Vibration     9          0.651              1.800              1.904
 Vibration    10          0.688              1.688              1.460
 Vibration    11          0.705              1.637              1.315
 Vibration    12          0.707              1.631              1.299
 Vibration    13          0.718              1.599              1.221
 Vibration    14          0.759              1.488              0.994
 Vibration    15          0.771              1.457              0.941
 Vibration    16          0.794              1.397              0.847
 Vibration    17          0.810              1.357              0.791
 Vibration    18          0.875              1.205              0.609
 Vibration    19          0.902              1.146              0.550
 Vibration    20          0.958              1.033              0.450

 Optimization completed.
    -- Stationary point found.
 Normal termination of Gaussian 16 at Wed Dec  9 22:42:05 2020.

 ----------------------------------------------------------------------
 # B3LYP/6-311++G(d,p) empiricaldispersion=gd3bj scf=xqc pop=npa geom=c
 heck
 ----------------------------------------------------------------------

 ---------------------------------------
 CID_143786994_JID_3017_Energie_neutraal
 ---------------------------------------
 Structure from the checkpoint file:  "JID_3017.chk"
 Charge =  0 Multiplicity = 1

 SCF Done:  E(RB3LYP) =  -555.767080301     A.U. after   14 cycles
 Normal termination of Gaussian 16 at Wed Dec  9 22:44:42 2020.

 ----------------------------------------------------------------------
 # B3LYP/6-311++G(d,p) empiricaldispersion=gd3bj scf=xqc pop=npa geom=c
 heck
 ----------------------------------------------------------------------

 -------------------------------------
 CID_143786994_JID_3017_Energie_kation
 -------------------------------------
 Structure from the checkpoint file:  "JID_3017.chk"
 Charge =  1 Multiplicity = 2

 SCF Done:  E(UB3LYP) =  -555.483904640     A.U. after   19 cycles
 Normal termination of Gaussian 16 at Wed Dec  9 22:49:24 2020.
 Gaussian 16:  ES64L-G16RevA.03 25-Dec-2016

 ----------------------------------------------------------------------
 # B3LYP/6-311++G(d,p) empiricaldispersion=gd3bj scf=xqc pop=npa geom=c
 heck
 ----------------------------------------------------------------------

 ------------------------------------
 CID_143786994_JID_3017_Energie_anion
 ------------------------------------
 Structure from the checkpoint file:  "JID_3017.chk"
 Charge = -1 Multiplicity = 2

                         Standard orientation:
 ---------------------------------------------------------------------
 Center     Atomic      Atomic             Coordinates (Angstroms)
 Number     Number       Type             X           Y           Z
 ---------------------------------------------------------------------
      1          6           0        4.364532    1.107907   -1.124781
      2          6           0        3.552709   -0.189160   -1.184225
      3          6           0        3.427897   -0.906422    0.168522
      4          6           0        2.749708   -0.090683    1.283971
      5          6           0        1.374643    0.477259    0.929707
      6          7           0        0.433136   -0.586210    0.607114
      7          6           0       -0.876843   -0.311113    0.303297
      8          7           0       -1.346745    0.918129    0.548733
      9          6           0       -2.642431    1.127252    0.276914
     10          6           0       -3.486815    0.151137   -0.245703
     11          7           0       -3.000588   -1.084330   -0.501594
     12          6           0       -1.727484   -1.311508   -0.231756
     13          6           0       -4.937691    0.406565   -0.548957
     14          1           0        3.878163    1.863057   -0.497627
     15          1           0        4.488813    1.540710   -2.123288
     16          1           0        5.364481    0.927189   -0.711307
     17          1           0        2.552538    0.023219   -1.584836
     18          1           0        4.022964   -0.877372   -1.898334
     19          1           0        2.891861   -1.855443    0.019609
     20          1           0        4.429076   -1.194684    0.516101
     21          1           0        2.657440   -0.718061    2.179477
     22          1           0        3.392744    0.752834    1.560956
     23          1           0        0.971597    1.038850    1.777158
     24          1           0        1.452859    1.194423    0.098525
     25          1           0        0.818965   -1.409285    0.166766
     26          1           0       -3.018187    2.128414    0.482715
     27          1           0       -1.342727   -2.311279   -0.436680
     28          1           0       -5.152117    0.226780   -1.608738
     29          1           0       -5.581106   -0.267390    0.028416
     30          1           0       -5.217326    1.437511   -0.310612
 ---------------------------------------------------------------------

 SCF Done:  E(UB3LYP) =  -555.759352194     A.U. after   33 cycles
 SCF Done:  E(UB3LYP) =  -555.759352194     a.u. after    1 cycles

 The electronic state is 2-A.
 Alpha  occ. eigenvalues --  -14.20939 -14.17495 -14.17123 -10.11630 -10.08941
 Alpha  occ. eigenvalues --  -10.07805 -10.07252 -10.06911 -10.06621 -10.06400
 Alpha  occ. eigenvalues --  -10.06217 -10.06182 -10.05716  -0.85819  -0.81029
 Alpha  occ. eigenvalues --   -0.76065  -0.70132  -0.66264  -0.63988  -0.59137
 Alpha  occ. eigenvalues --   -0.56760  -0.53563  -0.51288  -0.48882  -0.45531
 Alpha  occ. eigenvalues --   -0.42197  -0.39584  -0.37597  -0.35902  -0.35020
 Alpha  occ. eigenvalues --   -0.33625  -0.32663  -0.31766  -0.31679  -0.30233
 Alpha  occ. eigenvalues --   -0.28901  -0.28706  -0.27670  -0.26813  -0.26247
 Alpha  occ. eigenvalues --   -0.25318  -0.22652  -0.22376  -0.22060  -0.20002
 Alpha  occ. eigenvalues --   -0.17819  -0.17090  -0.11792  -0.09273   0.04618
 Alpha virt. eigenvalues --    0.06298   0.07675   0.07731   0.08139   0.09129
 Alpha virt. eigenvalues --    0.09965   0.10447   0.10631   0.10860   0.11642
 Alpha virt. eigenvalues --    0.11748   0.12293   0.12688   0.13183   0.13816

  Beta  occ. eigenvalues --  -14.20930 -14.17147 -14.16841 -10.11660 -10.08939
  Beta  occ. eigenvalues --  -10.07856 -10.07149 -10.06779 -10.06611 -10.06375
  Beta  occ. eigenvalues --  -10.06216 -10.06160 -10.05686  -0.85557  -0.80784
  Beta  occ. eigenvalues --   -0.75576  -0.70080  -0.66145  -0.63943  -0.59044
  Beta  occ. eigenvalues --   -0.56654  -0.53259  -0.51146  -0.48730  -0.45441
  Beta  occ. eigenvalues --   -0.42085  -0.39471  -0.37529  -0.35819  -0.34937
  Beta  occ. eigenvalues --   -0.33533  -0.32435  -0.31690  -0.31612  -0.30181
  Beta  occ. eigenvalues --   -0.28764  -0.28545  -0.27616  -0.26492  -0.26130
  Beta  occ. eigenvalues --   -0.25284  -0.22609  -0.22248  -0.22019  -0.19046
  Beta  occ. eigenvalues --   -0.16892  -0.16666  -0.11448  -0.08760
  Beta virt. eigenvalues --    0.07002   0.07623   0.08215   0.08546   0.09159
  Beta virt. eigenvalues --    0.09477   0.10034   0.10591   0.10731   0.11175
  Beta virt. eigenvalues --    0.11863   0.11995   0.12442   0.12769   0.13345

 Mulliken charges and spin densities:
               1          2
     1  C    0.843639  -1.454228
     2  C   -0.597695   0.438183
     3  C    0.638019  -0.773854
     4  C   -0.306888  -0.129518
     5  C    0.196346  -0.539610
     6  N    0.007471   0.054447
     7  C   -0.113761  -0.185520
     8  N   -0.156812   0.133018
     9  C   -0.225124   0.245938
    10  C    0.006875  -0.133698
    11  N   -0.100203   0.158158
    12  C   -0.258821   0.277751
    13  C   -0.598986  -0.041052
    14  H   -0.066394   0.193656
    15  H   -0.180987   0.314558
    16  H   -0.170474   0.309566
    17  H    0.017926   0.134032
    18  H   -0.547614   0.712462
    19  H   -0.377170   0.510085
    20  H   -0.421658   0.584692
    21  H    0.005448   0.163694
    22  H    0.048154   0.098918
    23  H    0.242873  -0.050470
    24  H    0.184147   0.020254
    25  H    0.544727  -0.306739
    26  H    0.117255   0.014106
    27  H   -0.113491   0.246247
    28  H    0.142814  -0.006800
    29  H    0.121507   0.012147
    30  H    0.118875  -0.000420
 Sum of Mulliken charges =  -1.00000   1.00000

 Dipole moment (field-independent basis, Debye):
    X=             -4.5828    Y=              2.3220    Z=              2.3518  Tot=              5.6502
 Quadrupole moment (field-independent basis, Debye-Ang):
   XX=           -167.1678   YY=           -107.5538   ZZ=           -106.3149
   XY=              0.7214   XZ=              8.1031   YZ=             -1.6775

 Summary of Natural Population Analysis:

                                       Natural Population
                Natural  -----------------------------------------------
    Atom  No    Charge         Core      Valence    Rydberg      Total
 -----------------------------------------------------------------------
      C    1   -0.28790      0.99967     2.28205    0.00618     3.28790
      C    2   -0.19494      0.99964     2.18608    0.00922     3.19494
      C    3   -0.19121      0.99963     2.18203    0.00955     3.19121
      C    4   -0.19573      0.99963     2.18625    0.00985     3.19573
      C    5   -0.08767      0.99962     2.07772    0.01033     3.08767
      N    6   -0.31575      0.99967     2.80645    0.00964     3.81575
      C    7    0.17735      0.99955     1.80799    0.01510     2.82265
      N    8   -0.22009      0.99968     2.71027    0.01014     3.72009
      C    9    0.02569      0.99954     1.96150    0.01327     2.97431
      C   10    0.04367      0.99955     1.94424    0.01255     2.95633
      N   11   -0.18102      0.99968     2.66866    0.01268     3.68102
      C   12    0.01486      0.99957     1.97002    0.01555     2.98514
      C   13   -0.29168      0.99964     2.28731    0.00474     3.29168
      H   14    0.09444      0.00000     0.40455    0.00101     0.40556
      H   15    0.09908      0.00000     0.40000    0.00092     0.40092
      H   16    0.09622      0.00000     0.40265    0.00113     0.40378
      H   17    0.09501      0.00000     0.40365    0.00134     0.40499
      H   18    0.09863      0.00000     0.39947    0.00190     0.40137
      H   19    0.09303      0.00000     0.40523    0.00174     0.40697
      H   20    0.09861      0.00000     0.39986    0.00153     0.40139
      H   21    0.09852      0.00000     0.40040    0.00109     0.40148
      H   22    0.09760      0.00000     0.40154    0.00086     0.40240
      H   23    0.10136      0.00000     0.39703    0.00161     0.39864
      H   24    0.08798      0.00000     0.41000    0.00202     0.41202
      H   25    0.18701      0.00000     0.31002    0.00297     0.31299
      H   26    0.08169      0.00000     0.41708    0.00124     0.41831
      H   27    0.08236      0.00000     0.41567    0.00198     0.41764
      H   28    0.09965      0.00000     0.39919    0.00116     0.40035
      H   29    0.09911      0.00000     0.39971    0.00118     0.40089
      H   30    0.09413      0.00000     0.40503    0.00083     0.40587
 =======================================================================
   * Total *    0.00000     12.99506    35.84165    0.16329    49.00000

 Normal termination of Gaussian 16 at Wed Dec  9 22:57:34 2020.
