 Gaussian 16, Revision A.03,

 -----------------------------------------------------------
 # opt freq B3LYP/6-31G(d) empiricaldispersion=gd3bj scf=xqc
 -----------------------------------------------------------

 -------------------------------
 CID_114797212_JID_2358_neutraal
 -------------------------------
 Symbolic Z-matrix:
 Charge =  0 Multiplicity = 1

 SCF Done:  E(RB3LYP) =  -539.736940154     A.U. after   13 cycles
 SCF Done:  E(RB3LYP) =  -539.740446003     A.U. after   11 cycles
 SCF Done:  E(RB3LYP) =  -539.740375071     A.U. after   11 cycles
 SCF Done:  E(RB3LYP) =  -539.740926435     A.U. after   10 cycles
 SCF Done:  E(RB3LYP) =  -539.741319132     A.U. after   10 cycles
 SCF Done:  E(RB3LYP) =  -539.741464014     A.U. after   11 cycles
 SCF Done:  E(RB3LYP) =  -539.741516451     A.U. after    9 cycles
 SCF Done:  E(RB3LYP) =  -539.741574384     A.U. after   10 cycles
 SCF Done:  E(RB3LYP) =  -539.741604690     A.U. after    9 cycles
 SCF Done:  E(RB3LYP) =  -539.741659601     A.U. after   10 cycles
 SCF Done:  E(RB3LYP) =  -539.741704136     A.U. after    9 cycles
 SCF Done:  E(RB3LYP) =  -539.741708242     A.U. after    9 cycles
 SCF Done:  E(RB3LYP) =  -539.741709170     A.U. after    7 cycles
 SCF Done:  E(RB3LYP) =  -539.741709372     A.U. after    7 cycles
 SCF Done:  E(RB3LYP) =  -539.741709517     A.U. after    7 cycles
 SCF Done:  E(RB3LYP) =  -539.741709520     A.U. after    6 cycles
 Optimization completed.
    -- Stationary point found.
 Normal termination of Gaussian 16 at Wed Dec  9 17:24:09 2020.

 --------------------------------------------------------------------
 #N Geom=AllCheck Guess=TCheck SCRF=Check GenChk RB3LYP/6-31G(d) Freq
 --------------------------------------------------------------------

 Structure from the checkpoint file:  "JID_2358.chk"
 -------------------------------
 CID_114797212_JID_2358_neutraal
 -------------------------------
 Charge =  0 Multiplicity = 1

 SCF Done:  E(RB3LYP) =  -539.741709520     A.U. after    1 cycles

  Exact polarizability: 126.033   2.275 108.179   0.731  -0.622  96.144
 Approx polarizability: 148.805   0.814 152.870  -1.417  -0.868 147.253

                      1                      2                      3
                      A                      A                      A
 Frequencies --     28.3593                55.2627                64.0027
 Red. masses --      2.8831                 4.3700                 3.0694
 Frc consts  --      0.0014                 0.0079                 0.0074
 IR Inten    --      0.2709                 0.8208                 1.0875

                      4                      5                      6
                      A                      A                      A
 Frequencies --     74.9786               102.7228               142.2842
 Red. masses --      2.1618                 3.9527                 3.3252
 Frc consts  --      0.0072                 0.0246                 0.0397
 IR Inten    --      0.4547                 1.9949                 2.4794

                      7                      8                      9
                      A                      A                      A
 Frequencies --    161.9736               198.1351               219.9196
 Red. masses --      2.6448                 1.7540                 2.0731
 Frc consts  --      0.0409                 0.0406                 0.0591
 IR Inten    --      2.2408                25.9666                11.1366

                     10                     11                     12
                      A                      A                      A
 Frequencies --    245.4087               273.9394               296.8667
 Red. masses --      2.5328                 1.7405                 1.5645
 Frc consts  --      0.0899                 0.0770                 0.0812
 IR Inten    --     15.7030                17.3178                25.3180

                     13                     14                     15
                      A                      A                      A
 Frequencies --    323.8722               384.4925               413.7267
 Red. masses --      1.3893                 2.3022                 2.0568
 Frc consts  --      0.0859                 0.2005                 0.2074
 IR Inten    --    103.2181                 5.0221                 7.0837

                     16                     17                     18
                      A                      A                      A
 Frequencies --    428.6574               469.9143               523.1912
 Red. masses --      1.8805                 2.5912                 2.8816
 Frc consts  --      0.2036                 0.3371                 0.4647
 IR Inten    --      4.7183                 6.4045                 1.2226

                     19                     20                     21
                      A                      A                      A
 Frequencies --    594.3332               627.4884               790.2120
 Red. masses --      2.6385                 2.8493                 1.5243
 Frc consts  --      0.5491                 0.6610                 0.5608
 IR Inten    --      0.7713                 2.0598                 3.2092

                     22                     23                     24
                      A                      A                      A
 Frequencies --    816.6771               824.1576               840.1585
 Red. masses --      1.7610                 2.8435                 1.3583
 Frc consts  --      0.6920                 1.1380                 0.5649
 IR Inten    --      3.2568                 3.1392                 5.2212

                     25                     26                     27
                      A                      A                      A
 Frequencies --    865.8951               884.5238               900.9086
 Red. masses --      2.2104                 1.5276                 2.7693
 Frc consts  --      0.9765                 0.7042                 1.3243
 IR Inten    --     41.9945               118.7112                 9.6694

                     28                     29                     30
                      A                      A                      A
 Frequencies --    929.2744               971.2427               988.9118
 Red. masses --      1.8525                 1.9450                 1.6477
 Frc consts  --      0.9425                 1.0810                 0.9494
 IR Inten    --     12.8018                 1.9567                 3.4703

                     31                     32                     33
                      A                      A                      A
 Frequencies --   1001.8310              1011.3515              1035.1431
 Red. masses --      1.5558                 1.6673                 1.8993
 Frc consts  --      0.9200                 1.0048                 1.1990
 IR Inten    --      0.1526                 7.5613                 1.1544

                     34                     35                     36
                      A                      A                      A
 Frequencies --   1068.2443              1089.0859              1108.3353
 Red. masses --      3.0289                 2.6838                 1.8933
 Frc consts  --      2.0364                 1.8755                 1.3703
 IR Inten    --     49.8075                41.8669                20.5083

                     37                     38                     39
                      A                      A                      A
 Frequencies --   1116.0335              1138.9615              1143.9579
 Red. masses --      2.5038                 2.0268                 1.9603
 Frc consts  --      1.8374                 1.5491                 1.5114
 IR Inten    --      3.9275                 7.8681                 8.2831

                     40                     41                     42
                      A                      A                      A
 Frequencies --   1153.8602              1193.8674              1209.4983
 Red. masses --      1.6238                 1.7372                 1.2493
 Frc consts  --      1.2738                 1.4589                 1.0768
 IR Inten    --     14.4458                30.3204                 5.0689

                     43                     44                     45
                      A                      A                      A
 Frequencies --   1216.1299              1229.3529              1251.9970
 Red. masses --      1.3287                 1.3047                 1.2778
 Frc consts  --      1.1578                 1.1617                 1.1801
 IR Inten    --      4.7959                19.0851                 7.8780

                     46                     47                     48
                      A                      A                      A
 Frequencies --   1269.7086              1276.0416              1303.6458
 Red. masses --      1.7265                 1.3761                 1.4481
 Frc consts  --      1.6399                 1.3202                 1.4500
 IR Inten    --     19.5624                 7.7890                 7.1680

                     49                     50                     51
                      A                      A                      A
 Frequencies --   1323.4961              1327.9514              1347.8051
 Red. masses --      1.3813                 1.2352                 1.3757
 Frc consts  --      1.4256                 1.2834                 1.4724
 IR Inten    --      7.4180                 6.1554                10.5448

                     52                     53                     54
                      A                      A                      A
 Frequencies --   1366.4061              1379.3694              1390.3844
 Red. masses --      1.1535                 1.3048                 1.4775
 Frc consts  --      1.2689                 1.4627                 1.6828
 IR Inten    --      2.4517                 9.9813                 4.4402

                     55                     56                     57
                      A                      A                      A
 Frequencies --   1403.2864              1408.5790              1412.5645
 Red. masses --      1.3607                 1.2050                 1.4529
 Frc consts  --      1.5787                 1.4087                 1.7081
 IR Inten    --     44.8715                 2.5318                 5.7455

                     58                     59                     60
                      A                      A                      A
 Frequencies --   1428.2554              1430.4962              1438.4022
 Red. masses --      1.5715                 1.4952                 1.2759
 Frc consts  --      1.8888                 1.8027                 1.5553
 IR Inten    --      7.7319                13.3985                49.4935

                     61                     62                     63
                      A                      A                      A
 Frequencies --   1454.5559              1504.9878              1505.1756
 Red. masses --      1.4276                 1.0868                 1.0949
 Frc consts  --      1.7796                 1.4503                 1.4615
 IR Inten    --      9.7034                 6.6483                 4.2020

                     64                     65                     66
                      A                      A                      A
 Frequencies --   1515.5780              1525.8267              1536.9821
 Red. masses --      1.0936                 1.0902                 1.0878
 Frc consts  --      1.4799                 1.4954                 1.5141
 IR Inten    --      3.6930                 2.1632                 2.6597

                     67                     68                     69
                      A                      A                      A
 Frequencies --   1538.5839              1552.5135              1570.8468
 Red. masses --      1.0847                 1.0845                 1.0960
 Frc consts  --      1.5129                 1.5402                 1.5933
 IR Inten    --      2.5549                 4.3269                 3.5469

                     70                     71                     72
                      A                      A                      A
 Frequencies --   1702.6907              2913.6682              2961.7213
 Red. masses --      1.0879                 1.0717                 1.0732
 Frc consts  --      1.8582                 5.3603                 5.5466
 IR Inten    --     22.3434                87.4151                67.9665

                     73                     74                     75
                      A                      A                      A
 Frequencies --   2971.8771              2999.8305              3014.8324
 Red. masses --      1.0730                 1.0717                 1.0688
 Frc consts  --      5.5836                 5.6821                 5.7234
 IR Inten    --     75.6679                44.7888                46.1956

                     76                     77                     78
                      A                      A                      A
 Frequencies --   3026.0791              3029.7787              3038.6971
 Red. masses --      1.0642                 1.0886                 1.0810
 Frc consts  --      5.7415                 5.8875                 5.8808
 IR Inten    --     12.7558                64.5361                18.2166

                     79                     80                     81
                      A                      A                      A
 Frequencies --   3044.2371              3057.1338              3058.2384
 Red. masses --      1.0622                 1.0657                 1.0867
 Frc consts  --      5.8000                 5.8682                 5.9884
 IR Inten    --     32.1641                45.0324                10.7847

                     82                     83                     84
                      A                      A                      A
 Frequencies --   3069.4817              3073.9756              3076.5236
 Red. masses --      1.0900                 1.0939                 1.0992
 Frc consts  --      6.0509                 6.0903                 6.1298
 IR Inten    --     29.7473                46.5959                61.9343

                     85                     86                     87
                      A                      A                      A
 Frequencies --   3089.0541              3102.7765              3103.7872
 Red. masses --      1.1013                 1.1000                 1.0963
 Frc consts  --      6.1917                 6.2396                 6.2226
 IR Inten    --     72.1208                39.4720                57.9773

                     88                     89                     90
                      A                      A                      A
 Frequencies --   3474.7444              3557.1741              3753.4338
 Red. masses --      1.0498                 1.0917                 1.0660
 Frc consts  --      7.4679                 8.1387                 8.8483
 IR Inten    --      1.7307                 0.2319                 6.7416

 - Thermochemistry -
 -------------------
 Temperature   298.150 Kelvin.  Pressure   1.00000 Atm.
 Atom     1 has atomic number  6 and mass  12.00000

 Molecular mass:   172.15756 amu.
 Principal axes and moments of inertia in atomic units:
                           1         2         3
     Eigenvalues --   963.068074430.544664848.42710
           X            0.99999   0.00115   0.00296
           Y           -0.00114   0.99999  -0.00310
           Z           -0.00296   0.00309   0.99999
 This molecule is an asymmetric top.
 Rotational symmetry number  1.
 Warning -- assumption of classical behavior for rotation
           may cause significant error
 Rotational temperatures (Kelvin)      0.08994     0.01955     0.01786
 Rotational constants (GHZ):           1.87395     0.40734     0.37223
 Zero-point vibrational energy     776019.4 (Joules/Mol)
                                  185.47310 (Kcal/Mol)
 Warning -- explicit consideration of  19 degrees of freedom as
           vibrations may cause significant error
 Vibrational temperatures:     40.80    79.51    92.09   107.88   147.80
          (Kelvin)            204.72   233.04   285.07   316.42   353.09
                              394.14   427.12   465.98   553.20   595.26
                              616.74   676.10   752.76   855.11   902.82
                             1136.94  1175.02  1185.78  1208.80  1245.83
                             1272.63  1296.21  1337.02  1397.40  1422.82
                             1441.41  1455.11  1489.34  1536.97  1566.95
                             1594.65  1605.72  1638.71  1645.90  1660.15
                             1717.71  1740.20  1749.74  1768.76  1801.34
                             1826.83  1835.94  1875.66  1904.22  1910.63
                             1939.19  1965.95  1984.60  2000.45  2019.02
                             2026.63  2032.37  2054.94  2058.17  2069.54
                             2092.78  2165.34  2165.61  2180.58  2195.32
                             2211.37  2213.68  2233.72  2260.10  2449.79
                             4192.12  4261.26  4275.87  4316.09  4337.67
                             4353.85  4359.18  4372.01  4379.98  4398.53
                             4400.12  4416.30  4422.77  4426.43  4444.46
                             4464.20  4465.66  4999.38  5117.98  5400.35

 Zero-point correction=                           0.295570 (Hartree/Particle)
 Thermal correction to Energy=                    0.309343
 Thermal correction to Enthalpy=                  0.310287
 Thermal correction to Gibbs Free Energy=         0.254052
 Sum of electronic and zero-point Energies=           -539.446139
 Sum of electronic and thermal Energies=              -539.432367
 Sum of electronic and thermal Enthalpies=            -539.431422
 Sum of electronic and thermal Free Energies=         -539.487658

                     E (Thermal)             CV                S
                      KCal/Mol        Cal/Mol-Kelvin    Cal/Mol-Kelvin
 Total                  194.116             50.638            118.357
 Electronic               0.000              0.000              0.000
 Translational            0.889              2.981             41.337
 Rotational               0.889              2.981             31.404
 Vibrational            192.338             44.677             45.616
 Vibration     1          0.593              1.984              5.941
 Vibration     2          0.596              1.975              4.620
 Vibration     3          0.597              1.971              4.330
 Vibration     4          0.599              1.966              4.018
 Vibration     5          0.605              1.947              3.402
 Vibration     6          0.616              1.911              2.773
 Vibration     7          0.622              1.889              2.527
 Vibration     8          0.637              1.842              2.150
 Vibration     9          0.647              1.811              1.960
 Vibration    10          0.660              1.770              1.763
 Vibration    11          0.676              1.721              1.571
 Vibration    12          0.691              1.680              1.435
 Vibration    13          0.708              1.628              1.290
 Vibration    14          0.753              1.503              1.021
 Vibration    15          0.777              1.440              0.914
 Vibration    16          0.790              1.408              0.863
 Vibration    17          0.827              1.317              0.738
 Vibration    18          0.878              1.199              0.603
 Vibration    19          0.952              1.044              0.460

 Optimization completed.
    -- Stationary point found.
 Normal termination of Gaussian 16 at Wed Dec  9 17:32:40 2020.

 ----------------------------------------------------------------------
 # B3LYP/6-311++G(d,p) empiricaldispersion=gd3bj scf=xqc pop=npa geom=c
 heck
 ----------------------------------------------------------------------

 ---------------------------------------
 CID_114797212_JID_2358_Energie_neutraal
 ---------------------------------------
 Structure from the checkpoint file:  "JID_2358.chk"
 Charge =  0 Multiplicity = 1

 SCF Done:  E(RB3LYP) =  -539.912961620     A.U. after   13 cycles
 Normal termination of Gaussian 16 at Wed Dec  9 17:36:41 2020.

 ----------------------------------------------------------------------
 # B3LYP/6-311++G(d,p) empiricaldispersion=gd3bj scf=xqc pop=npa geom=c
 heck
 ----------------------------------------------------------------------

 -------------------------------------
 CID_114797212_JID_2358_Energie_kation
 -------------------------------------
 Structure from the checkpoint file:  "JID_2358.chk"
 Charge =  1 Multiplicity = 2

 SCF Done:  E(UB3LYP) =  -539.632028287     A.U. after   22 cycles
 Normal termination of Gaussian 16 at Wed Dec  9 17:45:44 2020.
 Gaussian 16:  ES64L-G16RevA.03 25-Dec-2016

 ----------------------------------------------------------------------
 # B3LYP/6-311++G(d,p) empiricaldispersion=gd3bj scf=xqc pop=npa geom=c
 heck
 ----------------------------------------------------------------------

 ------------------------------------
 CID_114797212_JID_2358_Energie_anion
 ------------------------------------
 Structure from the checkpoint file:  "JID_2358.chk"
 Charge = -1 Multiplicity = 2

                         Standard orientation:
 ---------------------------------------------------------------------
 Center     Atomic      Atomic             Coordinates (Angstroms)
 Number     Number       Type             X           Y           Z
 ---------------------------------------------------------------------
      1          6           0        1.103924   -1.086860    0.829028
      2          6           0       -0.305589   -1.654716    0.529116
      3          7           0       -0.786101   -0.868121   -0.602512
      4          6           0       -0.059642    0.387183   -0.654227
      5          6           0        1.364349   -0.039930   -0.279422
      6          6           0        2.285089    1.110645    0.127000
      7          6           0        3.699511    0.663595    0.504160
      8          8           0        4.390609    0.031267   -0.568309
      9          6           0       -2.197324   -0.920635   -0.938037
     10          6           0       -3.221346   -0.598778    0.170662
     11          6           0       -3.077917    0.779661    0.818425
     12          7           0       -3.212892    1.851389   -0.175151
     13          1           0        1.111494   -0.593907    1.808658
     14          1           0        1.869386   -1.868681    0.860095
     15          1           0       -0.287032   -2.720547    0.262085
     16          1           0       -0.944288   -1.563699    1.423819
     17          1           0       -0.411028    1.156716    0.062579
     18          1           0       -0.119289    0.822239   -1.660028
     19          1           0        1.785723   -0.546654   -1.157398
     20          1           0        2.356394    1.831439   -0.697804
     21          1           0        1.846533    1.641691    0.984579
     22          1           0        4.306675    1.535020    0.768286
     23          1           0        3.665700    0.009947    1.390658
     24          1           0        3.945573   -0.810961   -0.745912
     25          1           0       -2.358027   -0.244740   -1.786588
     26          1           0       -2.420358   -1.931776   -1.309733
     27          1           0       -4.221947   -0.677196   -0.272972
     28          1           0       -3.162476   -1.361369    0.957996
     29          1           0       -3.885503    0.907907    1.549170
     30          1           0       -2.133087    0.815522    1.389399
     31          1           0       -3.233613    2.753900    0.296310
     32          1           0       -2.389082    1.871146   -0.773315
 ---------------------------------------------------------------------

 SCF Done:  E(UB3LYP) =  -539.900007904     A.U. after   29 cycles

 The electronic state is 2-A.
 Alpha  occ. eigenvalues --  -19.02510 -14.19504 -14.19090 -10.11738 -10.09227
 Alpha  occ. eigenvalues --  -10.08945 -10.08760 -10.08665 -10.07298 -10.06761
 Alpha  occ. eigenvalues --  -10.06408 -10.06210  -0.92557  -0.83017  -0.78072
 Alpha  occ. eigenvalues --   -0.70843  -0.66103  -0.63234  -0.61504  -0.56706
 Alpha  occ. eigenvalues --   -0.52724  -0.49754  -0.46746  -0.45183  -0.41025
 Alpha  occ. eigenvalues --   -0.39714  -0.39645  -0.39177  -0.35925  -0.35382
 Alpha  occ. eigenvalues --   -0.33865  -0.33056  -0.32002  -0.30906  -0.29890
 Alpha  occ. eigenvalues --   -0.28210  -0.28071  -0.26770  -0.25284  -0.24954
 Alpha  occ. eigenvalues --   -0.23982  -0.23859  -0.22614  -0.22198  -0.21890
 Alpha  occ. eigenvalues --   -0.17921  -0.14410  -0.10166   0.04423
 Alpha virt. eigenvalues --    0.06387   0.07251   0.07572   0.08405   0.08960
 Alpha virt. eigenvalues --    0.09472   0.09916   0.10202   0.10934   0.11498
 Alpha virt. eigenvalues --    0.12253   0.12561   0.12803   0.13926   0.14324

  Beta  occ. eigenvalues --  -19.02486 -14.19504 -14.19057 -10.11722 -10.09219
  Beta  occ. eigenvalues --  -10.08925 -10.08734 -10.08642 -10.07287 -10.06746
  Beta  occ. eigenvalues --  -10.06375 -10.06203  -0.92503  -0.83002  -0.78020
  Beta  occ. eigenvalues --   -0.70811  -0.66065  -0.63186  -0.61456  -0.56650
  Beta  occ. eigenvalues --   -0.52665  -0.49692  -0.46683  -0.45130  -0.40972
  Beta  occ. eigenvalues --   -0.39681  -0.39601  -0.39119  -0.35879  -0.35345
  Beta  occ. eigenvalues --   -0.33823  -0.33009  -0.31969  -0.30868  -0.29859
  Beta  occ. eigenvalues --   -0.28171  -0.28035  -0.26735  -0.25251  -0.24909
  Beta  occ. eigenvalues --   -0.23946  -0.23828  -0.22580  -0.22173  -0.21843
  Beta  occ. eigenvalues --   -0.17884  -0.14370  -0.10150
  Beta virt. eigenvalues --    0.06707   0.07444   0.07713   0.08050   0.08836
  Beta virt. eigenvalues --    0.09360   0.09750   0.10408   0.10675   0.11254
  Beta virt. eigenvalues --    0.11888   0.12499   0.12717   0.13183   0.14124

 Mulliken charges and spin densities:
               1          2
     1  C    1.766754  -2.232014
     2  C   -0.127897  -0.268025
     3  N   -0.025639   0.202464
     4  C    0.473218  -1.522146
     5  C   -1.410661   2.037196
     6  C   -0.479713   0.294885
     7  C    0.550680  -1.098658
     8  O   -0.257961   0.016354
     9  C   -0.044842  -0.193987
    10  C   -0.180119  -0.030085
    11  C    0.770410  -1.145417
    12  N   -0.436111   0.059548
    13  H   -0.185489   0.355770
    14  H   -0.178675   0.341110
    15  H   -0.471378   0.629225
    16  H    0.165130  -0.054151
    17  H   -0.135882   0.258054
    18  H    0.005541   0.158883
    19  H   -0.014275   0.190112
    20  H    0.041784   0.110854
    21  H   -0.192051   0.314283
    22  H   -0.063073   0.241281
    23  H   -0.136944   0.290519
    24  H    0.011726   0.252573
    25  H   -0.037632   0.178060
    26  H    0.079804   0.075000
    27  H    0.095200   0.040087
    28  H   -0.086946   0.226972
    29  H   -0.366392   0.533214
    30  H   -0.144233   0.292626
    31  H   -0.202009   0.449771
    32  H    0.217677  -0.004358
 Sum of Mulliken charges =  -1.00000   1.00000

 Dipole moment (field-independent basis, Debye):
    X=             -0.2407    Y=             -0.5214    Z=             -1.5685  Tot=              1.6703
 Quadrupole moment (field-independent basis, Debye-Ang):
   XX=           -155.6475   YY=           -121.5591   ZZ=           -109.5362
   XY=             13.5816   XZ=              4.7036   YZ=             -1.2196

 Summary of Natural Population Analysis:

                                       Natural Population
                Natural  -----------------------------------------------
    Atom  No    Charge         Core      Valence    Rydberg      Total
 -----------------------------------------------------------------------
      C    1   -0.19612      0.99962     2.18634    0.01016     3.19612
      C    2   -0.07969      0.99963     2.06853    0.01153     3.07969
      N    3   -0.28759      0.99972     2.77474    0.01314     3.78759
      C    4   -0.07612      0.99959     2.06672    0.00981     3.07612
      C    5   -0.11567      0.99959     2.10431    0.01178     3.11567
      C    6   -0.19916      0.99960     2.19163    0.00794     3.19916
      C    7   -0.00721      0.99960     1.99563    0.01198     3.00721
      O    8   -0.37122      0.99990     3.36463    0.00669     4.37122
      C    9   -0.07949      0.99961     2.06947    0.01041     3.07949
      C   10   -0.20140      0.99962     2.19392    0.00786     3.20140
      C   11   -0.09278      0.99963     2.08130    0.01184     3.09278
      N   12   -0.42557      0.99977     2.91481    0.01099     3.92557
      H   13    0.09706      0.00000     0.40123    0.00170     0.40294
      H   14    0.10307      0.00000     0.39479    0.00213     0.39693
      H   15    0.09194      0.00000     0.40654    0.00153     0.40806
      H   16    0.08271      0.00000     0.41564    0.00165     0.41729
      H   17    0.07889      0.00000     0.41888    0.00223     0.42111
      H   18    0.09419      0.00000     0.40418    0.00163     0.40581
      H   19    0.09606      0.00000     0.40206    0.00188     0.40394
      H   20    0.09824      0.00000     0.40030    0.00145     0.40176
      H   21    0.10016      0.00000     0.39820    0.00165     0.39984
      H   22    0.08345      0.00000     0.41521    0.00134     0.41655
      H   23    0.07685      0.00000     0.42153    0.00163     0.42315
      H   24    0.22902      0.00000     0.26751    0.00347     0.27098
      H   25    0.09393      0.00000     0.40476    0.00131     0.40607
      H   26    0.09199      0.00000     0.40683    0.00118     0.40801
      H   27    0.09737      0.00000     0.40132    0.00132     0.40263
      H   28    0.09611      0.00000     0.40254    0.00135     0.40389
      H   29    0.09122      0.00000     0.40742    0.00136     0.40878
      H   30    0.08005      0.00000     0.41727    0.00268     0.41995
      H   31    0.17754      0.00000     0.32002    0.00244     0.32246
      H   32    0.17219      0.00000     0.32564    0.00217     0.32781
 =======================================================================
   * Total *    0.00000     11.99588    35.84389    0.16024    48.00000

 Normal termination of Gaussian 16 at Wed Dec  9 17:57:59 2020.
