 Gaussian 16, Revision A.03,

 -----------------------------------------------------------
 # opt freq B3LYP/6-31G(d) empiricaldispersion=gd3bj scf=xqc
 -----------------------------------------------------------

 -------------------------------
 CID_114057284_JID_8643_neutraal
 -------------------------------
 Symbolic Z-matrix:
 Charge =  0 Multiplicity = 1

 SCF Done:  E(RB3LYP) =  -1139.50361181     A.U. after   15 cycles
 SCF Done:  E(RB3LYP) =  -1139.50657190     A.U. after   13 cycles
 SCF Done:  E(RB3LYP) =  -1139.49715379     A.U. after   15 cycles
 SCF Done:  E(RB3LYP) =  -1139.50723364     A.U. after   13 cycles
 SCF Done:  E(RB3LYP) =  -1139.50819708     A.U. after   15 cycles
 SCF Done:  E(RB3LYP) =  -1139.50895340     A.U. after   13 cycles
 SCF Done:  E(RB3LYP) =  -1139.50986878     A.U. after   12 cycles
 SCF Done:  E(RB3LYP) =  -1139.51021451     A.U. after   12 cycles
 SCF Done:  E(RB3LYP) =  -1139.51029063     A.U. after   11 cycles
 SCF Done:  E(RB3LYP) =  -1139.51031858     A.U. after   10 cycles
 SCF Done:  E(RB3LYP) =  -1139.51334833     A.U. after    9 cycles
 SCF Done:  E(RB3LYP) =  -1139.51335043     A.U. after   10 cycles
 SCF Done:  E(RB3LYP) =  -1139.51335053     A.U. after   10 cycles
 SCF Done:  E(RB3LYP) =  -1139.51335072     A.U. after    9 cycles
 SCF Done:  E(RB3LYP) =  -1139.51335075     A.U. after    7 cycles
 Optimization completed on the basis of negligible forces.
    -- Stationary point found.
 Normal termination of Gaussian 16 at Fri Dec 11 22:38:18 2020.

 --------------------------------------------------------------------
 #N Geom=AllCheck Guess=TCheck SCRF=Check GenChk RB3LYP/6-31G(d) Freq
 --------------------------------------------------------------------

 Structure from the checkpoint file:  "JID_8643.chk"
 -------------------------------
 CID_114057284_JID_8643_neutraal
 -------------------------------
 Charge =  0 Multiplicity = 1

 SCF Done:  E(RB3LYP) =  -1139.51335075     A.U. after    1 cycles

  Exact polarizability: 212.425   2.394 166.035  11.806  -1.789 135.467
 Approx polarizability: 293.264  18.119 256.106  27.326   1.220 233.553

                      1                      2                      3
                      A                      A                      A
 Frequencies --     21.6044                31.5080                36.8566
 Red. masses --      4.6115                 1.1720                 2.9025
 Frc consts  --      0.0013                 0.0007                 0.0023
 IR Inten    --      1.4932                 0.0555                 0.5848

                      4                      5                      6
                      A                      A                      A
 Frequencies --     54.4940                61.9466                78.6772
 Red. masses --      3.7064                 4.6396                 4.6370
 Frc consts  --      0.0065                 0.0105                 0.0169
 IR Inten    --      0.6365                 1.2792                 1.0355

                      7                      8                      9
                      A                      A                      A
 Frequencies --     89.7366               129.9280               144.2713
 Red. masses --      3.4104                 2.6934                 3.4917
 Frc consts  --      0.0162                 0.0268                 0.0428
 IR Inten    --      0.0083                 0.5065                 0.8352

                     10                     11                     12
                      A                      A                      A
 Frequencies --    166.1852               198.8420               210.6637
 Red. masses --      4.7949                 3.9550                 2.8527
 Frc consts  --      0.0780                 0.0921                 0.0746
 IR Inten    --      5.1769                 0.5966                 1.9646

                     13                     14                     15
                      A                      A                      A
 Frequencies --    229.1649               262.2105               304.7328
 Red. masses --      3.1966                 2.0129                 1.6783
 Frc consts  --      0.0989                 0.0815                 0.0918
 IR Inten    --      1.0260                 1.5351                 1.6645

                     16                     17                     18
                      A                      A                      A
 Frequencies --    315.1925               332.5810               365.1652
 Red. masses --      4.7909                 4.5192                 3.5881
 Frc consts  --      0.2804                 0.2945                 0.2819
 IR Inten    --      2.2425                 2.7581                 1.9964

                     19                     20                     21
                      A                      A                      A
 Frequencies --    381.5980               417.5848               448.3250
 Red. masses --      3.5853                 2.4215                 5.1444
 Frc consts  --      0.3076                 0.2488                 0.6092
 IR Inten    --      1.8497                 0.8134                 3.2910

                     22                     23                     24
                      A                      A                      A
 Frequencies --    468.1938               487.3368               493.1681
 Red. masses --      6.7150                 3.5718                 1.4052
 Frc consts  --      0.8673                 0.4998                 0.2014
 IR Inten    --      3.2822                 0.3301                76.3935

                     25                     26                     27
                      A                      A                      A
 Frequencies --    537.5008               562.4692               633.1077
 Red. masses --      4.1194                 4.7781                 4.5533
 Frc consts  --      0.7012                 0.8906                 1.0753
 IR Inten    --      3.2117                 9.0948                 1.1089

                     28                     29                     30
                      A                      A                      A
 Frequencies --    678.8708               692.3714               711.2688
 Red. masses --      2.7871                 5.7242                 4.8178
 Frc consts  --      0.7568                 1.6168                 1.4360
 IR Inten    --     18.0663                 7.9890                 2.2595

                     31                     32                     33
                      A                      A                      A
 Frequencies --    732.7916               766.9156               787.3600
 Red. masses --      9.6671                 1.4563                 3.7259
 Frc consts  --      3.0585                 0.5047                 1.3609
 IR Inten    --      3.6351                 9.5025                12.4047

                     34                     35                     36
                      A                      A                      A
 Frequencies --    818.1309               830.5639               863.0865
 Red. masses --      1.9136                 1.4704                 2.8422
 Frc consts  --      0.7547                 0.5976                 1.2474
 IR Inten    --      8.1370                28.6298                41.9875

                     37                     38                     39
                      A                      A                      A
 Frequencies --    887.4127               926.1475               947.4293
 Red. masses --      1.9313                 1.6387                 1.4941
 Frc consts  --      0.8961                 0.8282                 0.7902
 IR Inten    --     18.8907                 6.2565                11.6744

                     40                     41                     42
                      A                      A                      A
 Frequencies --    962.6293               994.0360              1001.3943
 Red. masses --      1.4225                 1.3432                 2.8710
 Frc consts  --      0.7766                 0.7820                 1.6963
 IR Inten    --      3.1455                 0.3227                12.8903

                     43                     44                     45
                      A                      A                      A
 Frequencies --   1016.0448              1032.7626              1071.0202
 Red. masses --      2.3231                 1.4451                 2.8439
 Frc consts  --      1.4130                 0.9081                 1.9220
 IR Inten    --      1.1222                14.1733                 5.2624

                     46                     47                     48
                      A                      A                      A
 Frequencies --   1074.1853              1080.2792              1087.1613
 Red. masses --      1.6672                 4.0954                 4.2662
 Frc consts  --      1.1334                 2.8159                 2.9709
 IR Inten    --      8.6241                 5.4556                29.5126

                     49                     50                     51
                      A                      A                      A
 Frequencies --   1091.4064              1138.5469              1146.8646
 Red. masses --      2.6686                 2.2812                 3.6919
 Frc consts  --      1.8729                 1.7423                 2.8610
 IR Inten    --     12.5112                 5.1878                36.3521

                     52                     53                     54
                      A                      A                      A
 Frequencies --   1155.4335              1166.6212              1186.9907
 Red. masses --      2.5711                 1.6429                 1.7574
 Frc consts  --      2.0224                 1.3175                 1.4588
 IR Inten    --     18.9952                 2.9868                 6.7493

                     55                     56                     57
                      A                      A                      A
 Frequencies --   1219.2238              1256.1240              1271.8345
 Red. masses --      2.2733                 1.4932                 3.4179
 Frc consts  --      1.9910                 1.3882                 3.2574
 IR Inten    --      4.6350                 6.0836                94.2523

                     58                     59                     60
                      A                      A                      A
 Frequencies --   1298.2566              1306.3001              1318.5698
 Red. masses --      1.8564                 1.8267                 1.7279
 Frc consts  --      1.8435                 1.8366                 1.7700
 IR Inten    --      0.9693                10.1590                 0.9564

                     61                     62                     63
                      A                      A                      A
 Frequencies --   1336.2815              1357.8614              1385.4198
 Red. masses --      3.4302                 1.2803                 1.2657
 Frc consts  --      3.6089                 1.3908                 1.4313
 IR Inten    --    129.5933                 7.0732                13.1717

                     64                     65                     66
                      A                      A                      A
 Frequencies --   1397.8402              1412.8305              1421.7746
 Red. masses --      1.3646                 3.0678                 1.3630
 Frc consts  --      1.5710                 3.6079                 1.6233
 IR Inten    --      1.5290                 9.5347                 4.5672

                     67                     68                     69
                      A                      A                      A
 Frequencies --   1442.4442              1446.5540              1458.4371
 Red. masses --      1.2673                 1.3779                 2.3722
 Frc consts  --      1.5536                 1.6988                 2.9728
 IR Inten    --      4.9320                 1.5571                37.3419

                     70                     71                     72
                      A                      A                      A
 Frequencies --   1474.8645              1488.0571              1504.0199
 Red. masses --      2.8211                 2.1072                 1.0877
 Frc consts  --      3.6155                 2.7492                 1.4496
 IR Inten    --     72.8441                 3.9561                10.3314

                     73                     74                     75
                      A                      A                      A
 Frequencies --   1504.9632              1509.8015              1524.2343
 Red. masses --      1.0658                 1.0815                 1.0612
 Frc consts  --      1.4223                 1.4525                 1.4526
 IR Inten    --      8.9705                 1.0089                 4.0850

                     76                     77                     78
                      A                      A                      A
 Frequencies --   1534.9882              1537.6611              1542.9887
 Red. masses --      1.2541                 1.1649                 1.0687
 Frc consts  --      1.7410                 1.6228                 1.4991
 IR Inten    --      4.4027                 1.1949                14.8989

                     79                     80                     81
                      A                      A                      A
 Frequencies --   1563.3417              1591.8210              1612.3256
 Red. masses --      1.1466                 4.6993                 5.1368
 Frc consts  --      1.6510                 7.0158                 7.8677
 IR Inten    --     17.2354                73.6421                15.6498

                     82                     83                     84
                      A                      A                      A
 Frequencies --   1635.6724              2950.8638              3036.4564
 Red. masses --      5.8732                 1.0708                 1.0741
 Frc consts  --      9.2581                 5.4934                 5.8351
 IR Inten    --     10.9788                45.4230                13.4607

                     85                     86                     87
                      A                      A                      A
 Frequencies --   3038.0952              3048.8178              3053.3013
 Red. masses --      1.0381                 1.0750                 1.0690
 Frc consts  --      5.6454                 5.8875                 5.8718
 IR Inten    --     26.9479                35.3461                80.2041

                     88                     89                     90
                      A                      A                      A
 Frequencies --   3063.0360              3082.5498              3105.8873
 Red. masses --      1.0383                 1.0995                 1.1006
 Frc consts  --      5.7397                 6.1558                 6.2553
 IR Inten    --     15.2806                12.5948                58.0961

                     91                     92                     93
                      A                      A                      A
 Frequencies --   3120.1444              3124.6717              3124.7497
 Red. masses --      1.1020                 1.0977                 1.1002
 Frc consts  --      6.3211                 6.3144                 6.3293
 IR Inten    --     49.9907                10.8432                11.4721

                     94                     95                     96
                      A                      A                      A
 Frequencies --   3155.8548              3179.2101              3187.9787
 Red. masses --      1.1017                 1.0882                 1.0900
 Frc consts  --      6.4648                 6.4803                 6.5267
 IR Inten    --      4.8976                14.6409                18.5426

                     97                     98                     99
                      A                      A                      A
 Frequencies --   3213.1109              3489.8975              3654.7452
 Red. masses --      1.0966                 1.0732                 1.0818
 Frc consts  --      6.6707                 7.7011                 8.5132
 IR Inten    --     26.7989                54.7495                58.0918

 - Thermochemistry -
 -------------------
 Temperature   298.150 Kelvin.  Pressure   1.00000 Atm.
 Atom     1 has atomic number  6 and mass  12.00000

 Molecular mass:   263.12047 amu.
 Principal axes and moments of inertia in atomic units:
                           1         2         3
     Eigenvalues --  3899.737515617.134727997.57275
           X            0.99997   0.00455  -0.00579
           Y           -0.00456   0.99999  -0.00166
           Z            0.00578   0.00169   0.99998
 This molecule is an asymmetric top.
 Rotational symmetry number  1.
 Warning -- assumption of classical behavior for rotation
           may cause significant error
 Rotational temperatures (Kelvin)      0.02221     0.01542     0.01083
 Rotational constants (GHZ):           0.46279     0.32129     0.22566
 Zero-point vibrational energy     761391.0 (Joules/Mol)
                                  181.97681 (Kcal/Mol)
 Warning -- explicit consideration of  26 degrees of freedom as
           vibrations may cause significant error
 Vibrational temperatures:     31.08    45.33    53.03    78.40    89.13
          (Kelvin)            113.20   129.11   186.94   207.57   239.10
                              286.09   303.10   329.72   377.26   438.44
                              453.49   478.51   525.39   549.03   600.81
                              645.04   673.63   701.17   709.56   773.34
                              809.27   910.90   976.74   996.17  1023.36
                             1054.32  1103.42  1132.84  1177.11  1195.00
                             1241.79  1276.79  1332.52  1363.14  1385.01
                             1430.20  1440.78  1461.86  1485.92  1540.96
                             1545.51  1554.28  1564.18  1570.29  1638.12
                             1650.08  1662.41  1678.51  1707.81  1754.19
                             1807.28  1829.89  1867.90  1879.47  1897.13
                             1922.61  1953.66  1993.31  2011.18  2032.75
                             2045.62  2075.36  2081.27  2098.37  2122.00
                             2140.98  2163.95  2165.31  2172.27  2193.03
                             2208.51  2212.35  2220.02  2249.30  2290.28
                             2319.78  2353.37  4245.63  4368.78  4371.14
                             4386.57  4393.02  4407.03  4435.10  4468.68
                             4489.19  4495.71  4495.82  4540.57  4574.17
                             4586.79  4622.95  5021.18  5258.36

 Zero-point correction=                           0.289999 (Hartree/Particle)
 Thermal correction to Energy=                    0.307916
 Thermal correction to Enthalpy=                  0.308860
 Thermal correction to Gibbs Free Energy=         0.241490
 Sum of electronic and zero-point Energies=          -1139.223352
 Sum of electronic and thermal Energies=             -1139.205434
 Sum of electronic and thermal Enthalpies=           -1139.204490
 Sum of electronic and thermal Free Energies=        -1139.271861

                     E (Thermal)             CV                S
                      KCal/Mol        Cal/Mol-Kelvin    Cal/Mol-Kelvin
 Total                  193.220             65.732            141.793
 Electronic               0.000              0.000              0.000
 Translational            0.889              2.981             42.602
 Rotational               0.889              2.981             33.526
 Vibrational            191.443             59.770             65.665
 Vibration     1          0.593              1.985              6.481
 Vibration     2          0.594              1.983              5.732
 Vibration     3          0.594              1.982              5.421
 Vibration     4          0.596              1.976              4.647
 Vibration     5          0.597              1.972              4.394
 Vibration     6          0.600              1.964              3.924
 Vibration     7          0.602              1.956              3.666
 Vibration     8          0.612              1.923              2.947
 Vibration     9          0.616              1.909              2.746
 Vibration    10          0.624              1.884              2.478
 Vibration    11          0.637              1.842              2.144
 Vibration    12          0.643              1.825              2.038
 Vibration    13          0.652              1.796              1.885
 Vibration    14          0.670              1.742              1.647
 Vibration    15          0.696              1.665              1.391
 Vibration    16          0.703              1.645              1.335
 Vibration    17          0.715              1.610              1.248
 Vibration    18          0.738              1.544              1.100
 Vibration    19          0.751              1.509              1.033
 Vibration    20          0.781              1.432              0.900
 Vibration    21          0.807              1.365              0.801
 Vibration    22          0.825              1.321              0.743
 Vibration    23          0.843              1.278              0.691
 Vibration    24          0.849              1.265              0.675
 Vibration    25          0.893              1.167              0.571
 Vibration    26          0.918              1.112              0.519

 Optimization completed on the basis of negligible forces.
    -- Stationary point found.
 Normal termination of Gaussian 16 at Fri Dec 11 22:54:12 2020.

 ----------------------------------------------------------------------
 # B3LYP/6-311++G(d,p) empiricaldispersion=gd3bj scf=xqc pop=npa geom=c
 heck
 ----------------------------------------------------------------------

 ---------------------------------------
 CID_114057284_JID_8643_Energie_neutraal
 ---------------------------------------
 Structure from the checkpoint file:  "JID_8643.chk"
 Charge =  0 Multiplicity = 1

 SCF Done:  E(RB3LYP) =  -1139.74015572     A.U. after   16 cycles
 Normal termination of Gaussian 16 at Fri Dec 11 23:01:46 2020.

 ----------------------------------------------------------------------
 # B3LYP/6-311++G(d,p) empiricaldispersion=gd3bj scf=xqc pop=npa geom=c
 heck
 ----------------------------------------------------------------------

 -------------------------------------
 CID_114057284_JID_8643_Energie_kation
 -------------------------------------
 Structure from the checkpoint file:  "JID_8643.chk"
 Charge =  1 Multiplicity = 2

 SCF Done:  E(UB3LYP) =  -1139.45496107     A.U. after   27 cycles
 Normal termination of Gaussian 16 at Fri Dec 11 23:19:42 2020.
 Gaussian 16:  ES64L-G16RevA.03 25-Dec-2016

 ----------------------------------------------------------------------
 # B3LYP/6-311++G(d,p) empiricaldispersion=gd3bj scf=xqc pop=npa geom=c
 heck
 ----------------------------------------------------------------------

 ------------------------------------
 CID_114057284_JID_8643_Energie_anion
 ------------------------------------
 Structure from the checkpoint file:  "JID_8643.chk"
 Charge = -1 Multiplicity = 2

                         Standard orientation:
 ---------------------------------------------------------------------
 Center     Atomic      Atomic             Coordinates (Angstroms)
 Number     Number       Type             X           Y           Z
 ---------------------------------------------------------------------
      1          6           0       -0.985220    3.417137    0.725034
      2          6           0        0.365664    3.812879    0.119511
      3          6           0        1.287354    2.623563   -0.162762
      4          7           0        0.714119    1.732225   -1.167743
      5          6           0        1.622333    0.678905   -1.632041
      6          6           0        2.057412   -0.298491   -0.553935
      7          6           0        1.324256   -1.445010   -0.192721
      8          7           0        1.656000   -2.263830    0.806216
      9          6           0        2.746336   -1.976090    1.522870
     10          6           0        3.559279   -0.875787    1.257409
     11          6           0        3.205208   -0.038501    0.204904
     12         16           0       -0.121128   -1.979501   -1.149764
     13          6           0       -1.408433   -1.121944   -0.302737
     14          7           0       -1.220182   -0.092656    0.517822
     15          7           0       -2.506116    0.212345    0.865690
     16          6           0       -3.382183   -0.613872    0.251420
     17          7           0       -2.711658   -1.477403   -0.500909
     18          6           0       -4.860542   -0.561548    0.438529
     19          1           0       -1.576246    2.826825    0.016790
     20          1           0       -1.572191    4.303334    0.991282
     21          1           0       -0.842168    2.816596    1.633019
     22          1           0        0.201169    4.359908   -0.816577
     23          1           0        0.884658    4.494375    0.806489
     24          1           0        2.241970    2.999245   -0.556457
     25          1           0        1.518866    2.112225    0.790136
     26          1           0       -0.106381    1.281118   -0.764598
     27          1           0        1.123507    0.142089   -2.442344
     28          1           0        2.513235    1.163042   -2.051266
     29          1           0        2.980057   -2.662909    2.333714
     30          1           0        4.446174   -0.686879    1.854549
     31          1           0        3.817465    0.825424   -0.040847
     32          1           0       -2.676780    0.984242    1.494035
     33          1           0       -5.185503    0.424036    0.785899
     34          1           0       -5.357110   -0.783916   -0.508892
     35          1           0       -5.186602   -1.308955    1.170863
 ---------------------------------------------------------------------

 SCF Done:  E(UB3LYP) =  -1139.73764291     A.U. after   33 cycles
 SCF Done:  E(UB3LYP) =  -1139.73764291     a.u. after    1 cycles

 The electronic state is 2-A.
 Alpha  occ. eigenvalues --  -88.74561 -14.29156 -14.23426 -14.20398 -14.18969
 Alpha  occ. eigenvalues --  -14.18743 -10.15250 -10.14322 -10.11539 -10.09601
 Alpha  occ. eigenvalues --  -10.09376 -10.08875 -10.08811 -10.08014 -10.07023
 Alpha  occ. eigenvalues --  -10.06874 -10.06807 -10.06087  -7.83186  -5.79583
 Alpha  occ. eigenvalues --   -5.79189  -5.78573  -0.97687  -0.83582  -0.80325
 Alpha  occ. eigenvalues --   -0.79917  -0.75135  -0.70087  -0.68533  -0.67123
 Alpha  occ. eigenvalues --   -0.63961  -0.62290  -0.58988  -0.55239  -0.53050
 Alpha  occ. eigenvalues --   -0.51673  -0.50198  -0.48259  -0.47084  -0.43951
 Alpha  occ. eigenvalues --   -0.40326  -0.39598  -0.37808  -0.37666  -0.36971
 Alpha  occ. eigenvalues --   -0.35653  -0.34133  -0.33061  -0.32492  -0.32051
 Alpha  occ. eigenvalues --   -0.31317  -0.30993  -0.29804  -0.29707  -0.28984
 Alpha  occ. eigenvalues --   -0.27599  -0.26846  -0.24487  -0.24436  -0.23864
 Alpha  occ. eigenvalues --   -0.23295  -0.23041  -0.21378  -0.18597  -0.18322
 Alpha  occ. eigenvalues --   -0.17832  -0.15630  -0.14834  -0.12269  -0.11759
 Alpha  occ. eigenvalues --    0.03969
 Alpha virt. eigenvalues --    0.05340   0.06811   0.07569   0.07855   0.08334
 Alpha virt. eigenvalues --    0.08883   0.09098   0.09469   0.10110   0.10445
 Alpha virt. eigenvalues --    0.10831   0.10971   0.11442   0.12200   0.12605

  Beta  occ. eigenvalues --  -88.74563 -14.29114 -14.23424 -14.20396 -14.18973
  Beta  occ. eigenvalues --  -14.18444 -10.15251 -10.14274 -10.11399 -10.09632
  Beta  occ. eigenvalues --  -10.09371 -10.08875 -10.08761 -10.08073 -10.07017
  Beta  occ. eigenvalues --  -10.06775 -10.06601 -10.06062  -7.83186  -5.79579
  Beta  occ. eigenvalues --   -5.79196  -5.78573  -0.97656  -0.83183  -0.80309
  Beta  occ. eigenvalues --   -0.79881  -0.75075  -0.69848  -0.68325  -0.67036
  Beta  occ. eigenvalues --   -0.63877  -0.62186  -0.58924  -0.55193  -0.52894
  Beta  occ. eigenvalues --   -0.51405  -0.50123  -0.48219  -0.46959  -0.43864
  Beta  occ. eigenvalues --   -0.40242  -0.39542  -0.37729  -0.37607  -0.36947
  Beta  occ. eigenvalues --   -0.35545  -0.34073  -0.33022  -0.32427  -0.31994
  Beta  occ. eigenvalues --   -0.31124  -0.30910  -0.29760  -0.29474  -0.28728
  Beta  occ. eigenvalues --   -0.27533  -0.26470  -0.24441  -0.24400  -0.23814
  Beta  occ. eigenvalues --   -0.23220  -0.22994  -0.21328  -0.18569  -0.18158
  Beta  occ. eigenvalues --   -0.16689  -0.15233  -0.14490  -0.12221  -0.11702
  Beta virt. eigenvalues --    0.06567   0.06914   0.07688   0.07881   0.08020
  Beta virt. eigenvalues --    0.08557   0.09158   0.09404   0.09472   0.10200
  Beta virt. eigenvalues --    0.10520   0.10976   0.11263   0.11759   0.12280

 Mulliken charges and spin densities:
               1          2
     1  C   -0.020255  -0.547952
     2  C   -0.734397   0.288753
     3  C    0.070670  -0.279867
     4  N    0.006621   0.014407
     5  C   -0.806044  -0.033180
     6  C    1.208769   0.114733
     7  C   -1.080941  -0.026857
     8  N    0.127717   0.137868
     9  C   -0.041913  -0.028125
    10  C   -0.326261   0.103089
    11  C   -0.026241   0.079306
    12  S   -0.144324   0.081008
    13  C   -0.922544   0.564876
    14  N    0.030578  -0.195497
    15  N   -0.021551   0.074733
    16  C   -0.841135   1.053991
    17  N   -0.063393   0.026816
    18  C    2.157214  -2.827293
    19  H    0.184609  -0.004490
    20  H   -0.313787   0.459957
    21  H    0.061304   0.085086
    22  H    0.115625   0.025014
    23  H    0.092491   0.020926
    24  H    0.136697  -0.002054
    25  H    0.128877   0.003435
    26  H    0.220236  -0.004509
    27  H    0.182902  -0.000073
    28  H    0.120412   0.036532
    29  H    0.157275   0.002911
    30  H    0.114956   0.017215
    31  H    0.125453   0.001661
    32  H   -0.115599   0.469714
    33  H   -0.613919   0.773728
    34  H   -0.050804   0.220717
    35  H   -0.119300   0.293421
 Sum of Mulliken charges =  -1.00000   1.00000

 Dipole moment (field-independent basis, Debye):
    X=              6.5450    Y=              0.7725    Z=             -1.3751  Tot=              6.7323
 Quadrupole moment (field-independent basis, Debye-Ang):
   XX=           -177.2057   YY=           -161.0872   ZZ=           -139.9338
   XY=             12.4758   XZ=              8.3141   YZ=             -4.6951

 Summary of Natural Population Analysis:

                                       Natural Population
                Natural  -----------------------------------------------
    Atom  No    Charge         Core      Valence    Rydberg      Total
 -----------------------------------------------------------------------
      C    1   -0.29124      0.99967     2.28501    0.00656     3.29124
      C    2   -0.19132      0.99964     2.18220    0.00948     3.19132
      C    3   -0.08758      0.99963     2.07837    0.00959     3.08758
      N    4   -0.34807      0.99975     2.83688    0.01145     3.84807
      C    5   -0.09457      0.99959     2.08339    0.01159     3.09457
      C    6   -0.04989      0.99941     2.04133    0.00915     3.04989
      C    7    0.06422      0.99938     1.91720    0.01921     2.93578
      N    8   -0.19643      0.99965     2.68324    0.01353     3.69643
      C    9    0.01658      0.99960     1.97009    0.01374     2.98342
      C   10   -0.10665      0.99956     2.09889    0.00820     3.10665
      C   11   -0.05063      0.99952     2.04279    0.00832     3.05063
      S   12    0.13577      4.99946     2.84582    0.01895     7.86423
      C   13    0.10389      0.99960     1.87182    0.02470     2.89611
      N   14   -0.19212      0.99967     2.67912    0.01333     3.69212
      N   15   -0.17890      0.99964     2.66603    0.01323     3.67890
      C   16    0.19967      0.99963     1.78425    0.01645     2.80033
      N   17   -0.27543      0.99966     2.76691    0.00885     3.77543
      C   18   -0.30695      0.99963     2.30133    0.00599     3.30695
      H   19    0.09858      0.00000     0.39955    0.00188     0.40142
      H   20    0.09797      0.00000     0.40106    0.00097     0.40203
      H   21    0.09638      0.00000     0.40220    0.00142     0.40362
      H   22    0.09446      0.00000     0.40422    0.00132     0.40554
      H   23    0.09076      0.00000     0.40832    0.00092     0.40924
      H   24    0.08610      0.00000     0.41276    0.00114     0.41390
      H   25    0.08482      0.00000     0.41363    0.00155     0.41518
      H   26    0.18818      0.00000     0.30769    0.00413     0.31182
      H   27    0.10477      0.00000     0.39397    0.00126     0.39523
      H   28    0.08867      0.00000     0.40970    0.00163     0.41133
      H   29    0.08475      0.00000     0.41402    0.00123     0.41525
      H   30    0.09574      0.00000     0.40317    0.00109     0.40426
      H   31    0.09288      0.00000     0.40545    0.00166     0.40712
      H   32    0.20911      0.00000     0.28646    0.00443     0.29089
      H   33    0.11244      0.00000     0.38473    0.00283     0.38756
      H   34    0.11306      0.00000     0.38590    0.00104     0.38694
      H   35    0.11101      0.00000     0.38797    0.00102     0.38899
 =======================================================================
   * Total *   -0.00000     21.99269    47.75548    0.25184    70.00000

 Normal termination of Gaussian 16 at Fri Dec 11 23:41:57 2020.
