 Gaussian 16, Revision A.03,

 -----------------------------------------------------------
 # opt freq B3LYP/6-31G(d) empiricaldispersion=gd3bj scf=xqc
 -----------------------------------------------------------

 ------------------------------
 CID_11299945_JID_9046_neutraal
 ------------------------------
 Symbolic Z-matrix:
 Charge =  0 Multiplicity = 1

 SCF Done:  E(RB3LYP) =  -847.459105023     A.U. after   15 cycles
 SCF Done:  E(RB3LYP) =  -847.464963350     A.U. after   14 cycles
 SCF Done:  E(RB3LYP) =  -847.463116416     A.U. after   13 cycles
 SCF Done:  E(RB3LYP) =  -847.465719256     A.U. after   13 cycles
 SCF Done:  E(RB3LYP) =  -847.467155532     A.U. after   13 cycles
 SCF Done:  E(RB3LYP) =  -847.467720694     A.U. after   12 cycles
 SCF Done:  E(RB3LYP) =  -847.467139796     A.U. after   13 cycles
 SCF Done:  E(RB3LYP) =  -847.467886184     A.U. after   12 cycles
 SCF Done:  E(RB3LYP) =  -847.468005113     A.U. after   12 cycles
 SCF Done:  E(RB3LYP) =  -847.468103355     A.U. after   11 cycles
 SCF Done:  E(RB3LYP) =  -847.468721278     A.U. after    9 cycles
 SCF Done:  E(RB3LYP) =  -847.468726248     A.U. after   11 cycles
 SCF Done:  E(RB3LYP) =  -847.468726570     A.U. after    8 cycles
 SCF Done:  E(RB3LYP) =  -847.468726725     A.U. after    8 cycles
 SCF Done:  E(RB3LYP) =  -847.468726742     A.U. after    7 cycles
 Optimization completed.
    -- Stationary point found.
 Normal termination of Gaussian 16 at Sun Dec 13 12:55:08 2020.

 --------------------------------------------------------------------
 #N Geom=AllCheck Guess=TCheck SCRF=Check GenChk RB3LYP/6-31G(d) Freq
 --------------------------------------------------------------------

 Structure from the checkpoint file:  "JID_9046.chk"
 ------------------------------
 CID_11299945_JID_9046_neutraal
 ------------------------------
 Charge =  0 Multiplicity = 1

 SCF Done:  E(RB3LYP) =  -847.468726743     A.U. after    1 cycles

  Exact polarizability: 230.196   7.397 183.518 -10.120   5.136 114.327
 Approx polarizability: 312.291   1.753 282.448 -29.182  19.296 187.931

                      1                      2                      3
                      A                      A                      A
 Frequencies --     14.9971                39.9256                51.1626
 Red. masses --      4.3149                 4.4411                 2.7438
 Frc consts  --      0.0006                 0.0042                 0.0042
 IR Inten    --      0.1925                 0.2479                 3.7187

                      4                      5                      6
                      A                      A                      A
 Frequencies --     71.5607                86.1291               100.1464
 Red. masses --      3.6999                 3.4361                 1.9925
 Frc consts  --      0.0112                 0.0150                 0.0118
 IR Inten    --      0.4730                 0.5499                 2.0986

                      7                      8                      9
                      A                      A                      A
 Frequencies --    115.0585               149.1430               156.2556
 Red. masses --      3.5629                 3.9390                 2.0242
 Frc consts  --      0.0278                 0.0516                 0.0291
 IR Inten    --      0.3918                 2.6516                 0.0265

                     10                     11                     12
                      A                      A                      A
 Frequencies --    175.4952               189.5330               226.2962
 Red. masses --      4.5527                 2.4793                 1.6540
 Frc consts  --      0.0826                 0.0525                 0.0499
 IR Inten    --      0.4647                 2.4629                 0.1953

                     13                     14                     15
                      A                      A                      A
 Frequencies --    238.4138               269.7472               308.1287
 Red. masses --      2.0726                 3.0426                 2.4848
 Frc consts  --      0.0694                 0.1304                 0.1390
 IR Inten    --      2.0901                 4.7961                 2.7776

                     16                     17                     18
                      A                      A                      A
 Frequencies --    334.0037               339.5442               350.5657
 Red. masses --      2.7393                 4.5117                 3.3218
 Frc consts  --      0.1800                 0.3065                 0.2405
 IR Inten    --      0.1702                 1.8334                 1.7492

                     19                     20                     21
                      A                      A                      A
 Frequencies --    376.6471               416.0940               433.2654
 Red. masses --      2.9591                 3.2887                 3.8942
 Frc consts  --      0.2473                 0.3355                 0.4307
 IR Inten    --      7.0938                 4.2089                 1.4527

                     22                     23                     24
                      A                      A                      A
 Frequencies --    450.5991               500.5361               528.3371
 Red. masses --      4.0191                 3.2430                 2.5368
 Frc consts  --      0.4808                 0.4787                 0.4172
 IR Inten    --      4.7449                 5.9225                 2.6975

                     25                     26                     27
                      A                      A                      A
 Frequencies --    551.0042               572.4561               578.6870
 Red. masses --      3.7314                 3.6362                 3.3692
 Frc consts  --      0.6675                 0.7021                 0.6648
 IR Inten    --      4.7035                10.1612                 2.4451

                     28                     29                     30
                      A                      A                      A
 Frequencies --    598.3458               629.5465               679.3345
 Red. masses --      3.7128                 3.1738                 4.1769
 Frc consts  --      0.7832                 0.7411                 1.1357
 IR Inten    --      9.7611                 2.3456                 4.2250

                     31                     32                     33
                      A                      A                      A
 Frequencies --    690.1434               753.7546               768.7192
 Red. masses --      3.5715                 4.1001                 3.5867
 Frc consts  --      1.0023                 1.3725                 1.2488
 IR Inten    --      5.7372                10.7326                 1.9434

                     34                     35                     36
                      A                      A                      A
 Frequencies --    780.3448               805.8727               830.9068
 Red. masses --      1.4071                 3.2508                 2.4524
 Frc consts  --      0.5048                 1.2439                 0.9976
 IR Inten    --     37.5048                 3.3211                 1.4493

                     37                     38                     39
                      A                      A                      A
 Frequencies --    834.8775               881.8608               892.1875
 Red. masses --      2.4152                 1.9301                 1.7854
 Frc consts  --      0.9919                 0.8844                 0.8373
 IR Inten    --      8.3460                21.6631                11.0967

                     40                     41                     42
                      A                      A                      A
 Frequencies --    895.5412               909.0111               916.8524
 Red. masses --      1.9482                 1.4799                 2.3895
 Frc consts  --      0.9206                 0.7205                 1.1835
 IR Inten    --     18.0474                 9.2562                58.3972

                     43                     44                     45
                      A                      A                      A
 Frequencies --    959.6078               963.4263               978.3829
 Red. masses --      1.4472                 1.7494                 2.4846
 Frc consts  --      0.7852                 0.9567                 1.4013
 IR Inten    --      6.1054                 1.5709                93.3175

                     46                     47                     48
                      A                      A                      A
 Frequencies --    990.2446               995.3945              1039.8370
 Red. masses --      1.3426                 2.2696                 2.2232
 Frc consts  --      0.7757                 1.3249                 1.4163
 IR Inten    --      0.9683                21.4442                59.3317

                     49                     50                     51
                      A                      A                      A
 Frequencies --   1047.5158              1066.3764              1068.4097
 Red. masses --      1.7843                 2.0500                 1.4885
 Frc consts  --      1.1536                 1.3735                 1.0011
 IR Inten    --     10.1241                54.6164                 5.7561

                     52                     53                     54
                      A                      A                      A
 Frequencies --   1071.8144              1073.3919              1082.7553
 Red. masses --      2.1793                 2.1191                 2.1871
 Frc consts  --      1.4750                 1.4386                 1.5107
 IR Inten    --      9.7130                 2.1510                 6.9685

                     55                     56                     57
                      A                      A                      A
 Frequencies --   1118.0721              1138.5405              1148.3517
 Red. masses --      1.7898                 3.3137                 1.6826
 Frc consts  --      1.3182                 2.5308                 1.3073
 IR Inten    --     20.4459                73.2267                12.8789

                     58                     59                     60
                      A                      A                      A
 Frequencies --   1156.3874              1197.1719              1215.4589
 Red. masses --      2.0268                 1.0940                 2.3995
 Frc consts  --      1.5969                 0.9238                 2.0885
 IR Inten    --     30.8116                 3.1171               298.4000

                     61                     62                     63
                      A                      A                      A
 Frequencies --   1225.1109              1244.4089              1267.6840
 Red. masses --      1.7266                 1.8168                 2.3358
 Frc consts  --      1.5268                 1.6577                 2.2116
 IR Inten    --    124.1917                47.5930                56.6699

                     64                     65                     66
                      A                      A                      A
 Frequencies --   1294.9448              1300.1956              1321.5021
 Red. masses --      2.7526                 1.2396                 2.0223
 Frc consts  --      2.7195                 1.2346                 2.0808
 IR Inten    --     60.6610                13.7407                38.5318

                     67                     68                     69
                      A                      A                      A
 Frequencies --   1324.6442              1344.3986              1370.9444
 Red. masses --      1.1666                 7.3566                 1.3344
 Frc consts  --      1.2061                 7.8340                 1.4777
 IR Inten    --     12.5990                10.5115                 4.2715

                     70                     71                     72
                      A                      A                      A
 Frequencies --   1392.4324              1400.1483              1406.5999
 Red. masses --      1.3258                 1.4323                 1.4597
 Frc consts  --      1.5145                 1.6544                 1.7016
 IR Inten    --     16.6555                 3.1662                 5.8970

                     73                     74                     75
                      A                      A                      A
 Frequencies --   1412.4310              1417.8842              1427.3811
 Red. masses --      1.2607                 1.3458                 1.2218
 Frc consts  --      1.4818                 1.5941                 1.4667
 IR Inten    --     37.2282                 1.2746                25.7029

                     76                     77                     78
                      A                      A                      A
 Frequencies --   1441.2336              1445.3901              1486.6463
 Red. masses --      1.3309                 1.2943                 2.1437
 Frc consts  --      1.6287                 1.5932                 2.7914
 IR Inten    --      7.2165                 1.6321                11.2506

                     79                     80                     81
                      A                      A                      A
 Frequencies --   1499.6313              1502.4711              1512.3333
 Red. masses --      1.1191                 1.0956                 1.0856
 Frc consts  --      1.4828                 1.4571                 1.4629
 IR Inten    --      9.0058                 2.0012                 2.4494

                     82                     83                     84
                      A                      A                      A
 Frequencies --   1512.9252              1521.8510              1523.1026
 Red. masses --      1.0716                 2.3025                 1.1017
 Frc consts  --      1.4452                 3.1419                 1.5058
 IR Inten    --      5.9298                 4.3394                 4.7001

                     85                     86                     87
                      A                      A                      A
 Frequencies --   1529.2200              1537.2699              1545.0948
 Red. masses --      1.0644                 1.0956                 1.0627
 Frc consts  --      1.4666                 1.5254                 1.4947
 IR Inten    --      5.2259                 3.7677                11.5768

                     88                     89                     90
                      A                      A                      A
 Frequencies --   1620.8030              1650.5339              1697.8131
 Red. masses --      5.7150                 5.5944                 6.5972
 Frc consts  --      8.8456                 8.9795                11.2043
 IR Inten    --      1.1846                29.7960               226.4074

                     91                     92                     93
                      A                      A                      A
 Frequencies --   1777.2395              3038.7511              3045.1079
 Red. masses --     11.2714                 1.0699                 1.0605
 Frc consts  --     20.9759                 5.8210                 5.7938
 IR Inten    --    171.2125                25.3187                33.9950

                     94                     95                     96
                      A                      A                      A
 Frequencies --   3053.8085              3054.7367              3058.5589
 Red. masses --      1.0420                 1.0436                 1.0617
 Frc consts  --      5.7251                 5.7378                 5.8516
 IR Inten    --      8.1005                12.8792                22.1783

                     97                     98                     99
                      A                      A                      A
 Frequencies --   3061.0039              3087.7134              3100.8103
 Red. masses --      1.0641                 1.0997                 1.1024
 Frc consts  --      5.8742                 6.1771                 6.2452
 IR Inten    --     12.9058                38.6210                44.5832

                    100                    101                    102
                      A                      A                      A
 Frequencies --   3113.4927              3114.3811              3124.6094
 Red. masses --      1.1035                 1.0955                 1.0956
 Frc consts  --      6.3027                 6.2605                 6.3025
 IR Inten    --     34.0263                 6.2379                43.9000

                    103                    104                    105
                      A                      A                      A
 Frequencies --   3126.9385              3130.0061              3143.4245
 Red. masses --      1.0927                 1.0886                 1.1001
 Frc consts  --      6.2948                 6.2834                 6.4047
 IR Inten    --     26.5170                15.5982                12.1590

                    106                    107                    108
                      A                      A                      A
 Frequencies --   3182.0504              3185.8934              3195.9387
 Red. masses --      1.1038                 1.0856                 1.0902
 Frc consts  --      6.5852                 6.4923                 6.5605
 IR Inten    --      4.9355                 2.8902                20.5753

                    109                    110                    111
                      A                      A                      A
 Frequencies --   3200.3639              3208.9798              3219.2276
 Red. masses --      1.0895                 1.0938                 1.0951
 Frc consts  --      6.5747                 6.6362                 6.6865
 IR Inten    --      5.4254                19.5814                15.7043

 - Thermochemistry -
 -------------------
 Temperature   298.150 Kelvin.  Pressure   1.00000 Atm.
 Atom     1 has atomic number  6 and mass  12.00000

 Molecular mass:   260.14124 amu.
 Principal axes and moments of inertia in atomic units:
                           1         2         3
     Eigenvalues --  2341.771599186.38259**********
           X            1.00000  -0.00023   0.00197
           Y            0.00025   0.99996  -0.00935
           Z           -0.00196   0.00935   0.99995
 This molecule is an asymmetric top.
 Rotational symmetry number  1.
 Warning -- assumption of classical behavior for rotation
           may cause significant error
 Rotational temperatures (Kelvin)      0.03699     0.00943     0.00819
 Rotational constants (GHZ):           0.77067     0.19646     0.17070
 Zero-point vibrational energy     874483.6 (Joules/Mol)
                                  209.00659 (Kcal/Mol)
 Warning -- explicit consideration of  28 degrees of freedom as
           vibrations may cause significant error
 Vibrational temperatures:     21.58    57.44    73.61   102.96   123.92
          (Kelvin)            144.09   165.54   214.58   224.82   252.50
                              272.70   325.59   343.02   388.11   443.33
                              480.56   488.53   504.39   541.91   598.67
                              623.37   648.31   720.16   760.16   792.77
                              823.64   832.60   860.89   905.78   977.41
                              992.96  1084.48  1106.02  1122.74  1159.47
                             1195.49  1201.20  1268.80  1283.66  1288.48
                             1307.86  1319.15  1380.66  1386.16  1407.67
                             1424.74  1432.15  1496.09  1507.14  1534.28
                             1537.20  1542.10  1544.37  1557.84  1608.66
                             1638.11  1652.22  1663.78  1722.46  1748.77
                             1762.66  1790.43  1823.91  1863.14  1870.69
                             1901.35  1905.87  1934.29  1972.48  2003.40
                             2014.50  2023.78  2032.17  2040.02  2053.68
                             2073.61  2079.59  2138.95  2157.63  2161.72
                             2175.91  2176.76  2189.60  2191.40  2200.21
                             2211.79  2223.05  2331.97  2374.75  2442.77
                             2557.05  4372.09  4381.23  4393.75  4395.08
                             4400.58  4404.10  4442.53  4461.37  4479.62
                             4480.90  4495.62  4498.97  4503.38  4522.69
                             4578.26  4583.79  4598.24  4604.61  4617.01
                             4631.75

 Zero-point correction=                           0.333073 (Hartree/Particle)
 Thermal correction to Energy=                    0.351120
 Thermal correction to Enthalpy=                  0.352064
 Thermal correction to Gibbs Free Energy=         0.285563
 Sum of electronic and zero-point Energies=           -847.135654
 Sum of electronic and thermal Energies=              -847.117607
 Sum of electronic and thermal Enthalpies=            -847.116663
 Sum of electronic and thermal Free Energies=         -847.183164

                     E (Thermal)             CV                S
                      KCal/Mol        Cal/Mol-Kelvin    Cal/Mol-Kelvin
 Total                  220.331             69.235            139.964
 Electronic               0.000              0.000              0.000
 Translational            0.889              2.981             42.568
 Rotational               0.889              2.981             33.786
 Vibrational            218.553             63.274             63.610
 Vibration     1          0.593              1.986              7.206
 Vibration     2          0.594              1.981              5.263
 Vibration     3          0.595              1.977              4.772
 Vibration     4          0.598              1.968              4.110
 Vibration     5          0.601              1.959              3.746
 Vibration     6          0.604              1.949              3.451
 Vibration     7          0.608              1.937              3.182
 Vibration     8          0.618              1.904              2.683
 Vibration     9          0.620              1.896              2.595
 Vibration    10          0.627              1.873              2.376
 Vibration    11          0.633              1.854              2.232
 Vibration    12          0.650              1.801              1.908
 Vibration    13          0.656              1.782              1.815
 Vibration    14          0.674              1.729              1.598
 Vibration    15          0.698              1.658              1.372
 Vibration    16          0.716              1.608              1.241
 Vibration    17          0.719              1.596              1.214
 Vibration    18          0.727              1.574              1.164
 Vibration    19          0.747              1.520              1.053
 Vibration    20          0.779              1.435              0.905
 Vibration    21          0.794              1.398              0.848
 Vibration    22          0.809              1.360              0.794
 Vibration    23          0.856              1.249              0.657
 Vibration    24          0.883              1.187              0.591
 Vibration    25          0.906              1.137              0.542
 Vibration    26          0.929              1.091              0.500
 Vibration    27          0.935              1.077              0.488
 Vibration    28          0.956              1.035              0.453

 Optimization completed.
    -- Stationary point found.
 Normal termination of Gaussian 16 at Sun Dec 13 13:14:42 2020.

 ----------------------------------------------------------------------
 # B3LYP/6-311++G(d,p) empiricaldispersion=gd3bj scf=xqc pop=npa geom=c
 heck
 ----------------------------------------------------------------------

 --------------------------------------
 CID_11299945_JID_9046_Energie_neutraal
 --------------------------------------
 Structure from the checkpoint file:  "JID_9046.chk"
 Charge =  0 Multiplicity = 1

 SCF Done:  E(RB3LYP) =  -847.699972052     A.U. after   15 cycles
 Normal termination of Gaussian 16 at Sun Dec 13 13:23:44 2020.

 ----------------------------------------------------------------------
 # B3LYP/6-311++G(d,p) empiricaldispersion=gd3bj scf=xqc pop=npa geom=c
 heck
 ----------------------------------------------------------------------

 ------------------------------------
 CID_11299945_JID_9046_Energie_kation
 ------------------------------------
 Structure from the checkpoint file:  "JID_9046.chk"
 Charge =  1 Multiplicity = 2

 SCF Done:  E(UB3LYP) =  -847.413671900     A.U. after   26 cycles
 Normal termination of Gaussian 16 at Sun Dec 13 13:46:13 2020.
 Gaussian 16:  ES64L-G16RevA.03 25-Dec-2016

 ----------------------------------------------------------------------
 # B3LYP/6-311++G(d,p) empiricaldispersion=gd3bj scf=xqc pop=npa geom=c
 heck
 ----------------------------------------------------------------------

 -----------------------------------
 CID_11299945_JID_9046_Energie_anion
 -----------------------------------
 Structure from the checkpoint file:  "JID_9046.chk"
 Charge = -1 Multiplicity = 2

                         Standard orientation:
 ---------------------------------------------------------------------
 Center     Atomic      Atomic             Coordinates (Angstroms)
 Number     Number       Type             X           Y           Z
 ---------------------------------------------------------------------
      1          6           0       -0.251787    1.147138    1.229020
      2          6           0       -0.376862    0.195505    0.055305
      3          6           0        0.570292   -0.055107   -0.869377
      4          8           0        1.843019    0.417913   -1.016796
      5          6           0        2.603247    0.903012    0.096565
      6          6           0        3.998119    1.195471   -0.450560
      7          6           0        4.728820   -0.103412   -0.813345
      8          6           0        4.689042   -1.070178    0.377581
      9          6           0        3.250169   -1.266881    0.846146
     10          8           0        2.622269   -0.014331    1.157718
     11          6           0       -1.645920   -0.572879   -0.078998
     12          6           0       -1.589966   -1.969379   -0.214293
     13          6           0       -2.744396   -2.747476   -0.271071
     14          6           0       -3.996403   -2.145497   -0.147895
     15          6           0       -4.074841   -0.764825    0.007064
     16          6           0       -2.922094    0.032045    0.010792
     17          6           0       -3.160569    1.515392    0.073997
     18          8           0       -4.038023    1.969040    0.791410
     19          6           0       -2.405753    2.421947   -0.883844
     20          1           0        0.574623    0.847436    1.881252
     21          1           0       -1.166553    1.137337    1.826426
     22          1           0       -0.080195    2.182022    0.912666
     23          1           0        0.343673   -0.714797   -1.702245
     24          1           0        2.136305    1.801079    0.505436
     25          1           0        4.549156    1.731350    0.331858
     26          1           0        3.910451    1.862434   -1.314256
     27          1           0        4.237714   -0.564231   -1.678546
     28          1           0        5.762828    0.112467   -1.104433
     29          1           0        5.123606   -2.041900    0.112735
     30          1           0        5.280394   -0.661819    1.207615
     31          1           0        2.661743   -1.789960    0.080054
     32          1           0        3.198172   -1.845355    1.771698
     33          1           0       -0.614789   -2.446179   -0.235549
     34          1           0       -2.662556   -3.825290   -0.381865
     35          1           0       -4.901493   -2.745513   -0.165405
     36          1           0       -5.036342   -0.271743    0.107880
     37          1           0       -2.287786    3.412769   -0.438348
     38          1           0       -1.442709    2.018818   -1.197953
     39          1           0       -3.030948    2.530837   -1.780199
 ---------------------------------------------------------------------

 SCF Done:  E(UB3LYP) =  -847.705363527     A.U. after   33 cycles
 SCF Done:  E(UB3LYP) =  -847.705363527     a.u. after    1 cycles

 The electronic state is 2-A.
 Alpha  occ. eigenvalues --  -19.04440 -19.04097 -18.95247 -10.17932 -10.12989
 Alpha  occ. eigenvalues --  -10.10034 -10.09989 -10.08584 -10.08421 -10.08305
 Alpha  occ. eigenvalues --  -10.05876 -10.05381 -10.04904 -10.04881 -10.04631
 Alpha  occ. eigenvalues --  -10.04447 -10.04396 -10.03962 -10.03931  -0.98717
 Alpha  occ. eigenvalues --   -0.92722  -0.89090  -0.73677  -0.71873  -0.69141
 Alpha  occ. eigenvalues --   -0.67521  -0.63309  -0.61106  -0.59846  -0.58832
 Alpha  occ. eigenvalues --   -0.56184  -0.54774  -0.50696  -0.48775  -0.47583
 Alpha  occ. eigenvalues --   -0.44333  -0.42945  -0.41724  -0.39090  -0.38330
 Alpha  occ. eigenvalues --   -0.37893  -0.36193  -0.35076  -0.34533  -0.33715
 Alpha  occ. eigenvalues --   -0.32529  -0.31522  -0.31094  -0.30952  -0.30533
 Alpha  occ. eigenvalues --   -0.30026  -0.29296  -0.28738  -0.28113  -0.27341
 Alpha  occ. eigenvalues --   -0.26943  -0.25722  -0.25578  -0.24882  -0.24411
 Alpha  occ. eigenvalues --   -0.23419  -0.22562  -0.22278  -0.21310  -0.19961
 Alpha  occ. eigenvalues --   -0.18214  -0.14627  -0.13226  -0.10769  -0.10067
 Alpha  occ. eigenvalues --    0.03790
 Alpha virt. eigenvalues --    0.05236   0.07090   0.07641   0.07935   0.08638
 Alpha virt. eigenvalues --    0.09373   0.10070   0.10151   0.10435   0.10570
 Alpha virt. eigenvalues --    0.10763   0.11209   0.12349   0.12460   0.12828

  Beta  occ. eigenvalues --  -19.04408 -19.04094 -18.94921 -10.17925 -10.12986
  Beta  occ. eigenvalues --  -10.09921 -10.09745 -10.08571 -10.08408 -10.08295
  Beta  occ. eigenvalues --  -10.05900 -10.05224 -10.04945 -10.04891 -10.04603
  Beta  occ. eigenvalues --  -10.04406 -10.04204 -10.03985 -10.03809  -0.98673
  Beta  occ. eigenvalues --   -0.92672  -0.88474  -0.73433  -0.71842  -0.69050
  Beta  occ. eigenvalues --   -0.67420  -0.62916  -0.60955  -0.59669  -0.58731
  Beta  occ. eigenvalues --   -0.56158  -0.54713  -0.50493  -0.48490  -0.47426
  Beta  occ. eigenvalues --   -0.44274  -0.42893  -0.41465  -0.39029  -0.38098
  Beta  occ. eigenvalues --   -0.37846  -0.36106  -0.35001  -0.34448  -0.33484
  Beta  occ. eigenvalues --   -0.32400  -0.31447  -0.30882  -0.30799  -0.30388
  Beta  occ. eigenvalues --   -0.29830  -0.29247  -0.28589  -0.27946  -0.27198
  Beta  occ. eigenvalues --   -0.26796  -0.25627  -0.25537  -0.24827  -0.23904
  Beta  occ. eigenvalues --   -0.23290  -0.22363  -0.22039  -0.20391  -0.19645
  Beta  occ. eigenvalues --   -0.18195  -0.14048  -0.12415  -0.10416  -0.09526
  Beta virt. eigenvalues --    0.05716   0.07213   0.07733   0.07889   0.08426
  Beta virt. eigenvalues --    0.08869   0.09405   0.10159   0.10199   0.10483
  Beta virt. eigenvalues --    0.10532   0.10875   0.11266   0.12375   0.12416

 Mulliken charges and spin densities:
               1          2
     1  C   -0.549908  -0.131908
     2  C    0.608265   0.123880
     3  C   -0.848130  -0.038104
     4  O    0.004499   0.009867
     5  C   -0.409226  -0.025848
     6  C    0.008231  -0.504900
     7  C   -0.320750   0.182143
     8  C    0.187944  -0.662671
     9  C   -0.224442   0.078094
    10  O   -0.012358   0.019282
    11  C    0.569686   0.160957
    12  C   -0.308066  -0.095609
    13  C   -0.443322   0.139987
    14  C   -0.517035   0.034413
    15  C   -0.189877   0.022215
    16  C    0.727246   0.091695
    17  C   -0.154519   0.159939
    18  O   -0.316514   0.117286
    19  C   -0.661182  -0.051374
    20  H    0.193486   0.035036
    21  H    0.187342   0.002042
    22  H    0.023941   0.103634
    23  H    0.158573   0.018237
    24  H    0.199642   0.013049
    25  H   -0.049929   0.204800
    26  H    0.077932   0.098925
    27  H    0.183688  -0.032931
    28  H   -0.280708   0.457713
    29  H   -0.083613   0.232394
    30  H    0.008551   0.138493
    31  H    0.183731  -0.038060
    32  H    0.120202   0.049621
    33  H    0.087510   0.022711
    34  H    0.127034  -0.012848
    35  H    0.113374  -0.002001
    36  H    0.166901  -0.000740
    37  H    0.107762   0.037054
    38  H    0.175927   0.035400
    39  H    0.148112   0.008127
 Sum of Mulliken charges =  -1.00000   1.00000

 Dipole moment (field-independent basis, Debye):
    X=              4.5238    Y=             -2.4721    Z=             -1.3846  Tot=              5.3379
 Quadrupole moment (field-independent basis, Debye-Ang):
   XX=           -204.9827   YY=           -139.7245   ZZ=           -133.2611
   XY=              6.9666   XZ=              7.5974   YZ=             -3.1876

 Summary of Natural Population Analysis:

                                       Natural Population
                Natural  -----------------------------------------------
    Atom  No    Charge         Core      Valence    Rydberg      Total
 -----------------------------------------------------------------------
      C    1   -0.30828      0.99962     2.30200    0.00666     3.30828
      C    2   -0.06567      0.99947     2.05603    0.01017     3.06567
      C    3    0.09893      0.99934     1.88929    0.01244     2.90107
      O    4   -0.29496      0.99986     3.28604    0.00905     4.29496
      C    5    0.21995      0.99956     1.76209    0.01839     2.78005
      C    6   -0.20647      0.99961     2.19722    0.00964     3.20647
      C    7   -0.19388      0.99963     2.18517    0.00908     3.19388
      C    8   -0.20564      0.99963     2.19746    0.00855     3.20564
      C    9   -0.01269      0.99957     2.00211    0.01102     3.01269
      O   10   -0.30155      0.99988     3.29323    0.00844     4.30155
      C   11    0.01209      0.99945     1.97784    0.01062     2.98791
      C   12   -0.11677      0.99953     2.10901    0.00822     3.11677
      C   13   -0.07011      0.99957     2.06140    0.00914     3.07011
      C   14   -0.11236      0.99957     2.10363    0.00917     3.11236
      C   15   -0.07462      0.99953     2.06671    0.00837     3.07462
      C   16   -0.04220      0.99943     2.03055    0.01222     3.04220
      C   17    0.30771      0.99964     1.67232    0.02033     2.69229
      O   18   -0.27141      0.99988     3.26493    0.00660     4.27141
      C   19   -0.33460      0.99963     2.32897    0.00600     3.33460
      H   20    0.11174      0.00000     0.38700    0.00126     0.38826
      H   21    0.11116      0.00000     0.38805    0.00079     0.38884
      H   22    0.10015      0.00000     0.39879    0.00106     0.39985
      H   23    0.08687      0.00000     0.41205    0.00108     0.41313
      H   24    0.08637      0.00000     0.41191    0.00173     0.41363
      H   25    0.09989      0.00000     0.39898    0.00114     0.40011
      H   26    0.10579      0.00000     0.39316    0.00105     0.39421
      H   27    0.10021      0.00000     0.39855    0.00124     0.39979
      H   28    0.09998      0.00000     0.39885    0.00117     0.40002
      H   29    0.09977      0.00000     0.39935    0.00087     0.40023
      H   30    0.09612      0.00000     0.40262    0.00126     0.40388
      H   31    0.08541      0.00000     0.41329    0.00130     0.41459
      H   32    0.09113      0.00000     0.40790    0.00097     0.40887
      H   33    0.09643      0.00000     0.40229    0.00129     0.40357
      H   34    0.08968      0.00000     0.40937    0.00096     0.41032
      H   35    0.09161      0.00000     0.40740    0.00099     0.40839
      H   36    0.10293      0.00000     0.39597    0.00110     0.39707
      H   37    0.10365      0.00000     0.39470    0.00164     0.39635
      H   38    0.10691      0.00000     0.39185    0.00123     0.39309
      H   39    0.10673      0.00000     0.39254    0.00073     0.39327
 =======================================================================
   * Total *    0.00000     18.99240    50.79062    0.21698    70.00000

 Normal termination of Gaussian 16 at Sun Dec 13 14:13:44 2020.
