 Gaussian 16, Revision A.03,

 -----------------------------------------------------------
 # opt freq B3LYP/6-31G(d) empiricaldispersion=gd3bj scf=xqc
 -----------------------------------------------------------

 ------------------------------
 CID_57712987_JID_6972_neutraal
 ------------------------------
 Symbolic Z-matrix:
 Charge =  0 Multiplicity = 1

 SCF Done:  E(RB3LYP) =  -724.484732846     A.U. after   15 cycles
 SCF Done:  E(RB3LYP) =  -724.488318601     A.U. after   12 cycles
 SCF Done:  E(RB3LYP) =  -724.488843149     A.U. after   12 cycles
 SCF Done:  E(RB3LYP) =  -724.489182304     A.U. after   12 cycles
 SCF Done:  E(RB3LYP) =  -724.489461615     A.U. after   15 cycles
 SCF Done:  E(RB3LYP) =  -724.490264909     A.U. after   11 cycles
 SCF Done:  E(RB3LYP) =  -724.490987484     A.U. after   13 cycles
 SCF Done:  E(RB3LYP) =  -724.491205467     A.U. after   14 cycles
 SCF Done:  E(RB3LYP) =  -724.491284461     A.U. after   11 cycles
 SCF Done:  E(RB3LYP) =  -724.491298852     A.U. after   11 cycles
 SCF Done:  E(RB3LYP) =  -724.491441386     A.U. after   10 cycles
 SCF Done:  E(RB3LYP) =  -724.491441996     A.U. after   10 cycles
 SCF Done:  E(RB3LYP) =  -724.491442023     A.U. after    7 cycles
 SCF Done:  E(RB3LYP) =  -724.491442030     A.U. after    7 cycles
 Optimization completed.
    -- Stationary point found.
 Normal termination of Gaussian 16 at Fri Dec 11 01:32:56 2020.

 --------------------------------------------------------------------
 #N Geom=AllCheck Guess=TCheck SCRF=Check GenChk RB3LYP/6-31G(d) Freq
 --------------------------------------------------------------------

 Structure from the checkpoint file:  "JID_6972.chk"
 ------------------------------
 CID_57712987_JID_6972_neutraal
 ------------------------------
 Charge =  0 Multiplicity = 1

 SCF Done:  E(RB3LYP) =  -724.491442030     A.U. after    1 cycles

  Exact polarizability: 165.840   9.257 141.903  13.882  10.632  97.612
 Approx polarizability: 214.303  16.424 240.065  26.491  31.526 167.686

                      1                      2                      3
                      A                      A                      A
 Frequencies --     17.5394                18.6091                32.4552
 Red. masses --      3.8187                 3.8536                 3.8398
 Frc consts  --      0.0007                 0.0008                 0.0024
 IR Inten    --      0.0574                 0.2913                 1.2281

                      4                      5                      6
                      A                      A                      A
 Frequencies --     44.4460                52.5604               102.3959
 Red. masses --      1.6057                 4.0524                 5.8097
 Frc consts  --      0.0019                 0.0066                 0.0359
 IR Inten    --      0.7175                 0.3651                 5.0502

                      7                      8                      9
                      A                      A                      A
 Frequencies --    149.4715               185.3080               220.3119
 Red. masses --      4.5937                 3.0295                 4.7100
 Frc consts  --      0.0605                 0.0613                 0.1347
 IR Inten    --      4.6505                 4.7824                 1.0234

                     10                     11                     12
                      A                      A                      A
 Frequencies --    280.9514               292.8658               358.9177
 Red. masses --      5.0648                 4.3141                 6.5210
 Frc consts  --      0.2355                 0.2180                 0.4949
 IR Inten    --      2.5084                 2.2447                 0.1552

                     13                     14                     15
                      A                      A                      A
 Frequencies --    396.6202               415.8350               448.0687
 Red. masses --      2.1613                 2.9719                 3.9000
 Frc consts  --      0.2003                 0.3028                 0.4613
 IR Inten    --      0.5922                 0.0612                 1.1335

                     16                     17                     18
                      A                      A                      A
 Frequencies --    486.8555               527.4996               593.1116
 Red. masses --      3.9188                 5.4848                 4.4738
 Frc consts  --      0.5473                 0.8992                 0.9273
 IR Inten    --      0.9242                 7.2100                19.1124

                     19                     20                     21
                      A                      A                      A
 Frequencies --    617.5068               637.3675               694.5429
 Red. masses --      5.1890                 6.2930                 5.4731
 Frc consts  --      1.1658                 1.5062                 1.5555
 IR Inten    --      0.6400                 0.0184                 5.7385

                     22                     23                     24
                      A                      A                      A
 Frequencies --    703.3866               711.3701               726.4122
 Red. masses --      5.4633                 2.6491                 2.6509
 Frc consts  --      1.5926                 0.7898                 0.8241
 IR Inten    --      5.2109                 7.9401                35.4209

                     25                     26                     27
                      A                      A                      A
 Frequencies --    750.8232               760.1831               796.6470
 Red. masses --      2.4203                 1.2379                 4.1833
 Frc consts  --      0.8039                 0.4215                 1.5642
 IR Inten    --     30.1236                48.1343                 2.6670

                     28                     29                     30
                      A                      A                      A
 Frequencies --    840.6250               855.3310               858.0806
 Red. masses --      1.2895                 3.5942                 1.2696
 Frc consts  --      0.5369                 1.5493                 0.5508
 IR Inten    --      2.8690                 5.4143                 0.4310

                     31                     32                     33
                      A                      A                      A
 Frequencies --    923.1846               940.0771               966.7579
 Red. masses --      1.8289                 3.3139                 1.3520
 Frc consts  --      0.9184                 1.7255                 0.7445
 IR Inten    --      0.6986                10.6727                 0.1213

                     34                     35                     36
                      A                      A                      A
 Frequencies --    972.7707               995.7993              1020.9019
 Red. masses --      2.1299                 1.2613                 6.2173
 Frc consts  --      1.1875                 0.7369                 3.8178
 IR Inten    --      2.4149                 0.1333                 5.8295

                     37                     38                     39
                      A                      A                      A
 Frequencies --   1022.8247              1043.7566              1061.3943
 Red. masses --      6.2308                 2.0876                 2.2429
 Frc consts  --      3.8405                 1.3400                 1.4887
 IR Inten    --      0.9166                 5.2914                 3.3046

                     40                     41                     42
                      A                      A                      A
 Frequencies --   1079.2798              1104.5214              1116.0240
 Red. masses --      1.5743                 1.5780                 1.6943
 Frc consts  --      1.0805                 1.1342                 1.2433
 IR Inten    --     21.1399                18.0895                 4.6543

                     43                     44                     45
                      A                      A                      A
 Frequencies --   1163.0274              1165.3788              1194.4039
 Red. masses --      1.2985                 1.5110                 1.0968
 Frc consts  --      1.0349                 1.2090                 0.9219
 IR Inten    --      0.0059               182.6793                 0.1153

                     46                     47                     48
                      A                      A                      A
 Frequencies --   1217.1680              1223.7291              1245.9902
 Red. masses --      1.1800                 2.4828                 1.7748
 Frc consts  --      1.0300                 2.1906                 1.6234
 IR Inten    --      1.3508                20.0500                 9.4957

                     49                     50                     51
                      A                      A                      A
 Frequencies --   1287.0638              1333.3179              1347.3227
 Red. masses --      2.9240                 1.6056                 5.4199
 Frc consts  --      2.8538                 1.6818                 5.7967
 IR Inten    --    413.1765                66.2826                24.8359

                     52                     53                     54
                      A                      A                      A
 Frequencies --   1365.0167              1373.0763              1413.8128
 Red. masses --      5.0378                 1.2744                 5.3298
 Frc consts  --      5.5306                 1.4156                 6.2769
 IR Inten    --      3.5721                 0.7550                 3.2084

                     55                     56                     57
                      A                      A                      A
 Frequencies --   1459.7580              1482.8735              1502.4936
 Red. masses --      4.2182                 1.4369                 1.3233
 Frc consts  --      5.2959                 1.8616                 1.7601
 IR Inten    --    148.3380                37.4152                 5.7654

                     58                     59                     60
                      A                      A                      A
 Frequencies --   1502.7149              1506.4449              1511.6952
 Red. masses --      1.0443                 1.6581                 3.2011
 Frc consts  --      1.3894                 2.2169                 4.3100
 IR Inten    --      7.4530                11.2984                91.2587

                     61                     62                     63
                      A                      A                      A
 Frequencies --   1548.1704              1550.2926              1586.0436
 Red. masses --      2.1634                 1.2309                 5.3430
 Frc consts  --      3.0551                 1.7430                 7.9189
 IR Inten    --     14.9052                21.3472                82.7994

                     64                     65                     66
                      A                      A                      A
 Frequencies --   1648.8967              1666.6055              1839.8487
 Red. masses --      5.5897                 5.5661                11.8992
 Frc consts  --      8.9541                 9.1089                23.7319
 IR Inten    --      1.2179                 4.8793               227.3541

                     67                     68                     69
                      A                      A                      A
 Frequencies --   3071.2329              3084.6274              3138.4855
 Red. masses --      1.0322                 1.0612                 1.1063
 Frc consts  --      5.7364                 5.9491                 6.4207
 IR Inten    --     50.7386                10.3858                15.0091

                     70                     71                     72
                      A                      A                      A
 Frequencies --   3146.6346              3165.6672              3181.5353
 Red. masses --      1.1040                 1.1046                 1.0851
 Frc consts  --      6.4404                 6.5218                 6.4715
 IR Inten    --      6.6553                 9.8489                 2.3114

                     73                     74                     75
                      A                      A                      A
 Frequencies --   3188.1763              3197.2925              3205.4697
 Red. masses --      1.0877                 1.0913                 1.0942
 Frc consts  --      6.5137                 6.5729                 6.6239
 IR Inten    --      1.3129                21.7829                32.0162

                     76                     77                     78
                      A                      A                      A
 Frequencies --   3213.1963              3273.1795              3346.4376
 Red. masses --      1.0979                 1.0966                 1.0995
 Frc consts  --      6.6786                 6.9223                 7.2547
 IR Inten    --     12.9758                 1.9353                 3.6028

 - Thermochemistry -
 -------------------
 Temperature   298.150 Kelvin.  Pressure   1.00000 Atm.
 Atom     1 has atomic number  6 and mass  12.00000

 Molecular mass:   216.08988 amu.
 Principal axes and moments of inertia in atomic units:
                           1         2         3
     Eigenvalues --  1647.386696808.686547689.33944
           X            0.99996   0.00900  -0.00032
           Y           -0.00900   0.99996   0.00037
           Z            0.00032  -0.00037   1.00000
 This molecule is an asymmetric top.
 Rotational symmetry number  1.
 Warning -- assumption of classical behavior for rotation
           may cause significant error
 Rotational temperatures (Kelvin)      0.05258     0.01272     0.01126
 Rotational constants (GHZ):           1.09552     0.26506     0.23471
 Zero-point vibrational energy     587189.8 (Joules/Mol)
                                  140.34173 (Kcal/Mol)
 Warning -- explicit consideration of  19 degrees of freedom as
           vibrations may cause significant error
 Vibrational temperatures:     25.24    26.77    46.70    63.95    75.62
          (Kelvin)            147.32   215.06   266.62   316.98   404.23
                              421.37   516.40   570.65   598.29   644.67
                              700.48   758.95   853.36   888.45   917.03
                              999.29  1012.02  1023.50  1045.15  1080.27
                             1093.73  1146.20  1209.47  1230.63  1234.59
                             1328.26  1352.56  1390.95  1399.60  1432.73
                             1468.85  1471.62  1501.73  1527.11  1552.84
                             1589.16  1605.71  1673.34  1676.72  1718.48
                             1751.23  1760.67  1792.70  1851.80  1918.35
                             1938.50  1963.95  1975.55  2034.16  2100.27
                             2133.52  2161.75  2162.07  2167.44  2174.99
                             2227.47  2230.53  2281.96  2372.39  2397.87
                             2647.13  4418.82  4438.09  4515.58  4527.31
                             4554.69  4577.52  4587.07  4600.19  4611.96
                             4623.07  4709.38  4814.78

 Zero-point correction=                           0.223649 (Hartree/Particle)
 Thermal correction to Energy=                    0.237833
 Thermal correction to Enthalpy=                  0.238777
 Thermal correction to Gibbs Free Energy=         0.178162
 Sum of electronic and zero-point Energies=           -724.267793
 Sum of electronic and thermal Energies=              -724.253609
 Sum of electronic and thermal Enthalpies=            -724.252665
 Sum of electronic and thermal Free Energies=         -724.313280

                     E (Thermal)             CV                S
                      KCal/Mol        Cal/Mol-Kelvin    Cal/Mol-Kelvin
 Total                  149.243             52.200            127.576
 Electronic               0.000              0.000              0.000
 Translational            0.889              2.981             42.015
 Rotational               0.889              2.981             32.822
 Vibrational            147.465             46.239             52.738
 Vibration     1          0.593              1.986              6.895
 Vibration     2          0.593              1.986              6.777
 Vibration     3          0.594              1.983              5.673
 Vibration     4          0.595              1.980              5.050
 Vibration     5          0.596              1.977              4.719
 Vibration     6          0.604              1.947              3.408
 Vibration     7          0.618              1.903              2.679
 Vibration     8          0.631              1.860              2.274
 Vibration     9          0.647              1.810              1.957
 Vibration    10          0.681              1.709              1.528
 Vibration    11          0.688              1.687              1.457
 Vibration    12          0.734              1.557              1.127
 Vibration    13          0.763              1.477              0.975
 Vibration    14          0.779              1.436              0.906
 Vibration    15          0.807              1.365              0.802
 Vibration    16          0.843              1.279              0.692
 Vibration    17          0.882              1.189              0.593
 Vibration    18          0.951              1.046              0.462
 Vibration    19          0.977              0.995              0.421

 Optimization completed on the basis of negligible forces.
    -- Stationary point found.
 Normal termination of Gaussian 16 at Fri Dec 11 01:40:38 2020.

 ----------------------------------------------------------------------
 # B3LYP/6-311++G(d,p) empiricaldispersion=gd3bj scf=xqc pop=npa geom=c
 heck
 ----------------------------------------------------------------------

 --------------------------------------
 CID_57712987_JID_6972_Energie_neutraal
 --------------------------------------
 Structure from the checkpoint file:  "JID_6972.chk"
 Charge =  0 Multiplicity = 1

 SCF Done:  E(RB3LYP) =  -724.688286318     A.U. after   15 cycles
 Normal termination of Gaussian 16 at Fri Dec 11 01:43:38 2020.

 ----------------------------------------------------------------------
 # B3LYP/6-311++G(d,p) empiricaldispersion=gd3bj scf=xqc pop=npa geom=c
 heck
 ----------------------------------------------------------------------

 ------------------------------------
 CID_57712987_JID_6972_Energie_kation
 ------------------------------------
 Structure from the checkpoint file:  "JID_6972.chk"
 Charge =  1 Multiplicity = 2

 SCF Done:  E(UB3LYP) =  -724.379806964     A.U. after   33 cycles
 SCF Done:  E(UB3LYP) =  -724.381071800     a.u. after   10 cycles
 Normal termination of Gaussian 16 at Fri Dec 11 03:03:02 2020.
 Gaussian 16:  ES64L-G16RevA.03 25-Dec-2016

 ----------------------------------------------------------------------
 # B3LYP/6-311++G(d,p) empiricaldispersion=gd3bj scf=xqc pop=npa geom=c
 heck
 ----------------------------------------------------------------------

 -----------------------------------
 CID_57712987_JID_6972_Energie_anion
 -----------------------------------
 Structure from the checkpoint file:  "JID_6972.chk"
 Charge = -1 Multiplicity = 2

                         Standard orientation:
 ---------------------------------------------------------------------
 Center     Atomic      Atomic             Coordinates (Angstroms)
 Number     Number       Type             X           Y           Z
 ---------------------------------------------------------------------
      1          6           0       -4.670847   -1.725088   -0.081725
      2          7           0       -3.662137   -0.709570    0.132921
      3          6           0       -3.682908    0.325819    1.010821
      4          6           0       -2.498756    1.024170    0.854623
      5          6           0       -1.832540    0.303314   -0.161752
      6          7           0       -2.526401   -0.741211   -0.601325
      7          8           0       -0.610088    0.490214   -0.763792
      8          6           0        0.223090    1.506275   -0.401255
      9          8           0       -0.035132    2.358304    0.413641
     10          6           0        1.535525    1.369554   -1.150365
     11          6           0        2.405261    0.307500   -0.501331
     12          6           0        2.183647   -1.050281   -0.760349
     13          6           0        2.965452   -2.023106   -0.139890
     14          6           0        3.975287   -1.650665    0.749618
     15          6           0        4.196651   -0.299705    1.017138
     16          6           0        3.413073    0.673423    0.396085
     17          1           0       -5.021961   -1.693760   -1.117002
     18          1           0       -4.257524   -2.716433    0.124709
     19          1           0       -5.508177   -1.532941    0.592090
     20          1           0       -4.522542    0.489457    1.671295
     21          1           0       -2.162582    1.902341    1.375436
     22          1           0        1.325442    1.107974   -2.192051
     23          1           0        2.028714    2.343285   -1.120694
     24          1           0        1.389134   -1.341357   -1.441213
     25          1           0        2.785629   -3.073482   -0.351307
     26          1           0        4.585504   -2.409564    1.231145
     27          1           0        4.979008   -0.001110    1.709302
     28          1           0        3.583276    1.725660    0.608616
 ---------------------------------------------------------------------

 SCF Done:  E(UB3LYP) =  -724.677748622     A.U. after   33 cycles
 SCF Done:  E(UB3LYP) =  -724.677748622     a.u. after    1 cycles

 The electronic state is 2-A.
 Alpha  occ. eigenvalues --  -19.07992 -19.00892 -14.29272 -14.22600 -10.19743
 Alpha  occ. eigenvalues --  -10.15201 -10.11021 -10.10894 -10.08845 -10.08294
 Alpha  occ. eigenvalues --  -10.07914 -10.07861 -10.07622 -10.07347 -10.07294
 Alpha  occ. eigenvalues --  -10.06746  -1.01945  -0.95654  -0.92766  -0.76402
 Alpha  occ. eigenvalues --   -0.74796  -0.69244  -0.69161  -0.65050  -0.62986
 Alpha  occ. eigenvalues --   -0.59633  -0.55233  -0.51151  -0.50083  -0.48538
 Alpha  occ. eigenvalues --   -0.45406  -0.42384  -0.40612  -0.39338  -0.38762
 Alpha  occ. eigenvalues --   -0.38347  -0.37213  -0.36387  -0.35401  -0.33701
 Alpha  occ. eigenvalues --   -0.33044  -0.32732  -0.31737  -0.30782  -0.29664
 Alpha  occ. eigenvalues --   -0.29198  -0.27707  -0.26660  -0.25458  -0.24706
 Alpha  occ. eigenvalues --   -0.24020  -0.20469  -0.18732  -0.16093  -0.15430
 Alpha  occ. eigenvalues --   -0.15125  -0.13961   0.04394
 Alpha virt. eigenvalues --    0.05509   0.06751   0.07831   0.08049   0.08138
 Alpha virt. eigenvalues --    0.08386   0.08848   0.09888   0.10053   0.10294
 Alpha virt. eigenvalues --    0.10338   0.11963   0.12424   0.12875   0.13286

  Beta  occ. eigenvalues --  -19.07989 -19.00788 -14.29259 -14.22568 -10.19593
  Beta  occ. eigenvalues --  -10.15199 -10.10963 -10.10876 -10.08866 -10.08159
  Beta  occ. eigenvalues --  -10.07908 -10.07869 -10.07607 -10.07267 -10.07227
  Beta  occ. eigenvalues --  -10.06745  -1.01853  -0.95596  -0.92628  -0.76257
  Beta  occ. eigenvalues --   -0.74742  -0.69172  -0.69030  -0.64964  -0.62811
  Beta  occ. eigenvalues --   -0.59546  -0.55159  -0.51115  -0.49909  -0.48424
  Beta  occ. eigenvalues --   -0.45357  -0.42277  -0.40477  -0.39218  -0.38651
  Beta  occ. eigenvalues --   -0.38251  -0.37010  -0.36307  -0.35254  -0.33648
  Beta  occ. eigenvalues --   -0.32948  -0.32699  -0.31657  -0.30721  -0.29602
  Beta  occ. eigenvalues --   -0.29018  -0.27576  -0.26410  -0.25329  -0.24637
  Beta  occ. eigenvalues --   -0.23701  -0.20431  -0.18539  -0.15865  -0.15357
  Beta  occ. eigenvalues --   -0.14582  -0.13857
  Beta virt. eigenvalues --    0.06369   0.07266   0.07282   0.07910   0.08114
  Beta virt. eigenvalues --    0.08631   0.08942   0.09181   0.09982   0.10275
  Beta virt. eigenvalues --    0.10853   0.11056   0.12245   0.12860   0.13025

 Mulliken charges and spin densities:
               1          2
     1  C    1.363203  -1.677338
     2  N    0.073719   0.069549
     3  C   -0.323422   0.052095
     4  C    0.907844  -0.704124
     5  C    0.148765  -0.347402
     6  N   -0.540217   0.273295
     7  O   -0.034884  -0.005799
     8  C   -0.084236   0.102213
     9  O   -0.260631   0.036698
    10  C   -0.181751  -0.428229
    11  C    0.740035   0.234121
    12  C   -0.423139   0.196039
    13  C   -0.291896  -0.008773
    14  C   -0.158223  -0.115418
    15  C   -0.232957  -0.085301
    16  C   -0.291990   0.015567
    17  H   -0.291399   0.467870
    18  H   -0.118691   0.288224
    19  H   -0.954269   1.117024
    20  H   -0.847644   1.022982
    21  H    0.227508  -0.016527
    22  H    0.041519   0.145343
    23  H    0.030201   0.140833
    24  H    0.159163   0.019673
    25  H    0.134723   0.020031
    26  H    0.097597   0.009609
    27  H    0.040890   0.105737
    28  H    0.070184   0.072004
 Sum of Mulliken charges =  -1.00000   1.00000

 Dipole moment (field-independent basis, Debye):
    X=              9.3408    Y=              1.2056    Z=             -1.4796  Tot=              9.5338
 Quadrupole moment (field-independent basis, Debye-Ang):
   XX=           -208.9751   YY=           -121.7507   ZZ=           -117.6350
   XY=            -15.6761   XZ=             11.9173   YZ=             -0.7367

 Summary of Natural Population Analysis:

                                       Natural Population
                Natural  -----------------------------------------------
    Atom  No    Charge         Core      Valence    Rydberg      Total
 -----------------------------------------------------------------------
      C    1   -0.17008      0.99963     2.16185    0.00860     3.17008
      N    2   -0.10377      0.99967     2.59096    0.01313     3.60377
      C    3    0.00110      0.99957     1.98788    0.01145     2.99890
      C    4   -0.18448      0.99952     2.17608    0.00889     3.18448
      C    5    0.22501      0.99945     1.75840    0.01714     2.77499
      N    6   -0.16405      0.99968     2.65304    0.01132     3.66405
      O    7   -0.26902      0.99983     3.26124    0.00795     4.26902
      C    8    0.42983      0.99969     1.54540    0.02509     2.57017
      O    9   -0.29364      0.99986     3.28853    0.00524     4.29364
      C   10   -0.24008      0.99956     2.23099    0.00953     3.24008
      C   11    0.00024      0.99950     1.98980    0.01046     2.99976
      C   12   -0.08980      0.99946     2.08100    0.00934     3.08980
      C   13   -0.10435      0.99958     2.09608    0.00869     3.10435
      C   14   -0.09042      0.99957     2.08096    0.00989     3.09042
      C   15   -0.10359      0.99957     2.09425    0.00977     3.10359
      C   16   -0.09934      0.99951     2.08995    0.00988     3.09934
      H   17    0.10186      0.00000     0.39645    0.00169     0.39814
      H   18    0.09958      0.00000     0.39916    0.00127     0.40042
      H   19    0.10653      0.00000     0.38737    0.00610     0.39347
      H   20    0.10674      0.00000     0.39163    0.00162     0.39326
      H   21    0.12371      0.00000     0.37550    0.00078     0.37629
      H   22    0.11413      0.00000     0.38454    0.00132     0.38587
      H   23    0.11063      0.00000     0.38832    0.00105     0.38937
      H   24    0.10575      0.00000     0.39350    0.00075     0.39425
      H   25    0.09633      0.00000     0.40240    0.00127     0.40367
      H   26    0.09499      0.00000     0.40414    0.00087     0.40501
      H   27    0.09673      0.00000     0.40240    0.00087     0.40327
      H   28    0.09947      0.00000     0.39961    0.00093     0.40053
 =======================================================================
   * Total *    0.00002     15.99367    40.81143    0.19488    56.99998

 Normal termination of Gaussian 16 at Fri Dec 11 03:12:06 2020.
