 Gaussian 16, Revision A.03,

 -----------------------------------------------------------
 # opt freq B3LYP/6-31G(d) empiricaldispersion=gd3bj scf=xqc
 -----------------------------------------------------------

 -------------------------------
 CID_145097417_JID_2289_neutraal
 -------------------------------
 Symbolic Z-matrix:
 Charge =  0 Multiplicity = 1

 SCF Done:  E(RB3LYP) =  -469.326568367     A.U. after   14 cycles
 SCF Done:  E(RB3LYP) =  -469.327240910     A.U. after   12 cycles
 SCF Done:  E(RB3LYP) =  -469.323028865     A.U. after   12 cycles
 SCF Done:  E(RB3LYP) =  -469.327472801     A.U. after   12 cycles
 SCF Done:  E(RB3LYP) =  -469.328416548     A.U. after   14 cycles
 SCF Done:  E(RB3LYP) =  -469.328910003     A.U. after   12 cycles
 SCF Done:  E(RB3LYP) =  -469.328977783     A.U. after   10 cycles
 SCF Done:  E(RB3LYP) =  -469.329014996     A.U. after   10 cycles
 SCF Done:  E(RB3LYP) =  -469.329021410     A.U. after    9 cycles
 SCF Done:  E(RB3LYP) =  -469.329022508     A.U. after    8 cycles
 SCF Done:  E(RB3LYP) =  -469.329022818     A.U. after    7 cycles
 SCF Done:  E(RB3LYP) =  -469.329022962     A.U. after    7 cycles
 SCF Done:  E(RB3LYP) =  -469.329023009     A.U. after    6 cycles
 Optimization completed.
    -- Stationary point found.
 Normal termination of Gaussian 16 at Wed Dec  9 16:59:07 2020.

 --------------------------------------------------------------------
 #N Geom=AllCheck Guess=TCheck SCRF=Check GenChk RB3LYP/6-31G(d) Freq
 --------------------------------------------------------------------

 Structure from the checkpoint file:  "JID_2289.chk"
 -------------------------------
 CID_145097417_JID_2289_neutraal
 -------------------------------
 Charge =  0 Multiplicity = 1

 SCF Done:  E(RB3LYP) =  -469.329023009     A.U. after    1 cycles

  Exact polarizability: 130.935  20.773 160.842  -0.660  -8.151  94.232
 Approx polarizability: 167.640  37.875 232.168  -4.114 -19.054 139.507

                      1                      2                      3
                      A                      A                      A
 Frequencies --     27.4759                40.5590                70.8507
 Red. masses --      3.1313                 2.6290                 2.9745
 Frc consts  --      0.0014                 0.0025                 0.0088
 IR Inten    --      0.0063                 0.1065                 0.0323

                      4                      5                      6
                      A                      A                      A
 Frequencies --     77.8765               101.1934               117.6215
 Red. masses --      3.1182                 2.8285                 2.3385
 Frc consts  --      0.0111                 0.0171                 0.0191
 IR Inten    --      0.0746                 0.1574                 0.0093

                      7                      8                      9
                      A                      A                      A
 Frequencies --    139.0576               160.3927               192.5166
 Red. masses --      2.4170                 1.0665                 1.4820
 Frc consts  --      0.0275                 0.0162                 0.0324
 IR Inten    --      0.0619                 0.0512                 0.2130

                     10                     11                     12
                      A                      A                      A
 Frequencies --    209.5070               243.1563               274.1169
 Red. masses --      1.3540                 1.8248                 1.8262
 Frc consts  --      0.0350                 0.0636                 0.0808
 IR Inten    --      0.5751                 0.1577                 0.1603

                     13                     14                     15
                      A                      A                      A
 Frequencies --    304.7331               332.5231               366.3655
 Red. masses --      2.4224                 2.3608                 2.4163
 Frc consts  --      0.1325                 0.1538                 0.1911
 IR Inten    --      2.5408                 1.1524                 1.7549

                     16                     17                     18
                      A                      A                      A
 Frequencies --    384.1350               419.5408               440.2847
 Red. masses --      2.7479                 2.4758                 2.5404
 Frc consts  --      0.2389                 0.2567                 0.2901
 IR Inten    --      1.1446                 3.0411                 0.3974

                     19                     20                     21
                      A                      A                      A
 Frequencies --    457.5365               511.9677               521.5511
 Red. masses --      2.2368                 1.9775                 2.3009
 Frc consts  --      0.2759                 0.3054                 0.3688
 IR Inten    --      2.3200                 0.4143                 2.8449

                     22                     23                     24
                      A                      A                      A
 Frequencies --    638.4838               733.0038               790.8789
 Red. masses --      3.1040                 1.1801                 1.4809
 Frc consts  --      0.7455                 0.3736                 0.5457
 IR Inten    --      6.6400                 0.4011                 3.8510

                     25                     26                     27
                      A                      A                      A
 Frequencies --    800.4545               808.6711               857.9248
 Red. masses --      1.9123                 1.6987                 1.8575
 Frc consts  --      0.7219                 0.6545                 0.8055
 IR Inten    --      0.8616                 0.7799                 3.0972

                     28                     29                     30
                      A                      A                      A
 Frequencies --    885.6743               903.4562               924.2938
 Red. masses --      1.6683                 1.8957                 1.3678
 Frc consts  --      0.7711                 0.9117                 0.6885
 IR Inten    --      4.0008                 2.4015                39.4760

                     31                     32                     33
                      A                      A                      A
 Frequencies --    941.4495               976.1006               983.0304
 Red. masses --      1.7413                 1.4539                 1.8558
 Frc consts  --      0.9093                 0.8162                 1.0566
 IR Inten    --      0.8890                 1.8874                 8.6136

                     34                     35                     36
                      A                      A                      A
 Frequencies --    996.5838              1016.0330              1031.0285
 Red. masses --      1.8143                 1.2132                 1.5371
 Frc consts  --      1.0617                 0.7379                 0.9627
 IR Inten    --      0.8527                18.7496                 4.6591

                     37                     38                     39
                      A                      A                      A
 Frequencies --   1031.8668              1053.7992              1087.3423
 Red. masses --      1.3439                 2.1769                 2.5963
 Frc consts  --      0.8431                 1.4243                 1.8086
 IR Inten    --      7.4631                 2.7382                 5.1368

                     40                     41                     42
                      A                      A                      A
 Frequencies --   1108.9153              1118.9520              1140.2206
 Red. masses --      1.8162                 1.6559                 1.8343
 Frc consts  --      1.3158                 1.2215                 1.4050
 IR Inten    --      1.2611                 0.4540                11.4250

                     43                     44                     45
                      A                      A                      A
 Frequencies --   1155.5684              1193.6374              1225.9640
 Red. masses --      1.6952                 1.5230                 1.5285
 Frc consts  --      1.3337                 1.2785                 1.3535
 IR Inten    --      1.0523                 2.4001                 1.0787

                     46                     47                     48
                      A                      A                      A
 Frequencies --   1262.8652              1289.9373              1316.3258
 Red. masses --      1.7771                 1.2347                 1.4679
 Frc consts  --      1.6699                 1.2105                 1.4986
 IR Inten    --      2.1821                 0.5316                 9.5254

                     49                     50                     51
                      A                      A                      A
 Frequencies --   1320.6161              1332.4667              1345.5917
 Red. masses --      1.3325                 1.5385                 1.3444
 Frc consts  --      1.3692                 1.6094                 1.4342
 IR Inten    --      8.1585                 1.8189                 0.3669

                     52                     53                     54
                      A                      A                      A
 Frequencies --   1357.9342              1395.4235              1401.5501
 Red. masses --      1.3972                 1.4351                 1.3560
 Frc consts  --      1.5180                 1.6464                 1.5693
 IR Inten    --      2.6497                 2.6897                 2.1868

                     55                     56                     57
                      A                      A                      A
 Frequencies --   1435.7192              1439.7233              1450.2412
 Red. masses --      1.2259                 1.3406                 1.2476
 Frc consts  --      1.4888                 1.6373                 1.5460
 IR Inten    --      0.5520                 5.7276                 1.2455

                     58                     59                     60
                      A                      A                      A
 Frequencies --   1472.9716              1499.7908              1501.2115
 Red. masses --      1.1697                 1.0636                 1.0714
 Frc consts  --      1.4952                 1.4096                 1.4227
 IR Inten    --      1.1364                 2.8371                 7.0829

                     61                     62                     63
                      A                      A                      A
 Frequencies --   1504.3235              1511.2034              1518.6461
 Red. masses --      1.1007                 1.0690                 1.0462
 Frc consts  --      1.4676                 1.4384                 1.4216
 IR Inten    --      2.7192                 2.1586                19.8113

                     64                     65                     66
                      A                      A                      A
 Frequencies --   1520.0749              1526.4116              1528.7349
 Red. masses --      1.0542                 1.0638                 1.0564
 Frc consts  --      1.4352                 1.4603                 1.4546
 IR Inten    --      7.8612                 0.1762                12.2122

                     67                     68                     69
                      A                      A                      A
 Frequencies --   1536.2656              1731.1038              1754.9651
 Red. masses --      1.0687                 5.4476                 6.1466
 Frc consts  --      1.4860                 9.6184                11.1538
 IR Inten    --      3.6222                13.5242                 0.3584

                     70                     71                     72
                      A                      A                      A
 Frequencies --   1757.8734              3021.1262              3024.2831
 Red. masses --      6.0245                 1.0654                 1.0394
 Frc consts  --     10.9685                 5.7295                 5.6009
 IR Inten    --      7.2890                41.3319                26.4957

                     73                     74                     75
                      A                      A                      A
 Frequencies --   3032.0195              3033.7013              3040.2548
 Red. masses --      1.0428                 1.0586                 1.0651
 Frc consts  --      5.6484                 5.7401                 5.8003
 IR Inten    --     49.0318                34.3104                17.2298

                     76                     77                     78
                      A                      A                      A
 Frequencies --   3046.9112              3067.9547              3069.1724
 Red. masses --      1.0348                 1.0998                 1.0964
 Frc consts  --      5.6602                 6.0989                 6.0849
 IR Inten    --     32.1302                 2.3727                11.8972

                     79                     80                     81
                      A                      A                      A
 Frequencies --   3071.6327              3075.9236              3094.7793
 Red. masses --      1.0992                 1.1026                 1.0949
 Frc consts  --      6.1105                 6.1464                 6.1786
 IR Inten    --     54.4192                16.7459                16.2164

                     82                     83                     84
                      A                      A                      A
 Frequencies --   3114.3805              3119.0471              3123.4490
 Red. masses --      1.1021                 1.1030                 1.0991
 Frc consts  --      6.2980                 6.3225                 6.3176
 IR Inten    --     37.0871                48.9351                14.5221

                     85                     86                     87
                      A                      A                      A
 Frequencies --   3133.2096              3139.1302              3139.3022
 Red. masses --      1.0911                 1.0877                 1.0868
 Frc consts  --      6.3111                 6.3153                 6.3106
 IR Inten    --      6.5698                63.7568                26.7162

                     88                     89                     90
                      A                      A                      A
 Frequencies --   3153.5086              3162.7372              3229.3371
 Red. masses --      1.0599                 1.0933                 1.1158
 Frc consts  --      6.2103                 6.4437                 6.8562
 IR Inten    --     15.8275                21.5999                20.7567

 - Thermochemistry -
 -------------------
 Temperature   298.150 Kelvin.  Pressure   1.00000 Atm.
 Atom     1 has atomic number  6 and mass  12.00000

 Molecular mass:   164.15650 amu.
 Principal axes and moments of inertia in atomic units:
                           1         2         3
     Eigenvalues --  2099.148442750.553064283.31802
           X            0.99978   0.01776   0.01113
           Y           -0.01773   0.99984  -0.00316
           Z           -0.01118   0.00296   0.99993
 This molecule is an asymmetric top.
 Rotational symmetry number  1.
 Warning -- assumption of classical behavior for rotation
           may cause significant error
 Rotational temperatures (Kelvin)      0.04126     0.03149     0.02022
 Rotational constants (GHZ):           0.85975     0.65614     0.42134
 Zero-point vibrational energy     762022.0 (Joules/Mol)
                                  182.12762 (Kcal/Mol)
 Warning -- explicit consideration of  21 degrees of freedom as
           vibrations may cause significant error
 Vibrational temperatures:     39.53    58.36   101.94   112.05   145.59
          (Kelvin)            169.23   200.07   230.77   276.99   301.43
                              349.85   394.39   438.44   478.43   527.12
                              552.68   603.63   633.47   658.29   736.61
                              750.40   918.64  1054.63  1137.90  1151.68
                             1163.50  1234.36  1274.29  1299.87  1329.85
                             1354.54  1404.39  1414.36  1433.86  1461.84
                             1483.42  1484.63  1516.18  1564.44  1595.48
                             1609.92  1640.52  1662.61  1717.38  1763.89
                             1816.98  1855.93  1893.90  1900.07  1917.12
                             1936.01  1953.76  2007.70  2016.52  2065.68
                             2071.44  2086.57  2119.28  2157.86  2159.91
                             2164.39  2174.28  2184.99  2187.05  2196.17
                             2199.51  2210.34  2490.67  2525.00  2529.19
                             4346.73  4351.27  4362.40  4364.82  4374.25
                             4383.83  4414.10  4415.85  4419.39  4425.57
                             4452.70  4480.90  4487.61  4493.95  4507.99
                             4516.51  4516.76  4537.20  4550.47  4646.30

 Zero-point correction=                           0.290239 (Hartree/Particle)
 Thermal correction to Energy=                    0.305175
 Thermal correction to Enthalpy=                  0.306119
 Thermal correction to Gibbs Free Energy=         0.247462
 Sum of electronic and zero-point Energies=           -469.038784
 Sum of electronic and thermal Energies=              -469.023848
 Sum of electronic and thermal Enthalpies=            -469.022904
 Sum of electronic and thermal Free Energies=         -469.081561

                     E (Thermal)             CV                S
                      KCal/Mol        Cal/Mol-Kelvin    Cal/Mol-Kelvin
 Total                  191.500             54.322            123.454
 Electronic               0.000              0.000              0.000
 Translational            0.889              2.981             41.195
 Rotational               0.889              2.981             31.581
 Vibrational            189.723             48.361             50.677
 Vibration     1          0.593              1.984              6.004
 Vibration     2          0.594              1.981              5.232
 Vibration     3          0.598              1.968              4.130
 Vibration     4          0.599              1.964              3.944
 Vibration     5          0.604              1.948              3.431
 Vibration     6          0.608              1.935              3.139
 Vibration     7          0.615              1.914              2.817
 Vibration     8          0.622              1.891              2.545
 Vibration     9          0.634              1.850              2.203
 Vibration    10          0.642              1.826              2.048
 Vibration    11          0.659              1.774              1.780
 Vibration    12          0.676              1.721              1.570
 Vibration    13          0.696              1.665              1.391
 Vibration    14          0.714              1.611              1.248
 Vibration    15          0.739              1.541              1.095
 Vibration    16          0.753              1.504              1.023
 Vibration    17          0.782              1.428              0.894
 Vibration    18          0.800              1.382              0.826
 Vibration    19          0.816              1.344              0.773
 Vibration    20          0.867              1.223              0.629
 Vibration    21          0.877              1.202              0.606

 Optimization completed.
    -- Stationary point found.
 Normal termination of Gaussian 16 at Wed Dec  9 17:07:55 2020.

 ----------------------------------------------------------------------
 # B3LYP/6-311++G(d,p) empiricaldispersion=gd3bj scf=xqc pop=npa geom=c
 heck
 ----------------------------------------------------------------------

 ---------------------------------------
 CID_145097417_JID_2289_Energie_neutraal
 ---------------------------------------
 Structure from the checkpoint file:  "JID_2289.chk"
 Charge =  0 Multiplicity = 1

 SCF Done:  E(RB3LYP) =  -469.459942897     A.U. after   14 cycles
 Normal termination of Gaussian 16 at Wed Dec  9 17:12:00 2020.

 ----------------------------------------------------------------------
 # B3LYP/6-311++G(d,p) empiricaldispersion=gd3bj scf=xqc pop=npa geom=c
 heck
 ----------------------------------------------------------------------

 -------------------------------------
 CID_145097417_JID_2289_Energie_kation
 -------------------------------------
 Structure from the checkpoint file:  "JID_2289.chk"
 Charge =  1 Multiplicity = 2

 SCF Done:  E(UB3LYP) =  -469.158681092     A.U. after   22 cycles
 Normal termination of Gaussian 16 at Wed Dec  9 17:21:27 2020.
 Gaussian 16:  ES64L-G16RevA.03 25-Dec-2016

 ----------------------------------------------------------------------
 # B3LYP/6-311++G(d,p) empiricaldispersion=gd3bj scf=xqc pop=npa geom=c
 heck
 ----------------------------------------------------------------------

 ------------------------------------
 CID_145097417_JID_2289_Energie_anion
 ------------------------------------
 Structure from the checkpoint file:  "JID_2289.chk"
 Charge = -1 Multiplicity = 2

                         Standard orientation:
 ---------------------------------------------------------------------
 Center     Atomic      Atomic             Coordinates (Angstroms)
 Number     Number       Type             X           Y           Z
 ---------------------------------------------------------------------
      1          6           0       -3.382513   -1.306681   -0.718869
      2          6           0       -3.376650   -0.080825    0.208421
      3          6           0       -2.001797    0.250368    0.717277
      4          6           0       -1.344203    1.387031    0.477922
      5          6           0        0.045216    1.704778    0.970637
      6          6           0        1.018058    1.931378   -0.170509
      7          6           0        1.573377    3.123691   -0.400379
      8          6           0        1.323339    0.721274   -1.033145
      9          6           0        2.061364   -0.341738   -0.257849
     10          6           0        1.682460   -1.602558   -0.003812
     11          6           0        2.563104   -2.521944    0.806452
     12          6           0        0.400693   -2.232423   -0.485065
     13          1           0       -2.774574   -1.121508   -1.611331
     14          1           0       -4.399781   -1.552837   -1.043382
     15          1           0       -2.968718   -2.186565   -0.212451
     16          1           0       -3.792588    0.786192   -0.319926
     17          1           0       -4.044989   -0.278892    1.059442
     18          1           0       -1.514313   -0.521143    1.316758
     19          1           0       -1.818002    2.158823   -0.131530
     20          1           0        0.019203    2.603062    1.601555
     21          1           0        0.402666    0.875315    1.594366
     22          1           0        2.264429    3.282712   -1.224738
     23          1           0        1.357966    3.985150    0.227263
     24          1           0        0.387073    0.324837   -1.439902
     25          1           0        1.935602    1.039598   -1.887373
     26          1           0        3.015925   -0.008434    0.151738
     27          1           0        2.038203   -2.881355    1.702655
     28          1           0        2.838178   -3.415675    0.229084
     29          1           0        3.484743   -2.026853    1.127151
     30          1           0       -0.246976   -1.538754   -1.022601
     31          1           0        0.614096   -3.084576   -1.145184
     32          1           0       -0.172831   -2.633198    0.361918
 ---------------------------------------------------------------------

 SCF Done:  E(UB3LYP) =  -469.442659012     A.U. after   33 cycles
 SCF Done:  E(UB3LYP) =  -469.442659011     a.u. after    1 cycles

 The electronic state is 2-A.
 Alpha  occ. eigenvalues --  -10.08979 -10.07846 -10.07818 -10.07442 -10.07217
 Alpha  occ. eigenvalues --  -10.07156 -10.07021 -10.06596 -10.06253 -10.06175
 Alpha  occ. eigenvalues --  -10.05922 -10.05797  -0.73800  -0.71064  -0.69580
 Alpha  occ. eigenvalues --   -0.64966  -0.62175  -0.59113  -0.58210  -0.54403
 Alpha  occ. eigenvalues --   -0.51370  -0.45644  -0.43643  -0.41638  -0.37989
 Alpha  occ. eigenvalues --   -0.36859  -0.36287  -0.35023  -0.34370  -0.33156
 Alpha  occ. eigenvalues --   -0.32846  -0.31699  -0.29283  -0.28379  -0.27917
 Alpha  occ. eigenvalues --   -0.27370  -0.26937  -0.26671  -0.26088  -0.25195
 Alpha  occ. eigenvalues --   -0.24181  -0.23977  -0.23120  -0.16318  -0.15340
 Alpha  occ. eigenvalues --   -0.13971   0.04620
 Alpha virt. eigenvalues --    0.06454   0.06798   0.07500   0.08156   0.08558
 Alpha virt. eigenvalues --    0.08658   0.09180   0.09470   0.09968   0.10847
 Alpha virt. eigenvalues --    0.11133   0.11825   0.11915   0.12198   0.12603

  Beta  occ. eigenvalues --  -10.08975 -10.07839 -10.07817 -10.07431 -10.07201
  Beta  occ. eigenvalues --  -10.07141 -10.07012 -10.06581 -10.06243 -10.06137
  Beta  occ. eigenvalues --  -10.05885 -10.05754  -0.73781  -0.71038  -0.69552
  Beta  occ. eigenvalues --   -0.64929  -0.62144  -0.59047  -0.58170  -0.54356
  Beta  occ. eigenvalues --   -0.51296  -0.45593  -0.43606  -0.41592  -0.37964
  Beta  occ. eigenvalues --   -0.36833  -0.36259  -0.34995  -0.34329  -0.33118
  Beta  occ. eigenvalues --   -0.32807  -0.31663  -0.29241  -0.28339  -0.27882
  Beta  occ. eigenvalues --   -0.27321  -0.26892  -0.26641  -0.26065  -0.25171
  Beta  occ. eigenvalues --   -0.24149  -0.23942  -0.23083  -0.16282  -0.15291
  Beta  occ. eigenvalues --   -0.13947
  Beta virt. eigenvalues --    0.06596   0.07200   0.07348   0.07802   0.08512
  Beta virt. eigenvalues --    0.09017   0.09158   0.09537   0.09839   0.10196
  Beta virt. eigenvalues --    0.11307   0.11410   0.12104   0.12245   0.12400

 Mulliken charges and spin densities:
               1          2
     1  C    1.169867  -1.743879
     2  C   -0.488034   0.137691
     3  C   -0.178906   0.275282
     4  C    0.078492  -0.276263
     5  C   -0.433912  -0.060126
     6  C   -0.257889   0.841178
     7  C    0.865329  -1.473365
     8  C    0.313532  -0.459075
     9  C    0.982623  -1.371251
    10  C   -1.169636   1.801716
    11  C    1.830052  -2.408863
    12  C   -1.416588   0.536715
    13  H   -0.150756   0.290094
    14  H   -0.656084   0.806621
    15  H   -0.134228   0.275121
    16  H   -0.109409   0.246534
    17  H   -0.164475   0.294977
    18  H   -0.267371   0.407732
    19  H   -0.034479   0.200494
    20  H   -0.012846   0.182738
    21  H    0.203942  -0.061468
    22  H   -0.074940   0.187992
    23  H    0.051440   0.057870
    24  H    0.283930  -0.155433
    25  H   -0.369728   0.565690
    26  H    0.026663   0.145460
    27  H   -0.231529   0.387731
    28  H   -0.095675   0.233533
    29  H   -0.497613   0.640770
    30  H    0.294477  -0.157679
    31  H   -0.302182   0.438936
    32  H   -0.054068   0.212527
 Sum of Mulliken charges =  -1.00000   1.00000

 Dipole moment (field-independent basis, Debye):
    X=              1.7254    Y=              5.1153    Z=              0.7404  Tot=              5.4489
 Quadrupole moment (field-independent basis, Debye-Ang):
   XX=           -154.4513   YY=           -131.9064   ZZ=           -111.7368
   XY=             -2.6321   XZ=             -3.9661   YZ=              3.0758

 Summary of Natural Population Analysis:

                                       Natural Population
                Natural  -----------------------------------------------
    Atom  No    Charge         Core      Valence    Rydberg      Total
 -----------------------------------------------------------------------
      C    1   -0.28093      0.99966     2.27633    0.00494     3.28093
      C    2   -0.20485      0.99963     2.19554    0.00969     3.20485
      C    3   -0.08422      0.99950     2.07538    0.00934     3.08422
      C    4   -0.08928      0.99949     2.08094    0.00885     3.08928
      C    5   -0.22020      0.99956     2.21103    0.00962     3.22020
      C    6    0.01685      0.99951     1.97151    0.01213     2.98315
      C    7   -0.20307      0.99947     2.19589    0.00771     3.20307
      C    8   -0.22071      0.99956     2.21087    0.01028     3.22071
      C    9   -0.10096      0.99944     2.09109    0.01043     3.10096
      C   10   -0.00461      0.99949     1.99544    0.00968     3.00461
      C   11   -0.29314      0.99962     2.28783    0.00569     3.29314
      C   12   -0.30028      0.99961     2.29422    0.00645     3.30028
      H   13    0.09616      0.00000     0.40240    0.00145     0.40384
      H   14    0.09992      0.00000     0.39816    0.00192     0.40008
      H   15    0.09843      0.00000     0.39996    0.00161     0.40157
      H   16    0.09540      0.00000     0.40338    0.00122     0.40460
      H   17    0.09925      0.00000     0.39947    0.00128     0.40075
      H   18    0.09112      0.00000     0.40684    0.00204     0.40888
      H   19    0.09016      0.00000     0.40855    0.00129     0.40984
      H   20    0.10147      0.00000     0.39737    0.00116     0.39853
      H   21    0.10788      0.00000     0.39002    0.00211     0.39212
      H   22    0.09286      0.00000     0.40595    0.00119     0.40714
      H   23    0.09073      0.00000     0.40815    0.00112     0.40927
      H   24    0.10865      0.00000     0.38946    0.00189     0.39135
      H   25    0.10386      0.00000     0.39482    0.00132     0.39614
      H   26    0.09204      0.00000     0.40679    0.00117     0.40796
      H   27    0.10249      0.00000     0.39606    0.00145     0.39751
      H   28    0.10165      0.00000     0.39701    0.00134     0.39835
      H   29    0.10109      0.00000     0.39775    0.00116     0.39891
      H   30    0.10420      0.00000     0.39436    0.00144     0.39580
      H   31    0.10399      0.00000     0.39488    0.00113     0.39601
      H   32    0.10402      0.00000     0.39435    0.00163     0.39598
 =======================================================================
   * Total *   -0.00000     11.99454    33.87176    0.13370    46.00000

 Normal termination of Gaussian 16 at Wed Dec  9 17:35:05 2020.
