 Gaussian 16, Revision A.03,

 -----------------------------------------------------------
 # opt freq B3LYP/6-31G(d) empiricaldispersion=gd3bj scf=xqc
 -----------------------------------------------------------

 -------------------------------
 CID_64082290_JID_10822_neutraal
 -------------------------------
 Symbolic Z-matrix:
 Charge =  0 Multiplicity = 1

 SCF Done:  E(RB3LYP) =  -1316.00632073     A.U. after   15 cycles
 SCF Done:  E(RB3LYP) =  -1316.00396050     A.U. after   14 cycles
 SCF Done:  E(RB3LYP) =  -1316.01426137     A.U. after   12 cycles
 SCF Done:  E(RB3LYP) =  -1316.01585323     A.U. after   12 cycles
 SCF Done:  E(RB3LYP) =  -1316.01573168     A.U. after   13 cycles
 SCF Done:  E(RB3LYP) =  -1316.01678000     A.U. after   12 cycles
 SCF Done:  E(RB3LYP) =  -1316.01763580     A.U. after   14 cycles
 SCF Done:  E(RB3LYP) =  -1316.01864777     A.U. after   12 cycles
 SCF Done:  E(RB3LYP) =  -1316.01896123     A.U. after   12 cycles
 SCF Done:  E(RB3LYP) =  -1316.01783791     A.U. after   12 cycles
 SCF Done:  E(RB3LYP) =  -1316.02340927     A.U. after    9 cycles
 SCF Done:  E(RB3LYP) =  -1316.02340935     A.U. after    7 cycles
 SCF Done:  E(RB3LYP) =  -1316.02340944     A.U. after    8 cycles
 SCF Done:  E(RB3LYP) =  -1316.02340952     A.U. after    8 cycles
 SCF Done:  E(RB3LYP) =  -1316.02340954     A.U. after    7 cycles
 Optimization completed.
    -- Stationary point found.
 Normal termination of Gaussian 16 at Sat Dec 12 16:42:51 2020.

 --------------------------------------------------------------------
 #N Geom=AllCheck Guess=TCheck SCRF=Check GenChk RB3LYP/6-31G(d) Freq
 --------------------------------------------------------------------

 Structure from the checkpoint file:  "JID_10822.chk"
 -------------------------------
 CID_64082290_JID_10822_neutraal
 -------------------------------
 Charge =  0 Multiplicity = 1

 SCF Done:  E(RB3LYP) =  -1316.02340954     A.U. after    1 cycles

  Exact polarizability: 218.955  -3.280 160.059  -4.723 -17.023 147.921
 Approx polarizability: 291.403  -6.022 254.047   3.226 -50.192 236.121

                      1                      2                      3
                      A                      A                      A
 Frequencies --     10.1237                15.8666                25.4084
 Red. masses --      4.5894                 5.1033                 4.5263
 Frc consts  --      0.0003                 0.0008                 0.0017
 IR Inten    --      0.3811                 1.2346                 0.9473

                      4                      5                      6
                      A                      A                      A
 Frequencies --     39.1563                50.8124                59.7091
 Red. masses --      4.2324                 4.1579                 4.0992
 Frc consts  --      0.0038                 0.0063                 0.0086
 IR Inten    --      2.2452                 1.2246                 1.2404

                      7                      8                      9
                      A                      A                      A
 Frequencies --     87.7115                96.2541               129.8379
 Red. masses --      4.4470                 3.1363                 1.2957
 Frc consts  --      0.0202                 0.0171                 0.0129
 IR Inten    --      0.1962                 1.2037                 0.9681

                     10                     11                     12
                      A                      A                      A
 Frequencies --    141.1424               154.9484               160.0848
 Red. masses --      2.4535                 6.1188                 2.2438
 Frc consts  --      0.0288                 0.0866                 0.0339
 IR Inten    --      1.9524                 2.9389                 0.4818

                     13                     14                     15
                      A                      A                      A
 Frequencies --    185.7383               197.4706               211.2277
 Red. masses --      4.1408                 1.1770                 2.9234
 Frc consts  --      0.0842                 0.0270                 0.0769
 IR Inten    --      2.7759                 0.2601                 1.0247

                     16                     17                     18
                      A                      A                      A
 Frequencies --    227.4589               257.1272               270.4589
 Red. masses --      2.2863                 2.1323                 3.1327
 Frc consts  --      0.0697                 0.0831                 0.1350
 IR Inten    --      4.3811                 0.9389                 5.8129

                     19                     20                     21
                      A                      A                      A
 Frequencies --    287.5983               303.3175               312.2181
 Red. masses --      4.5995                 4.4110                 4.7276
 Frc consts  --      0.2241                 0.2391                 0.2715
 IR Inten    --      4.6851                 9.5445                 7.8076

                     22                     23                     24
                      A                      A                      A
 Frequencies --    354.6196               358.8538               374.2459
 Red. masses --      2.7765                 5.5991                 4.2456
 Frc consts  --      0.2057                 0.4248                 0.3504
 IR Inten    --      3.4829                 3.6691                 7.5250

                     25                     26                     27
                      A                      A                      A
 Frequencies --    401.4711               416.9570               423.6459
 Red. masses --      2.2066                 3.0419                 2.4886
 Frc consts  --      0.2095                 0.3116                 0.2632
 IR Inten    --      1.1478                 0.0245                 3.6360

                     28                     29                     30
                      A                      A                      A
 Frequencies --    471.5325               490.5890               507.9543
 Red. masses --      3.2423                 6.6558                 3.1074
 Frc consts  --      0.4247                 0.9438                 0.4724
 IR Inten    --      7.1269                 6.9933                 7.9700

                     31                     32                     33
                      A                      A                      A
 Frequencies --    550.8601               567.4570               623.0332
 Red. masses --      5.5887                 4.2438                 5.4543
 Frc consts  --      0.9992                 0.8051                 1.2474
 IR Inten    --     34.6503                18.0868                57.4381

                     34                     35                     36
                      A                      A                      A
 Frequencies --    648.6475               669.4972               694.2374
 Red. masses --      6.5564                 4.1290                 4.7609
 Frc consts  --      1.6253                 1.0904                 1.3519
 IR Inten    --      3.4361                64.7248                91.1947

                     37                     38                     39
                      A                      A                      A
 Frequencies --    720.9000               779.3629               790.1106
 Red. masses --      4.3902                 2.6438                 2.0226
 Frc consts  --      1.3443                 0.9462                 0.7439
 IR Inten    --     32.2325                40.7275                70.8382

                     40                     41                     42
                      A                      A                      A
 Frequencies --    829.5365               833.5407               859.5749
 Red. masses --      1.9039                 2.0782                 2.2178
 Frc consts  --      0.7719                 0.8507                 0.9655
 IR Inten    --     17.6444                25.3129                10.1756

                     43                     44                     45
                      A                      A                      A
 Frequencies --    863.1127               902.3913               905.0143
 Red. masses --      1.6407                 3.0271                 2.5878
 Frc consts  --      0.7201                 1.4523                 1.2488
 IR Inten    --      5.2521                19.1125               122.8912

                     46                     47                     48
                      A                      A                      A
 Frequencies --    966.7534               971.0408               972.4646
 Red. masses --      2.0197                 1.4066                 2.5566
 Frc consts  --      1.1122                 0.7814                 1.4245
 IR Inten    --      4.5872                 0.9316                54.1975

                     49                     50                     51
                      A                      A                      A
 Frequencies --    989.5385              1013.2663              1040.7047
 Red. masses --      1.3172                 1.6089                 3.7700
 Frc consts  --      0.7599                 0.9733                 2.4057
 IR Inten    --      0.2166                 1.2920                11.9924

                     52                     53                     54
                      A                      A                      A
 Frequencies --   1049.9091              1066.6825              1091.5848
 Red. masses --      4.8253                 1.8643                 4.3874
 Frc consts  --      3.1338                 1.2498                 3.0802
 IR Inten    --     33.1042                16.5943                58.1796

                     55                     56                     57
                      A                      A                      A
 Frequencies --   1112.6334              1142.5987              1146.0566
 Red. masses --      2.0558                 1.4709                 4.2076
 Frc consts  --      1.4995                 1.1314                 3.2561
 IR Inten    --     44.8863                 6.4181               174.9298

                     58                     59                     60
                      A                      A                      A
 Frequencies --   1153.4393              1172.5092              1173.0932
 Red. masses --      1.4815                 1.4081                 1.3940
 Frc consts  --      1.1613                 1.1405                 1.1302
 IR Inten    --      6.6019                70.1847                38.6697

                     61                     62                     63
                      A                      A                      A
 Frequencies --   1186.0913              1198.8454              1219.2747
 Red. masses --      1.2785                 2.6917                 1.9803
 Frc consts  --      1.0597                 2.2793                 1.7346
 IR Inten    --      1.4495                11.8868                 8.9534

                     64                     65                     66
                      A                      A                      A
 Frequencies --   1219.6279              1219.9989              1226.3728
 Red. masses --      1.3334                 1.2884                 2.6057
 Frc consts  --      1.1686                 1.1299                 2.3090
 IR Inten    --      5.5489                 0.6388                 2.4405

                     67                     68                     69
                      A                      A                      A
 Frequencies --   1248.0382              1299.3723              1314.5656
 Red. masses --      2.3520                 2.1449                 7.8433
 Frc consts  --      2.1584                 2.1336                 7.9857
 IR Inten    --     29.0350               189.3981               164.1846

                     70                     71                     72
                      A                      A                      A
 Frequencies --   1328.0401              1335.8207              1338.5393
 Red. masses --      1.3513                 1.6995                 1.4770
 Frc consts  --      1.4042                 1.7868                 1.5592
 IR Inten    --     13.7957                90.9547                 5.0141

                     73                     74                     75
                      A                      A                      A
 Frequencies --   1347.5138              1378.3272              1398.4043
 Red. masses --      2.0170                 2.8068                 1.2932
 Frc consts  --      2.1578                 3.1417                 1.4899
 IR Inten    --     26.7716                47.6898                21.6799

                     76                     77                     78
                      A                      A                      A
 Frequencies --   1414.5141              1457.6358              1477.0549
 Red. masses --      1.2385                 2.5704                 1.1446
 Frc consts  --      1.4600                 3.2177                 1.4713
 IR Inten    --      5.5860                22.4278                 1.2340

                     79                     80                     81
                      A                      A                      A
 Frequencies --   1485.1971              1492.6141              1505.0822
 Red. masses --      1.1597                 1.2134                 1.1120
 Frc consts  --      1.5072                 1.5927                 1.4841
 IR Inten    --      4.2795                10.4533                10.9977

                     82                     83                     84
                      A                      A                      A
 Frequencies --   1508.1530              1512.4039              1512.9273
 Red. masses --      1.0936                 1.1056                 1.0478
 Frc consts  --      1.4655                 1.4899                 1.4130
 IR Inten    --      1.8491                 4.0621                 6.5243

                     85                     86                     87
                      A                      A                      A
 Frequencies --   1523.2574              1523.7486              1525.0005
 Red. masses --      1.0621                 1.0571                 1.1283
 Frc consts  --      1.4520                 1.4461                 1.5460
 IR Inten    --      1.9394                10.1103                 4.0757

                     88                     89                     90
                      A                      A                      A
 Frequencies --   1530.0808              1533.9339              1544.6519
 Red. masses --      1.0645                 1.0839                 2.2006
 Frc consts  --      1.4683                 1.5026                 3.0935
 IR Inten    --      8.7884                13.2782                 8.6426

                     91                     92                     93
                      A                      A                      A
 Frequencies --   1559.8837              1634.8804              1658.4329
 Red. masses --      1.0483                 6.7014                 5.5594
 Frc consts  --      1.5029                10.5532                 9.0090
 IR Inten    --      6.0200                 1.4468                14.6893

                     94                     95                     96
                      A                      A                      A
 Frequencies --   1824.3097              3000.0338              3022.6960
 Red. masses --     10.8462                 1.0493                 1.0717
 Frc consts  --     21.2680                 5.5639                 5.7691
 IR Inten    --    184.7255                42.6182                36.1012

                     97                     98                     99
                      A                      A                      A
 Frequencies --   3040.7944              3047.8363              3075.0201
 Red. masses --      1.0595                 1.0416                 1.0853
 Frc consts  --      5.7720                 5.7005                 6.0462
 IR Inten    --     42.5011                67.0114                44.3282

                    100                    101                    102
                      A                      A                      A
 Frequencies --   3078.9997              3079.2592              3083.9173
 Red. masses --      1.1039                 1.0295                 1.0613
 Frc consts  --      6.1660                 5.7516                 5.9470
 IR Inten    --     37.7937                27.1727                 8.2524

                    103                    104                    105
                      A                      A                      A
 Frequencies --   3110.4056              3123.7294              3144.7509
 Red. masses --      1.1029                 1.0974                 1.1037
 Frc consts  --      6.2864                 6.3090                 6.4307
 IR Inten    --     34.3579                15.9994                 5.5203

                    106                    107                    108
                      A                      A                      A
 Frequencies --   3149.3558              3155.2359              3162.6597
 Red. masses --      1.1040                 1.1077                 1.0906
 Frc consts  --      6.4517                 6.4972                 6.4270
 IR Inten    --     15.1366                20.4148                 3.4222

                    109                    110                    111
                      A                      A                      A
 Frequencies --   3188.5789              3197.2213              3213.3352
 Red. masses --      1.1074                 1.0896                 1.0893
 Frc consts  --      6.6333                 6.5625                 6.6270
 IR Inten    --     14.3320                 9.0682                 1.3623

                    112                    113                    114
                      A                      A                      A
 Frequencies --   3229.5526              3232.2610              3486.7491
 Red. masses --      1.0925                 1.0937                 1.0731
 Frc consts  --      6.7136                 6.7322                 7.6862
 IR Inten    --      0.9371                 0.7727                 0.6801

 - Thermochemistry -
 -------------------
 Temperature   298.150 Kelvin.  Pressure   1.00000 Atm.
 Atom     1 has atomic number  6 and mass  12.00000

 Molecular mass:   300.11438 amu.
 Principal axes and moments of inertia in atomic units:
                           1         2         3
     Eigenvalues --  3643.85166********************
           X            0.99993  -0.01144  -0.00171
           Y            0.01142   0.99980  -0.01617
           Z            0.00189   0.01615   0.99987
 This molecule is an asymmetric top.
 Rotational symmetry number  1.
 Warning -- assumption of classical behavior for rotation
           may cause significant error
 Rotational temperatures (Kelvin)      0.02377     0.00776     0.00699
 Rotational constants (GHZ):           0.49528     0.16174     0.14573
 Zero-point vibrational energy     871049.3 (Joules/Mol)
                                  208.18579 (Kcal/Mol)
 Warning -- explicit consideration of  32 degrees of freedom as
           vibrations may cause significant error
 Vibrational temperatures:     14.57    22.83    36.56    56.34    73.11
          (Kelvin)             85.91   126.20   138.49   186.81   203.07
                              222.94   230.33   267.24   284.12   303.91
                              327.26   369.95   389.13   413.79   436.41
                              449.21   510.22   516.31   538.46   577.63
                              599.91   609.53   678.43   705.85   730.83
                              792.56   816.44   896.41   933.26   963.26
                              998.85  1037.21  1121.33  1136.79  1193.52
                             1199.28  1236.74  1241.83  1298.34  1302.11
                             1390.94  1397.11  1399.16  1423.73  1457.86
                             1497.34  1510.58  1534.72  1570.55  1600.83
                             1643.94  1648.92  1659.54  1686.98  1687.82
                             1706.52  1724.87  1754.26  1754.77  1755.31
                             1764.48  1795.65  1869.51  1891.37  1910.75
                             1921.95  1925.86  1938.77  1983.11  2011.99
                             2035.17  2097.21  2125.15  2136.87  2147.54
                             2165.48  2169.90  2176.01  2176.76  2191.63
                             2192.33  2194.14  2201.45  2206.99  2222.41
                             2244.32  2352.23  2386.12  2624.77  4316.38
                             4348.99  4375.02  4385.16  4424.27  4429.99
                             4430.37  4437.07  4475.18  4494.35  4524.60
                             4531.22  4539.68  4550.36  4587.65  4600.09
                             4623.27  4646.61  4650.50  5016.65

 Zero-point correction=                           0.331765 (Hartree/Particle)
 Thermal correction to Energy=                    0.353187
 Thermal correction to Enthalpy=                  0.354132
 Thermal correction to Gibbs Free Energy=         0.277428
 Sum of electronic and zero-point Energies=          -1315.691644
 Sum of electronic and thermal Energies=             -1315.670222
 Sum of electronic and thermal Enthalpies=           -1315.669278
 Sum of electronic and thermal Free Energies=        -1315.745981

                     E (Thermal)             CV                S
                      KCal/Mol        Cal/Mol-Kelvin    Cal/Mol-Kelvin
 Total                  221.628             77.683            161.435
 Electronic               0.000              0.000              0.000
 Translational            0.889              2.981             42.994
 Rotational               0.889              2.981             34.575
 Vibrational            219.851             71.722             83.866
 Vibration     1          0.593              1.987              7.987
 Vibration     2          0.593              1.986              7.094
 Vibration     3          0.593              1.985              6.159
 Vibration     4          0.594              1.981              5.301
 Vibration     5          0.595              1.977              4.786
 Vibration     6          0.597              1.974              4.467
 Vibration     7          0.601              1.958              3.710
 Vibration     8          0.603              1.952              3.529
 Vibration     9          0.612              1.923              2.948
 Vibration    10          0.615              1.912              2.788
 Vibration    11          0.620              1.897              2.611
 Vibration    12          0.622              1.891              2.549
 Vibration    13          0.632              1.859              2.270
 Vibration    14          0.637              1.843              2.157
 Vibration    15          0.643              1.824              2.033
 Vibration    16          0.651              1.799              1.899
 Vibration    17          0.667              1.751              1.681
 Vibration    18          0.674              1.728              1.593
 Vibration    19          0.685              1.697              1.488
 Vibration    20          0.695              1.667              1.399
 Vibration    21          0.701              1.650              1.351
 Vibration    22          0.730              1.566              1.146
 Vibration    23          0.734              1.557              1.127
 Vibration    24          0.745              1.525              1.062
 Vibration    25          0.767              1.467              0.957
 Vibration    26          0.780              1.433              0.902
 Vibration    27          0.786              1.419              0.880
 Vibration    28          0.828              1.313              0.733
 Vibration    29          0.846              1.271              0.682
 Vibration    30          0.863              1.232              0.639
 Vibration    31          0.906              1.138              0.542
 Vibration    32          0.923              1.102              0.509

 Optimization completed.
    -- Stationary point found.
 Normal termination of Gaussian 16 at Sat Dec 12 17:01:52 2020.

 ----------------------------------------------------------------------
 # B3LYP/6-311++G(d,p) empiricaldispersion=gd3bj scf=xqc pop=npa geom=c
 heck
 ----------------------------------------------------------------------

 ---------------------------------------
 CID_64082290_JID_10822_Energie_neutraal
 ---------------------------------------
 Structure from the checkpoint file:  "JID_10822.chk"
 Charge =  0 Multiplicity = 1

 SCF Done:  E(RB3LYP) =  -1316.31349003     A.U. after   16 cycles
 Normal termination of Gaussian 16 at Sat Dec 12 17:11:45 2020.

 ----------------------------------------------------------------------
 # B3LYP/6-311++G(d,p) empiricaldispersion=gd3bj scf=xqc pop=npa geom=c
 heck
 ----------------------------------------------------------------------

 -------------------------------------
 CID_64082290_JID_10822_Energie_kation
 -------------------------------------
 Structure from the checkpoint file:  "JID_10822.chk"
 Charge =  1 Multiplicity = 2

 SCF Done:  E(UB3LYP) =  -1316.01309829     A.U. after   25 cycles
 Normal termination of Gaussian 16 at Sat Dec 12 17:33:43 2020.
 Gaussian 16:  ES64L-G16RevA.03 25-Dec-2016

 ----------------------------------------------------------------------
 # B3LYP/6-311++G(d,p) empiricaldispersion=gd3bj scf=xqc pop=npa geom=c
 heck
 ----------------------------------------------------------------------

 ------------------------------------
 CID_64082290_JID_10822_Energie_anion
 ------------------------------------
 Structure from the checkpoint file:  "JID_10822.chk"
 Charge = -1 Multiplicity = 2

                         Standard orientation:
 ---------------------------------------------------------------------
 Center     Atomic      Atomic             Coordinates (Angstroms)
 Number     Number       Type             X           Y           Z
 ---------------------------------------------------------------------
      1          6           0       -2.874074    2.585340   -1.498737
      2          7           0       -2.452269    2.687628   -0.102692
      3          6           0       -3.429469    2.193825    0.856208
      4          6           0       -3.720527    0.682899    0.784696
      5          7           0       -2.466817   -0.071346    0.941595
      6          6           0       -2.032058   -0.325833    2.315310
      7         16           0       -2.161804   -1.339728   -0.134188
      8          8           0       -2.290653   -2.635356    0.544267
      9          8           0       -2.920649   -1.049215   -1.356021
     10          6           0       -0.425610   -1.079272   -0.474533
     11          6           0        0.529814   -1.875029    0.155883
     12          6           0        1.880105   -1.638075   -0.092773
     13          6           0        2.274172   -0.620324   -0.969760
     14          6           0        1.296558    0.161187   -1.597466
     15          6           0       -0.055767   -0.064043   -1.357337
     16          6           0        3.747762   -0.364127   -1.224067
     17          6           0        4.431486    0.077258    0.059253
     18          8           0        4.769359   -0.670720    0.950960
     19          8           0        4.574110    1.415808    0.103058
     20          6           0        5.153664    1.928899    1.315720
     21          1           0       -3.777102    3.190198   -1.643263
     22          1           0       -3.090685    1.563747   -1.851066
     23          1           0       -2.091161    3.008695   -2.137658
     24          1           0       -1.592031    2.156453    0.026121
     25          1           0       -3.074000    2.451699    1.862376
     26          1           0       -4.372565    2.736244    0.709282
     27          1           0       -4.442431    0.385471    1.559495
     28          1           0       -4.149687    0.424722   -0.183326
     29          1           0       -2.662057   -1.067335    2.822488
     30          1           0       -0.996637   -0.675917    2.320108
     31          1           0       -2.068877    0.618772    2.863731
     32          1           0        0.210528   -2.672196    0.817980
     33          1           0        2.638170   -2.236511    0.402496
     34          1           0        1.597131    0.947987   -2.283514
     35          1           0       -0.817118    0.523525   -1.858399
     36          1           0        4.239292   -1.285857   -1.551221
     37          1           0        3.876483    0.397376   -1.995871
     38          1           0        4.532165    1.664619    2.174971
     39          1           0        6.156227    1.519487    1.462150
     40          1           0        5.193150    3.010124    1.185308
 ---------------------------------------------------------------------

 SCF Done:  E(UB3LYP) =  -1316.31914685     A.U. after   33 cycles
 SCF Done:  E(UB3LYP) =  -1316.31914685     a.u. after    1 cycles

 The electronic state is 2-A.
 Alpha  occ. eigenvalues --  -88.93311 -19.06817 -18.99932 -18.99515 -18.99276
 Alpha  occ. eigenvalues --  -14.23035 -14.19961 -10.18357 -10.13733 -10.10338
 Alpha  occ. eigenvalues --  -10.10206 -10.10182 -10.08991 -10.06829 -10.05267
 Alpha  occ. eigenvalues --  -10.04839 -10.04741 -10.04612 -10.04186 -10.03850
 Alpha  occ. eigenvalues --   -7.99473  -5.95779  -5.95764  -5.95501  -1.00524
 Alpha  occ. eigenvalues --   -0.99497  -0.91362  -0.88678  -0.83301  -0.80125
 Alpha  occ. eigenvalues --   -0.73663  -0.68000  -0.65364  -0.63813  -0.62166
 Alpha  occ. eigenvalues --   -0.60865  -0.59231  -0.57023  -0.52824  -0.48960
 Alpha  occ. eigenvalues --   -0.48614  -0.46910  -0.45113  -0.42564  -0.40166
 Alpha  occ. eigenvalues --   -0.39599  -0.39163  -0.38883  -0.38493  -0.37884
 Alpha  occ. eigenvalues --   -0.36070  -0.35046  -0.34169  -0.33935  -0.32449
 Alpha  occ. eigenvalues --   -0.32245  -0.32090  -0.31463  -0.30984  -0.30290
 Alpha  occ. eigenvalues --   -0.29828  -0.29307  -0.28605  -0.27767  -0.27104
 Alpha  occ. eigenvalues --   -0.26629  -0.25647  -0.24214  -0.23690  -0.22876
 Alpha  occ. eigenvalues --   -0.22086  -0.21035  -0.20371  -0.19164  -0.18310
 Alpha  occ. eigenvalues --   -0.17390  -0.15381  -0.13508  -0.13237  -0.12376
 Alpha  occ. eigenvalues --    0.04366
 Alpha virt. eigenvalues --    0.06445   0.06880   0.07958   0.08517   0.08945
 Alpha virt. eigenvalues --    0.09507   0.09771   0.10546   0.10599   0.11068
 Alpha virt. eigenvalues --    0.11362   0.11602   0.11712   0.12141   0.12205

  Beta  occ. eigenvalues --  -88.93299 -19.06782 -18.99875 -18.99483 -18.99251
  Beta  occ. eigenvalues --  -14.22993 -14.19955 -10.18207 -10.13733 -10.10311
  Beta  occ. eigenvalues --  -10.10198 -10.10176 -10.08989 -10.06873 -10.04955
  Beta  occ. eigenvalues --  -10.04793 -10.04788 -10.04476 -10.03834 -10.03759
  Beta  occ. eigenvalues --   -7.99460  -5.95758  -5.95726  -5.95500  -1.00408
  Beta  occ. eigenvalues --   -0.99389  -0.91254  -0.88613  -0.83233  -0.80094
  Beta  occ. eigenvalues --   -0.73231  -0.67628  -0.65297  -0.63554  -0.61878
  Beta  occ. eigenvalues --   -0.60761  -0.59106  -0.56884  -0.52682  -0.48609
  Beta  occ. eigenvalues --   -0.48505  -0.46802  -0.44861  -0.42411  -0.40026
  Beta  occ. eigenvalues --   -0.39455  -0.39095  -0.38742  -0.38441  -0.37774
  Beta  occ. eigenvalues --   -0.35985  -0.34948  -0.33959  -0.33824  -0.32401
  Beta  occ. eigenvalues --   -0.32125  -0.31953  -0.31302  -0.30952  -0.30195
  Beta  occ. eigenvalues --   -0.29744  -0.29077  -0.28570  -0.27549  -0.27081
  Beta  occ. eigenvalues --   -0.26487  -0.25600  -0.23533  -0.23252  -0.22781
  Beta  occ. eigenvalues --   -0.21940  -0.20767  -0.20280  -0.19058  -0.18122
  Beta  occ. eigenvalues --   -0.17176  -0.15108  -0.13124  -0.12618  -0.10959
  Beta virt. eigenvalues --    0.06462   0.06774   0.07849   0.08412   0.08880
  Beta virt. eigenvalues --    0.09254   0.09673   0.09993   0.10620   0.10806
  Beta virt. eigenvalues --    0.11086   0.11439   0.11640   0.12057   0.12248

 Mulliken charges and spin densities:
               1          2
     1  C   -0.396367  -0.024605
     2  N   -0.155754   0.008289
     3  C   -0.272090  -0.242990
     4  C   -0.264638   0.069962
     5  N   -0.064499   0.076506
     6  C   -0.158654  -0.224778
     7  S    0.020646  -0.091569
     8  O   -0.078882   0.018635
     9  O   -0.247739  -0.022036
    10  C    0.009947   0.159287
    11  C   -0.231290   0.111776
    12  C   -0.724729   0.268048
    13  C    1.018861   0.281327
    14  C   -0.536576  -0.160223
    15  C   -0.453853   0.166327
    16  C   -0.251381  -0.250413
    17  C   -0.035755  -0.023269
    18  O   -0.289240   0.030785
    19  O   -0.058076   0.007140
    20  C   -0.220119  -0.003111
    21  H    0.110072   0.014912
    22  H    0.126916  -0.000469
    23  H    0.147570   0.009433
    24  H    0.254571   0.025695
    25  H    0.106587   0.051835
    26  H    0.066169   0.054750
    27  H   -0.033287   0.160071
    28  H    0.171261   0.013679
    29  H    0.094970   0.094227
    30  H    0.137564   0.014151
    31  H    0.032813   0.101441
    32  H    0.218466  -0.003333
    33  H    0.175751   0.003516
    34  H    0.118088   0.021094
    35  H    0.162685  -0.011000
    36  H   -0.052383   0.239810
    37  H    0.094124   0.051011
    38  H    0.170055   0.001324
    39  H    0.157837   0.001150
    40  H    0.130361   0.001612
 Sum of Mulliken charges =  -1.00000   1.00000

 Dipole moment (field-independent basis, Debye):
    X=             -0.0757    Y=              5.4866    Z=              1.6365  Tot=              5.7260
 Quadrupole moment (field-independent basis, Debye-Ang):
   XX=           -183.0645   YY=           -161.0963   ZZ=           -144.2522
   XY=              3.5297   XZ=             -1.0499   YZ=             -0.9516

 Summary of Natural Population Analysis:

                                       Natural Population
                Natural  -----------------------------------------------
    Atom  No    Charge         Core      Valence    Rydberg      Total
 -----------------------------------------------------------------------
      C    1   -0.18660      0.99967     2.17991    0.00702     3.18660
      N    2   -0.34351      0.99976     2.83123    0.01252     3.84351
      C    3   -0.08919      0.99963     2.07848    0.01109     3.08919
      C    4   -0.09990      0.99960     2.08833    0.01197     3.09990
      N    5   -0.37919      0.99974     2.86515    0.01430     3.87919
      C    6   -0.17981      0.99964     2.17251    0.00767     3.17981
      S    7    1.11806      4.99911     1.78120    0.10163     6.88194
      O    8   -0.47022      0.99991     3.46536    0.00495     4.47022
      O    9   -0.47137      0.99990     3.46663    0.00483     4.47137
      C   10   -0.09408      0.99935     2.07966    0.01507     3.09408
      C   11   -0.08859      0.99951     2.07873    0.01036     3.08859
      C   12   -0.09897      0.99952     2.09025    0.00920     3.09897
      C   13    0.05430      0.99949     1.93650    0.00970     2.94570
      C   14   -0.11368      0.99952     2.10509    0.00908     3.11368
      C   15   -0.07400      0.99951     2.06331    0.01119     3.07400
      C   16   -0.24112      0.99956     2.23194    0.00961     3.24112
      C   17    0.42963      0.99970     1.54397    0.02670     2.57037
      O   18   -0.31093      0.99987     3.30558    0.00548     4.31093
      O   19   -0.27664      0.99986     3.26948    0.00730     4.27664
      C   20   -0.10656      0.99961     2.09876    0.00820     3.10656
      H   21    0.08529      0.00000     0.41380    0.00091     0.41471
      H   22    0.09211      0.00000     0.40651    0.00138     0.40789
      H   23    0.09359      0.00000     0.40568    0.00073     0.40641
      H   24    0.18072      0.00000     0.31564    0.00364     0.31928
      H   25    0.09032      0.00000     0.40840    0.00128     0.40968
      H   26    0.08903      0.00000     0.40996    0.00101     0.41097
      H   27    0.08800      0.00000     0.41028    0.00172     0.41200
      H   28    0.11365      0.00000     0.38499    0.00137     0.38635
      H   29    0.09201      0.00000     0.40645    0.00154     0.40799
      H   30    0.10855      0.00000     0.39044    0.00101     0.39145
      H   31    0.09381      0.00000     0.40491    0.00128     0.40619
      H   32    0.10774      0.00000     0.39140    0.00086     0.39226
      H   33    0.10330      0.00000     0.39569    0.00101     0.39670
      H   34    0.09354      0.00000     0.40540    0.00105     0.40646
      H   35    0.10217      0.00000     0.39663    0.00120     0.39783
      H   36    0.11580      0.00000     0.38240    0.00180     0.38420
      H   37    0.10589      0.00000     0.39297    0.00115     0.39411
      H   38    0.09215      0.00000     0.40685    0.00099     0.40785
      H   39    0.08797      0.00000     0.41094    0.00110     0.41203
      H   40    0.08674      0.00000     0.41250    0.00075     0.41326
 =======================================================================
   * Total *   -0.00000     23.99244    55.68389    0.32367    80.00000

 Normal termination of Gaussian 16 at Sat Dec 12 18:02:24 2020.
