 Gaussian 16, Revision A.03,

 -----------------------------------------------------------
 # opt freq B3LYP/6-31G(d) empiricaldispersion=gd3bj scf=xqc
 -----------------------------------------------------------

 -------------------------------
 CID_153095197_JID_3542_neutraal
 -------------------------------
 Symbolic Z-matrix:
 Charge =  0 Multiplicity = 1

 SCF Done:  E(RB3LYP) =  -578.022575934     A.U. after   14 cycles
 SCF Done:  E(RB3LYP) =  -578.038834810     A.U. after   12 cycles
 SCF Done:  E(RB3LYP) =  -578.041746179     A.U. after   12 cycles
 SCF Done:  E(RB3LYP) =  -578.041467427     A.U. after   12 cycles
 SCF Done:  E(RB3LYP) =  -578.042373025     A.U. after   11 cycles
 SCF Done:  E(RB3LYP) =  -578.042431537     A.U. after   10 cycles
 SCF Done:  E(RB3LYP) =  -578.042437828     A.U. after    8 cycles
 SCF Done:  E(RB3LYP) =  -578.042438253     A.U. after    7 cycles
 Optimization completed.
    -- Stationary point found.
 Normal termination of Gaussian 16 at Wed Dec  9 23:35:31 2020.

 --------------------------------------------------------------------
 #N Geom=AllCheck Guess=TCheck SCRF=Check GenChk RB3LYP/6-31G(d) Freq
 --------------------------------------------------------------------

 Structure from the checkpoint file:  "JID_3542.chk"
 -------------------------------
 CID_153095197_JID_3542_neutraal
 -------------------------------
 Charge =  0 Multiplicity = 1

 SCF Done:  E(RB3LYP) =  -578.042438253     A.U. after    1 cycles

  Exact polarizability: 110.107  -2.467 111.418   0.467   1.080  96.857
 Approx polarizability: 166.612  -8.779 164.551  -2.945   3.864 147.596

                      1                      2                      3
                      A                      A                      A
 Frequencies --    121.3408               221.7003               253.1112
 Red. masses --      7.0968                 2.5801                 3.5227
 Frc consts  --      0.0616                 0.0747                 0.1330
 IR Inten    --      1.1765                 1.3809                 2.3070

                      4                      5                      6
                      A                      A                      A
 Frequencies --    311.7621               338.6576               370.2578
 Red. masses --      2.9935                 3.2945                 2.8304
 Frc consts  --      0.1714                 0.2226                 0.2286
 IR Inten    --      1.3620                 0.9701                 1.9491

                      7                      8                      9
                      A                      A                      A
 Frequencies --    373.6024               421.2782               464.1751
 Red. masses --      3.5458                 2.2395                 3.7957
 Frc consts  --      0.2916                 0.2342                 0.4818
 IR Inten    --      0.4595                 0.9640                 2.4618

                     10                     11                     12
                      A                      A                      A
 Frequencies --    495.8571               522.3942               550.5782
 Red. masses --      4.1979                 4.2410                 2.3094
 Frc consts  --      0.6081                 0.6819                 0.4125
 IR Inten    --      0.8232                 0.2268                 0.6109

                     13                     14                     15
                      A                      A                      A
 Frequencies --    585.4482               634.7640               691.0616
 Red. masses --      4.1697                 4.7090                 3.4994
 Frc consts  --      0.8420                 1.1179                 0.9846
 IR Inten    --      2.0822                 1.3807                 2.4821

                     16                     17                     18
                      A                      A                      A
 Frequencies --    735.1433               758.8142               794.6220
 Red. masses --      3.5096                 5.8858                 3.3568
 Frc consts  --      1.1175                 1.9968                 1.2488
 IR Inten    --      1.6758                 4.5889                 1.5574

                     19                     20                     21
                      A                      A                      A
 Frequencies --    802.7157               839.6610               849.4324
 Red. masses --      2.5555                 3.2251                 2.5713
 Frc consts  --      0.9702                 1.3397                 1.0931
 IR Inten    --      0.3267                 6.0569                 0.3881

                     22                     23                     24
                      A                      A                      A
 Frequencies --    875.3075               904.4585               932.4849
 Red. masses --      3.7688                 1.8521                 2.9876
 Frc consts  --      1.7013                 0.8927                 1.5306
 IR Inten    --      7.5610                 6.5620                49.0377

                     25                     26                     27
                      A                      A                      A
 Frequencies --    941.7633               952.7653               971.5691
 Red. masses --      3.4752                 2.0329                 2.1229
 Frc consts  --      1.8160                 1.0873                 1.1807
 IR Inten    --     19.8094                 0.9856                19.0409

                     28                     29                     30
                      A                      A                      A
 Frequencies --    992.6069               999.4263              1023.8252
 Red. masses --      2.9150                 2.4135                 3.4086
 Frc consts  --      1.6922                 1.4204                 2.1051
 IR Inten    --     88.3993                 2.8147                41.5896

                     31                     32                     33
                      A                      A                      A
 Frequencies --   1030.1466              1047.7814              1089.8924
 Red. masses --      2.0330                 1.6488                 1.6442
 Frc consts  --      1.2711                 1.0665                 1.1507
 IR Inten    --      9.9434                26.9383                10.5834

                     34                     35                     36
                      A                      A                      A
 Frequencies --   1101.4773              1113.6527              1143.8511
 Red. masses --      1.6188                 1.5585                 1.6497
 Frc consts  --      1.1572                 1.1388                 1.2717
 IR Inten    --      7.0469                14.9424                15.3928

                     37                     38                     39
                      A                      A                      A
 Frequencies --   1163.8841              1190.0713              1203.5615
 Red. masses --      1.5399                 1.6376                 1.2864
 Frc consts  --      1.2290                 1.3665                 1.0979
 IR Inten    --      3.7911                 2.6021                 7.8158

                     40                     41                     42
                      A                      A                      A
 Frequencies --   1211.6473              1235.4373              1239.9185
 Red. masses --      1.4978                 1.2640                 1.2934
 Frc consts  --      1.2956                 1.1367                 1.1716
 IR Inten    --     12.9702                 0.4302                 0.5035

                     43                     44                     45
                      A                      A                      A
 Frequencies --   1275.5284              1287.2900              1305.8104
 Red. masses --      1.5330                 1.6895                 1.9359
 Frc consts  --      1.4695                 1.6495                 1.9448
 IR Inten    --      0.8023                 0.8998                14.5388

                     46                     47                     48
                      A                      A                      A
 Frequencies --   1312.6920              1339.4917              1371.5263
 Red. masses --      1.6653                 1.6506                 1.8438
 Frc consts  --      1.6907                 1.7449                 2.0435
 IR Inten    --      3.7727                 3.7073                 4.7997

                     49                     50                     51
                      A                      A                      A
 Frequencies --   1374.2091              1382.3392              1383.4755
 Red. masses --      1.4310                 1.4495                 1.5006
 Frc consts  --      1.5922                 1.6319                 1.6923
 IR Inten    --      3.6430                 0.8013                 6.9712

                     52                     53                     54
                      A                      A                      A
 Frequencies --   1395.4022              1415.7733              1418.5583
 Red. masses --      1.3552                 1.3130                 1.4207
 Frc consts  --      1.5547                 1.5506                 1.6845
 IR Inten    --      6.3402                 2.8968                 2.7799

                     55                     56                     57
                      A                      A                      A
 Frequencies --   1460.4812              1505.8432              1511.8423
 Red. masses --      1.2582                 1.0900                 1.0937
 Frc consts  --      1.5812                 1.4562                 1.4728
 IR Inten    --      0.8446                 3.3572                 2.9241

                     58                     59                     60
                      A                      A                      A
 Frequencies --   1528.2875              1534.7163              1567.0524
 Red. masses --      1.0874                 1.1119                 1.0876
 Frc consts  --      1.4964                 1.5431                 1.5736
 IR Inten    --      4.8077                 2.6249                 5.3047

                     61                     62                     63
                      A                      A                      A
 Frequencies --   1880.9479              3035.2152              3040.7148
 Red. masses --     12.9835                 1.0688                 1.0619
 Frc consts  --     27.0643                 5.8011                 5.7848
 IR Inten    --    429.6269                 6.7071                14.0338

                     64                     65                     66
                      A                      A                      A
 Frequencies --   3052.4873              3056.2210              3068.9947
 Red. masses --      1.0762                 1.0816                 1.0666
 Frc consts  --      5.9080                 5.9524                 5.9188
 IR Inten    --     59.8394                23.9118                13.3345

                     67                     68                     69
                      A                      A                      A
 Frequencies --   3075.5707              3077.3891              3080.2949
 Red. masses --      1.0909                 1.0733                 1.0798
 Frc consts  --      6.0796                 5.9890                 6.0362
 IR Inten    --     16.8585                16.1325                36.1693

                     70                     71                     72
                      A                      A                      A
 Frequencies --   3085.7962              3091.0929              3105.7850
 Red. masses --      1.0966                 1.0704                 1.0906
 Frc consts  --      6.1523                 6.0261                 6.1983
 IR Inten    --     78.9299                59.6140                48.6619

                     73                     74                     75
                      A                      A                      A
 Frequencies --   3112.5554              3113.2041              3142.1462
 Red. masses --      1.1023                 1.1048                 1.1096
 Frc consts  --      6.2919                 6.3090                 6.4547
 IR Inten    --     32.9336                17.7332                35.4053

 - Thermochemistry -
 -------------------
 Temperature   298.150 Kelvin.  Pressure   1.00000 Atm.
 Atom     1 has atomic number  6 and mass  12.00000

 Molecular mass:   178.09938 amu.
 Principal axes and moments of inertia in atomic units:
                           1         2         3
     Eigenvalues --  1431.342231826.706112252.80797
           X            0.99940   0.03077   0.01611
           Y           -0.03074   0.99953  -0.00224
           Z           -0.01617   0.00174   0.99987
 This molecule is an asymmetric top.
 Rotational symmetry number  1.
 Warning -- assumption of classical behavior for rotation
           may cause significant error
 Rotational temperatures (Kelvin)      0.06051     0.04742     0.03845
 Rotational constants (GHZ):           1.26087     0.98798     0.80111
 Zero-point vibrational energy     621404.0 (Joules/Mol)
                                  148.51913 (Kcal/Mol)
 Warning -- explicit consideration of  13 degrees of freedom as
           vibrations may cause significant error
 Vibrational temperatures:    174.58   318.98   364.17   448.56   487.25
          (Kelvin)            532.72   537.53   606.13   667.84   713.43
                              751.61   792.16   842.33   913.28   994.28
                             1057.71  1091.76  1143.28  1154.93  1208.08
                             1222.14  1259.37  1301.31  1341.64  1354.99
                             1370.82  1397.87  1428.14  1437.95  1473.06
                             1482.15  1507.52  1568.11  1584.78  1602.30
                             1645.75  1674.57  1712.25  1731.66  1743.29
                             1777.52  1783.97  1835.20  1852.12  1878.77
                             1888.67  1927.23  1973.32  1977.18  1988.88
                             1990.51  2007.67  2036.98  2040.99  2101.31
                             2166.57  2175.20  2198.86  2208.11  2254.64
                             2706.26  4367.00  4374.91  4391.85  4397.22
                             4415.60  4425.06  4427.68  4431.86  4439.77
                             4447.39  4468.53  4478.27  4479.21  4520.85

 Zero-point correction=                           0.236680 (Hartree/Particle)
 Thermal correction to Energy=                    0.245540
 Thermal correction to Enthalpy=                  0.246484
 Thermal correction to Gibbs Free Energy=         0.203266
 Sum of electronic and zero-point Energies=           -577.805758
 Sum of electronic and thermal Energies=              -577.796899
 Sum of electronic and thermal Enthalpies=            -577.795954
 Sum of electronic and thermal Free Energies=         -577.839172

                     E (Thermal)             CV                S
                      KCal/Mol        Cal/Mol-Kelvin    Cal/Mol-Kelvin
 Total                  154.078             39.724             90.960
 Electronic               0.000              0.000              0.000
 Translational            0.889              2.981             41.438
 Rotational               0.889              2.981             30.156
 Vibrational            152.301             33.762             19.366
 Vibration     1          0.609              1.931              3.079
 Vibration     2          0.648              1.808              1.945
 Vibration     3          0.664              1.758              1.709
 Vibration     4          0.700              1.651              1.353
 Vibration     5          0.719              1.598              1.218
 Vibration     6          0.742              1.533              1.079
 Vibration     7          0.745              1.526              1.065
 Vibration     8          0.784              1.424              0.888
 Vibration     9          0.822              1.330              0.754
 Vibration    10          0.851              1.259              0.669
 Vibration    11          0.877              1.200              0.604
 Vibration    12          0.906              1.138              0.543
 Vibration    13          0.942              1.063              0.475

 Optimization completed.
    -- Stationary point found.
 Normal termination of Gaussian 16 at Wed Dec  9 23:45:00 2020.

 ----------------------------------------------------------------------
 # B3LYP/6-311++G(d,p) empiricaldispersion=gd3bj scf=xqc pop=npa geom=c
 heck
 ----------------------------------------------------------------------

 ---------------------------------------
 CID_153095197_JID_3542_Energie_neutraal
 ---------------------------------------
 Structure from the checkpoint file:  "JID_3542.chk"
 Charge =  0 Multiplicity = 1

 SCF Done:  E(RB3LYP) =  -578.196573672     A.U. after   14 cycles
 Normal termination of Gaussian 16 at Wed Dec  9 23:48:47 2020.

 ----------------------------------------------------------------------
 # B3LYP/6-311++G(d,p) empiricaldispersion=gd3bj scf=xqc pop=npa geom=c
 heck
 ----------------------------------------------------------------------

 -------------------------------------
 CID_153095197_JID_3542_Energie_kation
 -------------------------------------
 Structure from the checkpoint file:  "JID_3542.chk"
 Charge =  1 Multiplicity = 2

 SCF Done:  E(UB3LYP) =  -577.868224759     A.U. after   20 cycles
 Normal termination of Gaussian 16 at Wed Dec  9 23:56:31 2020.
 Gaussian 16:  ES64L-G16RevA.03 25-Dec-2016

 ----------------------------------------------------------------------
 # B3LYP/6-311++G(d,p) empiricaldispersion=gd3bj scf=xqc pop=npa geom=c
 heck
 ----------------------------------------------------------------------

 ------------------------------------
 CID_153095197_JID_3542_Energie_anion
 ------------------------------------
 Structure from the checkpoint file:  "JID_3542.chk"
 Charge = -1 Multiplicity = 2

                         Standard orientation:
 ---------------------------------------------------------------------
 Center     Atomic      Atomic             Coordinates (Angstroms)
 Number     Number       Type             X           Y           Z
 ---------------------------------------------------------------------
      1          6           0       -0.580923    1.936906   -0.563633
      2          6           0       -1.373173    0.698927   -1.054827
      3          6           0       -2.287058   -0.108352   -0.080954
      4          6           0       -1.513119   -1.128753    0.791897
      5          6           0       -0.578540   -2.151300    0.024759
      6          6           0        0.326468   -0.902676   -0.220301
      7          6           0       -0.301227   -0.264870   -1.509643
      8          6           0       -0.201046   -0.457643    1.208311
      9          6           0        0.030097    0.979202    1.645496
     10          6           0        0.586219    1.680302    0.415313
     11          8           0        1.754553    0.924488   -0.081553
     12          6           0        1.756143   -0.467452   -0.225751
     13          8           0        2.798280   -1.057059   -0.328606
     14          1           0       -1.237312    2.659220   -0.060443
     15          1           0       -0.190144    2.439042   -1.456897
     16          1           0       -1.996360    1.039238   -1.890918
     17          1           0       -2.836841    0.567827    0.586688
     18          1           0       -3.041907   -0.631050   -0.682126
     19          1           0       -2.157841   -1.547294    1.571744
     20          1           0       -0.960482   -2.660716   -0.863251
     21          1           0       -0.172562   -2.886793    0.724807
     22          1           0       -0.703189   -1.066692   -2.135250
     23          1           0        0.458130    0.246543   -2.107240
     24          1           0        0.325360   -1.124989    1.898816
     25          1           0        0.753058    1.014951    2.465904
     26          1           0       -0.882602    1.480290    1.986117
     27          1           0        1.036986    2.645236    0.659327
 ---------------------------------------------------------------------

 SCF Done:  E(UB3LYP) =  -578.186570781     A.U. after   31 cycles

 The electronic state is 2-A.
 Alpha  occ. eigenvalues --  -19.04966 -19.01156 -10.19960 -10.13493 -10.09932
 Alpha  occ. eigenvalues --  -10.08420 -10.08395 -10.08296 -10.07560 -10.07117
 Alpha  occ. eigenvalues --  -10.07075 -10.07072 -10.06692  -0.98554  -0.91616
 Alpha  occ. eigenvalues --   -0.79390  -0.70872  -0.68735  -0.64507  -0.60695
 Alpha  occ. eigenvalues --   -0.56664  -0.53363  -0.51650  -0.49629  -0.43758
 Alpha  occ. eigenvalues --   -0.42171  -0.40764  -0.39312  -0.36821  -0.35770
 Alpha  occ. eigenvalues --   -0.34786  -0.33977  -0.32741  -0.31654  -0.31280
 Alpha  occ. eigenvalues --   -0.29602  -0.28260  -0.27881  -0.26415  -0.24453
 Alpha  occ. eigenvalues --   -0.23667  -0.22963  -0.21584  -0.21181  -0.20490
 Alpha  occ. eigenvalues --   -0.19834  -0.18735  -0.15532   0.04261
 Alpha virt. eigenvalues --    0.07021   0.07119   0.08360   0.09097   0.09592
 Alpha virt. eigenvalues --    0.09969   0.10128   0.10804   0.11438   0.12256
 Alpha virt. eigenvalues --    0.12586   0.12993   0.13357   0.14598   0.14668

  Beta  occ. eigenvalues --  -19.04962 -19.01154 -10.19958 -10.13484 -10.09932
  Beta  occ. eigenvalues --  -10.08406 -10.08383 -10.08285 -10.07546 -10.07090
  Beta  occ. eigenvalues --  -10.07056 -10.07044 -10.06659  -0.98547  -0.91607
  Beta  occ. eigenvalues --   -0.79361  -0.70832  -0.68699  -0.64466  -0.60655
  Beta  occ. eigenvalues --   -0.56621  -0.53324  -0.51603  -0.49584  -0.43711
  Beta  occ. eigenvalues --   -0.42109  -0.40721  -0.39252  -0.36791  -0.35752
  Beta  occ. eigenvalues --   -0.34751  -0.33948  -0.32697  -0.31624  -0.31243
  Beta  occ. eigenvalues --   -0.29558  -0.28235  -0.27853  -0.26389  -0.24423
  Beta  occ. eigenvalues --   -0.23626  -0.22936  -0.21552  -0.21142  -0.20454
  Beta  occ. eigenvalues --   -0.19806  -0.18708  -0.15511
  Beta virt. eigenvalues --    0.06791   0.07847   0.08093   0.09163   0.09614
  Beta virt. eigenvalues --    0.10025   0.10573   0.10749   0.11067   0.11838
  Beta virt. eigenvalues --    0.12743   0.13029   0.13627   0.13869   0.14871

 Mulliken charges and spin densities:
               1          2
     1  C    1.935683  -2.731844
     2  C   -1.852352   2.387635
     3  C    2.416438  -3.286298
     4  C   -0.887817   1.231286
     5  C   -0.288730  -0.384258
     6  C    0.260010   0.417679
     7  C    0.686421  -1.307915
     8  C    0.399372  -0.486608
     9  C    0.789098  -1.534423
    10  C   -1.208342   1.403552
    11  O   -0.110366  -0.019264
    12  C    0.062314  -0.257200
    13  O   -0.287016   0.000967
    14  H   -0.497842   0.659851
    15  H   -0.035626   0.209428
    16  H   -0.608866   0.844530
    17  H   -0.184917   0.356712
    18  H   -0.374976   0.540848
    19  H   -0.704271   0.941838
    20  H   -0.061220   0.211388
    21  H   -0.008340   0.159328
    22  H    0.031716   0.129972
    23  H    0.062570   0.146394
    24  H    0.079586   0.154478
    25  H   -0.126374   0.303725
    26  H   -0.323447   0.493576
    27  H   -0.162706   0.414622
 Sum of Mulliken charges =  -1.00000   1.00000

 Dipole moment (field-independent basis, Debye):
    X=              3.1573    Y=             -1.8524    Z=             -0.5317  Tot=              3.6990
 Quadrupole moment (field-independent basis, Debye-Ang):
   XX=           -140.1237   YY=           -119.5345   ZZ=           -116.3406
   XY=              5.7913   XZ=              1.1975   YZ=              1.3980

 Summary of Natural Population Analysis:

                                       Natural Population
                Natural  -----------------------------------------------
    Atom  No    Charge         Core      Valence    Rydberg      Total
 -----------------------------------------------------------------------
      C    1   -0.19784      0.99958     2.18797    0.01028     3.19784
      C    2   -0.11539      0.99958     2.10211    0.01371     3.11539
      C    3   -0.19016      0.99960     2.18005    0.01051     3.19016
      C    4   -0.10038      0.99956     2.08616    0.01466     3.10038
      C    5   -0.17071      0.99960     2.16090    0.01021     3.17071
      C    6   -0.08841      0.99949     2.07454    0.01438     3.08841
      C    7   -0.18215      0.99958     2.17170    0.01087     3.18215
      C    8   -0.09582      0.99955     2.08311    0.01316     3.09582
      C    9   -0.21132      0.99956     2.20166    0.01010     3.21132
      C   10    0.06832      0.99950     1.91668    0.01551     2.93168
      O   11   -0.30058      0.99987     3.29309    0.00762     4.30058
      C   12    0.42055      0.99951     1.55253    0.02740     2.57945
      O   13   -0.29240      0.99986     3.28684    0.00570     4.29240
      H   14    0.10847      0.00000     0.38937    0.00216     0.39153
      H   15    0.10382      0.00000     0.39485    0.00133     0.39618
      H   16    0.10552      0.00000     0.39177    0.00271     0.39448
      H   17    0.10622      0.00000     0.39126    0.00252     0.39378
      H   18    0.10459      0.00000     0.39330    0.00211     0.39541
      H   19    0.10135      0.00000     0.39674    0.00192     0.39865
      H   20    0.09827      0.00000     0.40074    0.00100     0.40173
      H   21    0.10246      0.00000     0.39643    0.00111     0.39754
      H   22    0.10198      0.00000     0.39678    0.00124     0.39802
      H   23    0.10446      0.00000     0.39396    0.00158     0.39554
      H   24    0.10363      0.00000     0.39481    0.00156     0.39637
      H   25    0.10515      0.00000     0.39369    0.00116     0.39485
      H   26    0.11219      0.00000     0.38608    0.00173     0.38781
      H   27    0.09820      0.00000     0.40025    0.00155     0.40180
 =======================================================================
   * Total *   -0.00000     12.99485    34.81736    0.18779    48.00000

 Normal termination of Gaussian 16 at Thu Dec 10 00:08:20 2020.
