 Gaussian 16, Revision A.03,

 -----------------------------------------------------------
 # opt freq B3LYP/6-31G(d) empiricaldispersion=gd3bj scf=xqc
 -----------------------------------------------------------

 ------------------------------
 CID_84044229_JID_7877_neutraal
 ------------------------------
 Symbolic Z-matrix:
 Charge =  0 Multiplicity = 1

 SCF Done:  E(RB3LYP) =  -767.452589327     A.U. after   15 cycles
 SCF Done:  E(RB3LYP) =  -767.455534767     A.U. after   12 cycles
 SCF Done:  E(RB3LYP) =  -767.459024145     A.U. after   13 cycles
 SCF Done:  E(RB3LYP) =  -767.459404204     A.U. after   13 cycles
 SCF Done:  E(RB3LYP) =  -767.460382840     A.U. after   12 cycles
 SCF Done:  E(RB3LYP) =  -767.460327918     A.U. after   11 cycles
 SCF Done:  E(RB3LYP) =  -767.460654184     A.U. after   11 cycles
 SCF Done:  E(RB3LYP) =  -767.460659843     A.U. after   12 cycles
 SCF Done:  E(RB3LYP) =  -767.460738681     A.U. after   11 cycles
 SCF Done:  E(RB3LYP) =  -767.460763629     A.U. after   10 cycles
 SCF Done:  E(RB3LYP) =  -767.460763605     A.U. after    9 cycles
 SCF Done:  E(RB3LYP) =  -767.460767211     A.U. after    9 cycles
 SCF Done:  E(RB3LYP) =  -767.460767461     A.U. after    8 cycles
 SCF Done:  E(RB3LYP) =  -767.460767785     A.U. after    7 cycles
 SCF Done:  E(RB3LYP) =  -767.460767825     A.U. after    7 cycles
 Optimization completed.
    -- Stationary point found.
 Normal termination of Gaussian 16 at Fri Dec 11 13:31:41 2020.

 --------------------------------------------------------------------
 #N Geom=AllCheck Guess=TCheck SCRF=Check GenChk RB3LYP/6-31G(d) Freq
 --------------------------------------------------------------------

 Structure from the checkpoint file:  "JID_7877.chk"
 ------------------------------
 CID_84044229_JID_7877_neutraal
 ------------------------------
 Charge =  0 Multiplicity = 1

 SCF Done:  E(RB3LYP) =  -767.460767825     A.U. after    1 cycles

  Exact polarizability: 193.420  -9.299 153.510  21.148  17.667 117.751
 Approx polarizability: 270.857 -14.138 255.816  42.832  46.399 187.445

                      1                      2                      3
                      A                      A                      A
 Frequencies --     24.7663                47.3114                54.8358
 Red. masses --      4.6060                 5.8692                 5.0962
 Frc consts  --      0.0017                 0.0077                 0.0090
 IR Inten    --      0.0184                 1.5114                 0.4689

                      4                      5                      6
                      A                      A                      A
 Frequencies --     77.9177                97.9770               111.2219
 Red. masses --      4.5842                 2.2781                 3.0481
 Frc consts  --      0.0164                 0.0129                 0.0222
 IR Inten    --      0.4132                 0.0731                 0.1505

                      7                      8                      9
                      A                      A                      A
 Frequencies --    133.1118               137.1381               180.1104
 Red. masses --      2.8942                 4.3215                 1.8273
 Frc consts  --      0.0302                 0.0479                 0.0349
 IR Inten    --      0.8840                 2.3704                 2.4367

                     10                     11                     12
                      A                      A                      A
 Frequencies --    212.2477               238.9511               261.5063
 Red. masses --      3.1968                 1.3293                 3.6712
 Frc consts  --      0.0849                 0.0447                 0.1479
 IR Inten    --      2.5415                 0.8466                 1.8879

                     13                     14                     15
                      A                      A                      A
 Frequencies --    278.9389               287.8980               311.6243
 Red. masses --      3.0384                 1.3673                 2.4507
 Frc consts  --      0.1393                 0.0668                 0.1402
 IR Inten    --      1.4570                 5.4878                15.9944

                     16                     17                     18
                      A                      A                      A
 Frequencies --    341.6997               364.4543               382.6827
 Red. masses --      1.4737                 2.6369                 6.8555
 Frc consts  --      0.1014                 0.2064                 0.5915
 IR Inten    --    120.1403                11.8138                 0.8631

                     19                     20                     21
                      A                      A                      A
 Frequencies --    400.6001               412.4731               446.6061
 Red. masses --      2.8069                 3.2306                 2.0048
 Frc consts  --      0.2654                 0.3238                 0.2356
 IR Inten    --     23.4762                26.7652                11.9940

                     22                     23                     24
                      A                      A                      A
 Frequencies --    464.4545               486.2792               500.4668
 Red. masses --      2.5346                 3.1265                 1.4576
 Frc consts  --      0.3221                 0.4356                 0.2151
 IR Inten    --      2.7209                18.2040                59.8752

                     25                     26                     27
                      A                      A                      A
 Frequencies --    517.8372               544.8399               565.5147
 Red. masses --      1.9255                 2.6058                 3.2704
 Frc consts  --      0.3042                 0.4557                 0.6162
 IR Inten    --     59.2923                 6.5127                 1.4746

                     28                     29                     30
                      A                      A                      A
 Frequencies --    587.1753               610.3763               624.7272
 Red. masses --      2.9823                 1.9625                 2.8269
 Frc consts  --      0.6058                 0.4308                 0.6500
 IR Inten    --      9.8540                53.4574                46.1513

                     31                     32                     33
                      A                      A                      A
 Frequencies --    695.7452               725.7423               748.4449
 Red. masses --      4.2760                 2.6153                 5.1019
 Frc consts  --      1.2195                 0.8116                 1.6838
 IR Inten    --     34.3034                 4.8076                 3.4841

                     34                     35                     36
                      A                      A                      A
 Frequencies --    764.4174               793.6991               815.3626
 Red. masses --      1.8503                 1.1606                 2.2021
 Frc consts  --      0.6370                 0.4308                 0.8625
 IR Inten    --     72.3683                 2.9470                 0.1768

                     37                     38                     39
                      A                      A                      A
 Frequencies --    822.3621               844.7947               865.1865
 Red. masses --      1.2069                 2.8640                 4.6209
 Frc consts  --      0.4809                 1.2043                 2.0380
 IR Inten    --      3.4710                 2.9116                 2.6493

                     40                     41                     42
                      A                      A                      A
 Frequencies --    904.0412               917.6642               947.9730
 Red. masses --      1.9934                 2.2845                 1.5135
 Frc consts  --      0.9599                 1.1335                 0.8014
 IR Inten    --      2.1921                 2.5129                 2.7147

                     43                     44                     45
                      A                      A                      A
 Frequencies --    966.7803               976.5432              1010.5831
 Red. masses --      2.2342                 1.2861                 2.4577
 Frc consts  --      1.2304                 0.7226                 1.4788
 IR Inten    --      4.5930                 0.8141                 4.9782

                     46                     47                     48
                      A                      A                      A
 Frequencies --   1040.6249              1086.2592              1103.1429
 Red. masses --      2.1534                 1.9024                 3.2885
 Frc consts  --      1.3739                 1.3226                 2.3578
 IR Inten    --     32.6465                 4.8220               158.6700

                     49                     50                     51
                      A                      A                      A
 Frequencies --   1108.8427              1124.6001              1134.8573
 Red. masses --      2.3900                 1.7838                 1.7669
 Frc consts  --      1.7314                 1.3292                 1.3407
 IR Inten    --     30.1886                 7.2159                20.7726

                     52                     53                     54
                      A                      A                      A
 Frequencies --   1144.7066              1169.4981              1198.3525
 Red. masses --      1.6931                 1.4839                 1.5116
 Frc consts  --      1.3072                 1.1958                 1.2790
 IR Inten    --     51.0874                37.8119                 5.4520

                     55                     56                     57
                      A                      A                      A
 Frequencies --   1212.1165              1237.5059              1243.5698
 Red. masses --      1.5330                 2.1650                 1.5960
 Frc consts  --      1.3270                 1.9534                 1.4542
 IR Inten    --     62.3293               117.7542                14.8240

                     58                     59                     60
                      A                      A                      A
 Frequencies --   1274.0367              1295.0876              1317.3940
 Red. masses --      1.9493                 2.1691                 1.4500
 Frc consts  --      1.8642                 2.1436                 1.4827
 IR Inten    --     30.8509                56.1880                 5.6770

                     61                     62                     63
                      A                      A                      A
 Frequencies --   1324.3689              1356.2323              1377.6504
 Red. masses --      1.4500                 1.4993                 2.2334
 Frc consts  --      1.4985                 1.6248                 2.4974
 IR Inten    --     18.6337                16.3976                42.8759

                     64                     65                     66
                      A                      A                      A
 Frequencies --   1386.7916              1399.6379              1408.4589
 Red. masses --      1.4376                 3.5912                 1.2867
 Frc consts  --      1.6289                 4.1450                 1.5039
 IR Inten    --     19.6829                23.5426                24.1781

                     67                     68                     69
                      A                      A                      A
 Frequencies --   1418.0910              1427.3177              1434.1679
 Red. masses --      1.3169                 1.2746                 1.2482
 Frc consts  --      1.5603                 1.5300                 1.5127
 IR Inten    --      4.2698                 5.6732                18.8749

                     70                     71                     72
                      A                      A                      A
 Frequencies --   1438.7049              1453.6560              1494.8388
 Red. masses --      1.2268                 1.4270                 1.4098
 Frc consts  --      1.4962                 1.7766                 1.8561
 IR Inten    --     15.0268                16.9332                43.3653

                     73                     74                     75
                      A                      A                      A
 Frequencies --   1499.0026              1505.9678              1519.1204
 Red. masses --      1.4640                 1.1120                 1.1910
 Frc consts  --      1.9382                 1.4859                 1.6194
 IR Inten    --     27.6202                 1.7509                11.5758

                     76                     77                     78
                      A                      A                      A
 Frequencies --   1522.6472              1525.5642              1531.0964
 Red. masses --      1.9948                 1.1644                 1.0787
 Frc consts  --      2.7249                 1.5967                 1.4899
 IR Inten    --     49.7633                14.4028                 4.4766

                     79                     80                     81
                      A                      A                      A
 Frequencies --   1536.4086              1540.2351              1555.2526
 Red. masses --      1.1435                 1.0688                 1.0939
 Frc consts  --      1.5903                 1.4939                 1.5589
 IR Inten    --     21.1801                 7.6949                 7.5522

                     82                     83                     84
                      A                      A                      A
 Frequencies --   1633.7086              1660.1758              1697.4401
 Red. masses --      5.2983                 4.1932                 1.3070
 Frc consts  --      8.3318                 6.8094                 2.2189
 IR Inten    --     24.4041                59.6520               135.8322

                     85                     86                     87
                      A                      A                      A
 Frequencies --   1807.7944              3008.4608              3009.8681
 Red. masses --      9.1324                 1.0704                 1.0641
 Frc consts  --     17.5846                 5.7079                 5.6797
 IR Inten    --    393.8503                21.3470                55.7759

                     88                     89                     90
                      A                      A                      A
 Frequencies --   3015.9742              3034.9124              3044.5724
 Red. masses --      1.0639                 1.0641                 1.0940
 Frc consts  --      5.7019                 5.7746                 5.9745
 IR Inten    --     46.5031                62.1641                41.8880

                     91                     92                     93
                      A                      A                      A
 Frequencies --   3052.2829              3058.0236              3061.8068
 Red. masses --      1.0385                 1.0423                 1.0959
 Frc consts  --      5.7006                 5.7428                 6.0530
 IR Inten    --     18.0357                23.7555                26.7891

                     94                     95                     96
                      A                      A                      A
 Frequencies --   3072.4396              3109.5258              3116.1582
 Red. masses --      1.0992                 1.0931                 1.0983
 Frc consts  --      6.1134                 6.2272                 6.2836
 IR Inten    --     33.2058                72.0024                29.4940

                     97                     98                     99
                      A                      A                      A
 Frequencies --   3123.9223              3136.2439              3137.8608
 Red. masses --      1.1025                 1.1007                 1.1004
 Frc consts  --      6.3392                 6.3786                 6.3839
 IR Inten    --     25.3647                42.9354                31.7937

                    100                    101                    102
                      A                      A                      A
 Frequencies --   3193.6876              3211.8707              3233.8464
 Red. masses --      1.0869                 1.0921                 1.0935
 Frc consts  --      6.5314                 6.6381                 6.7378
 IR Inten    --      9.1698                14.2356                 5.2280

                    103                    104                    105
                      A                      A                      A
 Frequencies --   3611.3983              3694.7414              3730.1970
 Red. masses --      1.0480                 1.0642                 1.0994
 Frc consts  --      8.0530                 8.5590                 9.0131
 IR Inten    --     80.2567                85.9278                59.8763

 - Thermochemistry -
 -------------------
 Temperature   298.150 Kelvin.  Pressure   1.00000 Atm.
 Atom     1 has atomic number  6 and mass  12.00000

 Molecular mass:   236.15248 amu.
 Principal axes and moments of inertia in atomic units:
                           1         2         3
     Eigenvalues --  2149.580346294.403706836.88836
           X            0.99995  -0.00962  -0.00223
           Y            0.00962   0.99995   0.00277
           Z            0.00220  -0.00279   0.99999
 This molecule is an asymmetric top.
 Rotational symmetry number  1.
 Warning -- assumption of classical behavior for rotation
           may cause significant error
 Rotational temperatures (Kelvin)      0.04029     0.01376     0.01267
 Rotational constants (GHZ):           0.83958     0.28672     0.26397
 Zero-point vibrational energy     845208.3 (Joules/Mol)
                                  202.00964 (Kcal/Mol)
 Warning -- explicit consideration of  29 degrees of freedom as
           vibrations may cause significant error
 Vibrational temperatures:     35.63    68.07    78.90   112.11   140.97
          (Kelvin)            160.02   191.52   197.31   259.14   305.38
                              343.80   376.25   401.33   414.22   448.36
                              491.63   524.37   550.59   576.37   593.46
                              642.57   668.25   699.65   720.06   745.05
                              783.90   813.65   844.81   878.20   898.84
                             1001.02  1044.18  1076.85  1099.83  1141.96
                             1173.12  1183.20  1215.47  1244.81  1300.71
                             1320.31  1363.92  1390.98  1405.03  1454.00
                             1497.23  1562.88  1587.18  1595.38  1618.05
                             1632.81  1646.98  1682.65  1724.16  1743.97
                             1780.49  1789.22  1833.05  1863.34  1895.44
                             1905.47  1951.32  1982.13  1995.28  2013.77
                             2026.46  2040.32  2053.59  2063.45  2069.98
                             2091.49  2150.74  2156.73  2166.75  2185.68
                             2190.75  2194.95  2202.91  2210.55  2216.05
                             2237.66  2350.54  2388.62  2442.24  2601.01
                             4328.50  4330.53  4339.31  4366.56  4380.46
                             4391.55  4399.81  4405.26  4420.56  4473.91
                             4483.46  4494.63  4512.36  4514.68  4595.00
                             4621.17  4652.78  5196.00  5315.91  5366.92

 Zero-point correction=                           0.321923 (Hartree/Particle)
 Thermal correction to Energy=                    0.339396
 Thermal correction to Enthalpy=                  0.340340
 Thermal correction to Gibbs Free Energy=         0.276474
 Sum of electronic and zero-point Energies=           -767.138845
 Sum of electronic and thermal Energies=              -767.121372
 Sum of electronic and thermal Enthalpies=            -767.120428
 Sum of electronic and thermal Free Energies=         -767.184293

                     E (Thermal)             CV                S
                      KCal/Mol        Cal/Mol-Kelvin    Cal/Mol-Kelvin
 Total                  212.974             67.237            134.416
 Electronic               0.000              0.000              0.000
 Translational            0.889              2.981             42.279
 Rotational               0.889              2.981             32.892
 Vibrational            211.197             61.276             59.245
 Vibration     1          0.593              1.985              6.210
 Vibration     2          0.595              1.979              4.927
 Vibration     3          0.596              1.976              4.635
 Vibration     4          0.599              1.964              3.943
 Vibration     5          0.603              1.951              3.494
 Vibration     6          0.607              1.940              3.247
 Vibration     7          0.613              1.920              2.901
 Vibration     8          0.614              1.916              2.843
 Vibration     9          0.629              1.867              2.327
 Vibration    10          0.643              1.822              2.024
 Vibration    11          0.657              1.781              1.811
 Vibration    12          0.669              1.743              1.652
 Vibration    13          0.679              1.712              1.540
 Vibration    14          0.685              1.696              1.486
 Vibration    15          0.700              1.652              1.354
 Vibration    16          0.721              1.592              1.204
 Vibration    17          0.738              1.545              1.103
 Vibration    18          0.752              1.507              1.029
 Vibration    19          0.766              1.469              0.960
 Vibration    20          0.776              1.443              0.918
 Vibration    21          0.806              1.368              0.806
 Vibration    22          0.822              1.329              0.753
 Vibration    23          0.842              1.280              0.693
 Vibration    24          0.856              1.249              0.657
 Vibration    25          0.873              1.210              0.615
 Vibration    26          0.900              1.151              0.555
 Vibration    27          0.921              1.106              0.513
 Vibration    28          0.944              1.059              0.472
 Vibration    29          0.969              1.010              0.432

                           ! Non-Optimized Parameters !
 Normal termination of Gaussian 16 at Fri Dec 11 13:48:28 2020.

 ----------------------------------------------------------------------
 # B3LYP/6-311++G(d,p) empiricaldispersion=gd3bj scf=xqc pop=npa geom=c
 heck
 ----------------------------------------------------------------------

 --------------------------------------
 CID_84044229_JID_7877_Energie_neutraal
 --------------------------------------
 Structure from the checkpoint file:  "JID_7877.chk"
 Charge =  0 Multiplicity = 1

 SCF Done:  E(RB3LYP) =  -767.686973031     A.U. after   16 cycles
 Normal termination of Gaussian 16 at Fri Dec 11 13:57:27 2020.

 ----------------------------------------------------------------------
 # B3LYP/6-311++G(d,p) empiricaldispersion=gd3bj scf=xqc pop=npa geom=c
 heck
 ----------------------------------------------------------------------

 ------------------------------------
 CID_84044229_JID_7877_Energie_kation
 ------------------------------------
 Structure from the checkpoint file:  "JID_7877.chk"
 Charge =  1 Multiplicity = 2

 SCF Done:  E(UB3LYP) =  -767.424673410     A.U. after   23 cycles
 Normal termination of Gaussian 16 at Fri Dec 11 14:15:35 2020.
 Gaussian 16:  ES64L-G16RevA.03 25-Dec-2016

 ----------------------------------------------------------------------
 # B3LYP/6-311++G(d,p) empiricaldispersion=gd3bj scf=xqc pop=npa geom=c
 heck
 ----------------------------------------------------------------------

 -----------------------------------
 CID_84044229_JID_7877_Energie_anion
 -----------------------------------
 Structure from the checkpoint file:  "JID_7877.chk"
 Charge = -1 Multiplicity = 2

                         Standard orientation:
 ---------------------------------------------------------------------
 Center     Atomic      Atomic             Coordinates (Angstroms)
 Number     Number       Type             X           Y           Z
 ---------------------------------------------------------------------
      1          6           0       -0.884267   -1.710541    1.846348
      2          6           0       -1.890307   -0.603508    1.530425
      3          7           0       -2.700413   -0.875435    0.346146
      4          6           0       -3.951315   -0.138352    0.273075
      5          6           0       -3.880643    1.395621    0.159866
      6          6           0       -2.043101   -1.208191   -0.900568
      7          6           0       -1.285316   -0.101916   -1.695555
      8          6           0       -0.122377    0.546269   -0.979950
      9          6           0        1.101834   -0.156979   -0.793917
     10          6           0        2.143738    0.471111   -0.054227
     11          6           0        1.961040    1.777616    0.436756
     12          6           0        0.785875    2.470677    0.219456
     13          6           0       -0.242484    1.840830   -0.489978
     14          6           0        3.447598   -0.134312    0.281143
     15          8           0        4.346552    0.421161    0.883619
     16          8           0        3.610146   -1.435789   -0.124703
     17          7           0        1.254419   -1.394255   -1.377572
     18          1           0       -1.382763   -2.685449    1.884793
     19          1           0       -0.419585   -1.518474    2.819346
     20          1           0       -0.077926   -1.761095    1.109029
     21          1           0       -2.595123   -0.526712    2.369405
     22          1           0       -1.357807    0.358356    1.484004
     23          1           0       -4.523396   -0.537263   -0.574656
     24          1           0       -4.526667   -0.383450    1.177815
     25          1           0       -3.465239    1.718898   -0.799273
     26          1           0       -4.885631    1.825622    0.248802
     27          1           0       -3.262951    1.823114    0.956847
     28          1           0       -1.356503   -2.037909   -0.695156
     29          1           0       -2.810333   -1.614591   -1.573077
     30          1           0       -0.943340   -0.554162   -2.639559
     31          1           0       -1.999814    0.674399   -1.982896
     32          1           0        2.781176    2.217819    0.992295
     33          1           0        0.659788    3.481344    0.593643
     34          1           0       -1.177526    2.367956   -0.656822
     35          1           0        4.503961   -1.682436    0.176963
     36          1           0        2.041323   -1.956513   -1.090427
     37          1           0        0.425088   -1.894547   -1.649677
 ---------------------------------------------------------------------

 SCF Done:  E(UB3LYP) =  -767.686605521     A.U. after   33 cycles
 SCF Done:  E(UB3LYP) =  -767.686605521     a.u. after    1 cycles

 The electronic state is 2-A.
 Alpha  occ. eigenvalues --  -19.03878 -18.95882 -14.19471 -14.19191 -10.14611
 Alpha  occ. eigenvalues --  -10.09320 -10.08735 -10.08593 -10.08314 -10.05880
 Alpha  occ. eigenvalues --  -10.05323 -10.05292 -10.03689 -10.03568 -10.02871
 Alpha  occ. eigenvalues --  -10.02522 -10.02514  -0.97171  -0.87410  -0.81498
 Alpha  occ. eigenvalues --   -0.80077  -0.70768  -0.66520  -0.65821  -0.62923
 Alpha  occ. eigenvalues --   -0.60798  -0.58501  -0.53060  -0.52595  -0.52303
 Alpha  occ. eigenvalues --   -0.47070  -0.45501  -0.44415  -0.40940  -0.39387
 Alpha  occ. eigenvalues --   -0.38607  -0.36839  -0.36050  -0.35247  -0.34136
 Alpha  occ. eigenvalues --   -0.32470  -0.32009  -0.31761  -0.31101  -0.30303
 Alpha  occ. eigenvalues --   -0.29551  -0.29188  -0.28419  -0.27458  -0.26557
 Alpha  occ. eigenvalues --   -0.26247  -0.25261  -0.24782  -0.24079  -0.23496
 Alpha  occ. eigenvalues --   -0.22993  -0.21592  -0.20398  -0.20052  -0.18422
 Alpha  occ. eigenvalues --   -0.14430  -0.12390  -0.09591  -0.07917   0.04643
 Alpha virt. eigenvalues --    0.06589   0.07650   0.08060   0.08578   0.09288
 Alpha virt. eigenvalues --    0.10043   0.10423   0.10604   0.11339   0.11754
 Alpha virt. eigenvalues --    0.12534   0.12714   0.13305   0.13979   0.14146

  Beta  occ. eigenvalues --  -19.03806 -18.95666 -14.19456 -14.19191 -10.14345
  Beta  occ. eigenvalues --  -10.09308 -10.08657 -10.08576 -10.08311 -10.05873
  Beta  occ. eigenvalues --  -10.05316 -10.05289 -10.03673 -10.03507 -10.02968
  Beta  occ. eigenvalues --  -10.02286 -10.02210  -0.96904  -0.87064  -0.81488
  Beta  occ. eigenvalues --   -0.79981  -0.70500  -0.66408  -0.65800  -0.62726
  Beta  occ. eigenvalues --   -0.60541  -0.58353  -0.52959  -0.52379  -0.51930
  Beta  occ. eigenvalues --   -0.47004  -0.45332  -0.44349  -0.40737  -0.39282
  Beta  occ. eigenvalues --   -0.38581  -0.36767  -0.35923  -0.35187  -0.33880
  Beta  occ. eigenvalues --   -0.32367  -0.31975  -0.31065  -0.30740  -0.30200
  Beta  occ. eigenvalues --   -0.29442  -0.29112  -0.28315  -0.27335  -0.26461
  Beta  occ. eigenvalues --   -0.26176  -0.25225  -0.24650  -0.23846  -0.23362
  Beta  occ. eigenvalues --   -0.22911  -0.21482  -0.20270  -0.19226  -0.17666
  Beta  occ. eigenvalues --   -0.14216  -0.11332  -0.09198  -0.07487
  Beta virt. eigenvalues --    0.06768   0.07729   0.08289   0.08549   0.09156
  Beta virt. eigenvalues --    0.09787   0.10231   0.10413   0.10679   0.11414
  Beta virt. eigenvalues --    0.11770   0.12593   0.12937   0.13317   0.14039

 Mulliken charges and spin densities:
               1          2
     1  C   -0.522976  -0.124615
     2  C   -0.220190  -0.014679
     3  N    0.114211   0.046577
     4  C   -0.048190  -0.218562
     5  C   -0.188810  -0.186708
     6  C    0.225889  -0.518424
     7  C   -0.288023  -0.394236
     8  C    0.064655   0.457860
     9  C   -0.063942   0.022175
    10  C    0.441281  -0.022447
    11  C   -0.526117   0.264263
    12  C   -0.415184  -0.205705
    13  C   -0.245343   0.123435
    14  C    0.237527   0.093493
    15  O   -0.414872   0.080294
    16  O   -0.295283   0.010412
    17  N   -0.381806   0.002951
    18  H    0.087378   0.049501
    19  H    0.112483   0.010973
    20  H    0.156844   0.018041
    21  H    0.087617   0.041283
    22  H    0.184802  -0.007517
    23  H   -0.129403   0.249915
    24  H    0.050596   0.077961
    25  H    0.053407   0.065646
    26  H   -0.014256   0.142612
    27  H    0.145906   0.000041
    28  H    0.191557  -0.074932
    29  H   -0.397969   0.539116
    30  H   -0.086515   0.257408
    31  H    0.029333   0.108441
    32  H    0.178487  -0.012767
    33  H    0.112762   0.015280
    34  H    0.027390   0.041651
    35  H    0.295107  -0.000358
    36  H    0.268587   0.015189
    37  H    0.173058   0.046434
 Sum of Mulliken charges =  -1.00000   1.00000

 Dipole moment (field-independent basis, Debye):
    X=             -1.9888    Y=             -2.4190    Z=              1.7108  Tot=              3.5685
 Quadrupole moment (field-independent basis, Debye-Ang):
   XX=           -168.3668   YY=           -123.4534   ZZ=           -130.1192
   XY=            -14.1307   XZ=            -11.1375   YZ=             -0.5381

 Summary of Natural Population Analysis:

                                       Natural Population
                Natural  -----------------------------------------------
    Atom  No    Charge         Core      Valence    Rydberg      Total
 -----------------------------------------------------------------------
      C    1   -0.29111      0.99966     2.28688    0.00458     3.29111
      C    2   -0.08409      0.99962     2.07492    0.00956     3.08409
      N    3   -0.28623      0.99971     2.77204    0.01447     3.78623
      C    4   -0.07850      0.99962     2.06749    0.01138     3.07850
      C    5   -0.29684      0.99966     2.29231    0.00486     3.29684
      C    6   -0.07867      0.99960     2.06552    0.01356     3.07867
      C    7   -0.20959      0.99960     2.19930    0.01069     3.20959
      C    8   -0.05554      0.99947     2.04587    0.01020     3.05554
      C    9    0.11791      0.99945     1.87026    0.01239     2.88209
      C   10   -0.10733      0.99943     2.09669    0.01121     3.10733
      C   11   -0.02428      0.99955     2.01681    0.00792     3.02428
      C   12   -0.15160      0.99956     2.14338    0.00866     3.15160
      C   13   -0.02975      0.99952     2.02032    0.00990     3.02975
      C   14    0.42934      0.99965     1.54691    0.02409     2.57066
      O   15   -0.31258      0.99987     3.30675    0.00596     4.31258
      O   16   -0.36721      0.99987     3.36137    0.00596     4.36721
      N   17   -0.39923      0.99969     2.89070    0.00884     3.89923
      H   18    0.09286      0.00000     0.40600    0.00114     0.40714
      H   19    0.09855      0.00000     0.40072    0.00073     0.40145
      H   20    0.10511      0.00000     0.39366    0.00123     0.39489
      H   21    0.08532      0.00000     0.41354    0.00114     0.41468
      H   22    0.09392      0.00000     0.40396    0.00212     0.40608
      H   23    0.09189      0.00000     0.40689    0.00122     0.40811
      H   24    0.08525      0.00000     0.41364    0.00111     0.41475
      H   25    0.09787      0.00000     0.40086    0.00127     0.40213
      H   26    0.09289      0.00000     0.40602    0.00108     0.40711
      H   27    0.09911      0.00000     0.40001    0.00088     0.40089
      H   28    0.08730      0.00000     0.41120    0.00150     0.41270
      H   29    0.09288      0.00000     0.40556    0.00156     0.40712
      H   30    0.09729      0.00000     0.40092    0.00179     0.40271
      H   31    0.10004      0.00000     0.39851    0.00145     0.39996
      H   32    0.10402      0.00000     0.39499    0.00099     0.39598
      H   33    0.09218      0.00000     0.40649    0.00133     0.40782
      H   34    0.08858      0.00000     0.40997    0.00145     0.41142
      H   35    0.23369      0.00000     0.26152    0.00479     0.26631
      H   36    0.20238      0.00000     0.29575    0.00187     0.29762
      H   37    0.18418      0.00000     0.31412    0.00171     0.31582
 =======================================================================
   * Total *    0.00000     16.99354    46.80187    0.20459    64.00000

 Normal termination of Gaussian 16 at Fri Dec 11 14:41:34 2020.
