 Gaussian 16, Revision A.03,

 -----------------------------------------------------------
 # opt freq B3LYP/6-31G(d) empiricaldispersion=gd3bj scf=xqc
 -----------------------------------------------------------

 -------------------------------
 CID_153399836_JID_1516_neutraal
 -------------------------------
 Symbolic Z-matrix:
 Charge =  0 Multiplicity = 1

 SCF Done:  E(RB3LYP) =  -498.003295212     A.U. after   15 cycles
 SCF Done:  E(RB3LYP) =  -498.007487714     A.U. after   14 cycles
 SCF Done:  E(RB3LYP) =  -498.008239491     A.U. after   13 cycles
 SCF Done:  E(RB3LYP) =  -498.007945982     A.U. after   15 cycles
 SCF Done:  E(RB3LYP) =  -498.006682934     A.U. after   14 cycles
 SCF Done:  E(RB3LYP) =  -498.005934644     A.U. after   13 cycles
 SCF Done:  E(RB3LYP) =  -498.008361415     A.U. after    9 cycles
 SCF Done:  E(RB3LYP) =  -498.008948698     A.U. after   13 cycles
 SCF Done:  E(RB3LYP) =  -498.008918865     A.U. after   12 cycles
 SCF Done:  E(RB3LYP) =  -498.008964822     A.U. after   11 cycles
 SCF Done:  E(RB3LYP) =  -498.009007095     A.U. after   11 cycles
 SCF Done:  E(RB3LYP) =  -498.009010274     A.U. after   10 cycles
 SCF Done:  E(RB3LYP) =  -498.009012703     A.U. after   10 cycles
 SCF Done:  E(RB3LYP) =  -498.009013230     A.U. after    9 cycles
 SCF Done:  E(RB3LYP) =  -498.009013331     A.U. after    8 cycles
 Optimization completed.
    -- Stationary point found.
 Normal termination of Gaussian 16 at Tue Dec  8 20:21:54 2020.

 --------------------------------------------------------------------
 #N Geom=AllCheck Guess=TCheck SCRF=Check GenChk RB3LYP/6-31G(d) Freq
 --------------------------------------------------------------------

 Structure from the checkpoint file:  "JID_1516.chk"
 -------------------------------
 CID_153399836_JID_1516_neutraal
 -------------------------------
 Charge =  0 Multiplicity = 1

 SCF Done:  E(RB3LYP) =  -498.009013331     A.U. after    1 cycles

  Exact polarizability: 119.002  -7.663  89.764   0.003   0.001  79.681
 Approx polarizability: 168.345 -17.936 137.405   0.006  -0.004 113.745

                      1                      2                      3
                      A                      A                      A
 Frequencies --     40.8401                75.2248               127.6072
 Red. masses --      5.0309                 3.5944                 2.7270
 Frc consts  --      0.0049                 0.0120                 0.0262
 IR Inten    --      0.0092                 1.4332                 4.3920

                      4                      5                      6
                      A                      A                      A
 Frequencies --    182.0475               182.5933               220.6854
 Red. masses --      7.3308                 3.2357                 3.3419
 Frc consts  --      0.1431                 0.0636                 0.0959
 IR Inten    --      3.2390                 2.1788                 2.0489

                      7                      8                      9
                      A                      A                      A
 Frequencies --    243.0614               281.9542               306.1809
 Red. masses --      1.2243                 1.6628                 2.6979
 Frc consts  --      0.0426                 0.0779                 0.1490
 IR Inten    --      0.0187                 0.5972                 0.1450

                     10                     11                     12
                      A                      A                      A
 Frequencies --    369.6658               390.0594               445.3862
 Red. masses --      2.1889                 2.2108                 2.7359
 Frc consts  --      0.1762                 0.1982                 0.3198
 IR Inten    --      0.7163                 3.5057                26.3756

                     13                     14                     15
                      A                      A                      A
 Frequencies --    469.2876               516.1725               594.6071
 Red. masses --      2.7859                 4.2559                 2.9159
 Frc consts  --      0.3615                 0.6681                 0.6074
 IR Inten    --      0.2683                 3.2950                 5.4257

                     16                     17                     18
                      A                      A                      A
 Frequencies --    612.1080               647.1135               776.4553
 Red. masses --      3.6143                 3.4002                 3.2437
 Frc consts  --      0.7979                 0.8389                 1.1522
 IR Inten    --     10.0882                 9.5851                 0.0127

                     19                     20                     21
                      A                      A                      A
 Frequencies --    818.7656               821.0830               895.3717
 Red. masses --      1.5970                 3.0036                 1.8915
 Frc consts  --      0.6308                 1.1931                 0.8934
 IR Inten    --      0.6883                21.5692                10.9819

                     22                     23                     24
                      A                      A                      A
 Frequencies --    909.5233               950.5292              1011.7731
 Red. masses --      3.0361                 1.5320                 2.3376
 Frc consts  --      1.4798                 0.8155                 1.4099
 IR Inten    --     14.3409                29.7626                 9.8400

                     25                     26                     27
                      A                      A                      A
 Frequencies --   1045.6129              1053.5408              1063.9102
 Red. masses --      1.4773                 1.6269                 2.0910
 Frc consts  --      0.9516                 1.0639                 1.3945
 IR Inten    --      2.3523                 7.1782                 5.3447

                     28                     29                     30
                      A                      A                      A
 Frequencies --   1076.1406              1085.4482              1137.6967
 Red. masses --      1.8068                 2.1874                 1.6234
 Frc consts  --      1.2328                 1.5184                 1.2380
 IR Inten    --     12.7472                19.7970                 2.7440

                     31                     32                     33
                      A                      A                      A
 Frequencies --   1144.9729              1182.2042              1182.9400
 Red. masses --      2.0242                 1.5525                 2.6691
 Frc consts  --      1.5635                 1.2784                 2.2006
 IR Inten    --      3.6935                 2.4306                37.9281

                     34                     35                     36
                      A                      A                      A
 Frequencies --   1186.1839              1237.6106              1300.1951
 Red. masses --      1.5450                 1.0659                 1.2465
 Frc consts  --      1.2808                 0.9619                 1.2415
 IR Inten    --     26.1512                 2.5157                20.2790

                     37                     38                     39
                      A                      A                      A
 Frequencies --   1309.5742              1350.4604              1351.9742
 Red. masses --      2.3972                 1.3225                 1.3998
 Frc consts  --      2.4223                 1.4211                 1.5075
 IR Inten    --     11.5432                11.6709                 9.3472

                     40                     41                     42
                      A                      A                      A
 Frequencies --   1373.6750              1384.3473              1398.5975
 Red. masses --      1.6568                 1.3101                 1.1965
 Frc consts  --      1.8420                 1.4793                 1.3790
 IR Inten    --      2.7641                 0.0111                23.7697

                     43                     44                     45
                      A                      A                      A
 Frequencies --   1413.1672              1419.5941              1433.6542
 Red. masses --      1.3800                 1.3614                 1.5446
 Frc consts  --      1.6238                 1.6165                 1.8705
 IR Inten    --      8.5013                 5.5292                95.2307

                     46                     47                     48
                      A                      A                      A
 Frequencies --   1448.7176              1487.3682              1501.0008
 Red. masses --      1.3936                 1.2121                 1.0855
 Frc consts  --      1.7233                 1.5799                 1.4409
 IR Inten    --      1.8427                 0.8732                 3.3246

                     49                     50                     51
                      A                      A                      A
 Frequencies --   1514.2839              1516.8877              1523.5592
 Red. masses --      1.0934                 1.0586                 1.0799
 Frc consts  --      1.4772                 1.4352                 1.4769
 IR Inten    --      4.9658                19.6826                 0.0177

                     52                     53                     54
                      A                      A                      A
 Frequencies --   1539.6834              1547.4775              1686.3449
 Red. masses --      1.0527                 1.1027                 8.7079
 Frc consts  --      1.4704                 1.5558                14.5900
 IR Inten    --      3.6491                16.8604                27.5379

                     55                     56                     57
                      A                      A                      A
 Frequencies --   1816.7266              2945.8204              2979.2560
 Red. masses --     10.5514                 1.0602                 1.0872
 Frc consts  --     20.5182                 5.4206                 5.6856
 IR Inten    --    134.7049                78.4222                88.0691

                     58                     59                     60
                      A                      A                      A
 Frequencies --   3010.2903              3016.7720              3019.4744
 Red. masses --      1.0649                 1.0680                 1.0792
 Frc consts  --      5.6856                 5.7266                 5.7974
 IR Inten    --     34.5736                41.1414                11.6781

                     61                     62                     63
                      A                      A                      A
 Frequencies --   3048.4860              3052.7602              3068.0701
 Red. masses --      1.0634                 1.0679                 1.0924
 Frc consts  --      5.8228                 5.8638                 6.0585
 IR Inten    --     12.5363                35.8192                69.3343

                     64                     65                     66
                      A                      A                      A
 Frequencies --   3069.9406              3073.7405              3092.6018
 Red. masses --      1.0860                 1.0769                 1.1050
 Frc consts  --      6.0303                 5.9948                 6.2270
 IR Inten    --      2.6960                71.2679                10.5870

                     67                     68                     69
                      A                      A                      A
 Frequencies --   3094.3130              3115.3685              3403.7213
 Red. masses --      1.1050                 1.1038                 1.0743
 Frc consts  --      6.2335                 6.3120                 7.3331
 IR Inten    --     55.2169                36.3828                 2.9911

 - Thermochemistry -
 -------------------
 Temperature   298.150 Kelvin.  Pressure   1.00000 Atm.
 Atom     1 has atomic number  6 and mass  12.00000

 Molecular mass:   154.11061 amu.
 Principal axes and moments of inertia in atomic units:
                           1         2         3
     Eigenvalues --   938.052212283.759202503.08859
           X            0.99973  -0.02319   0.00001
           Y            0.02319   0.99973   0.00007
           Z           -0.00001  -0.00007   1.00000
 This molecule is an asymmetric top.
 Rotational symmetry number  1.
 Warning -- assumption of classical behavior for rotation
           may cause significant error
 Rotational temperatures (Kelvin)      0.09233     0.03793     0.03460
 Rotational constants (GHZ):           1.92392     0.79025     0.72101
 Zero-point vibrational energy     577750.0 (Joules/Mol)
                                  138.08557 (Kcal/Mol)
 Warning -- explicit consideration of  16 degrees of freedom as
           vibrations may cause significant error
 Vibrational temperatures:     58.76   108.23   183.60   261.93   262.71
          (Kelvin)            317.52   349.71   405.67   440.53   531.87
                              561.21   640.81   675.20   742.66   855.51
                              880.69   931.05  1117.15  1178.02  1181.36
                             1288.24  1308.60  1367.60  1455.72  1504.40
                             1515.81  1530.73  1548.33  1561.72  1636.89
                             1647.36  1700.93  1701.99  1706.65  1780.65
                             1870.69  1884.19  1943.01  1945.19  1976.41
                             1991.77  2012.27  2033.23  2042.48  2062.71
                             2084.38  2139.99  2159.61  2178.72  2182.46
                             2192.06  2215.26  2226.48  2426.27  2613.86
                             4238.38  4286.48  4331.14  4340.46  4344.35
                             4386.09  4392.24  4414.27  4416.96  4422.43
                             4449.56  4452.03  4482.32  4897.20

 Zero-point correction=                           0.220053 (Hartree/Particle)
 Thermal correction to Energy=                    0.230902
 Thermal correction to Enthalpy=                  0.231846
 Thermal correction to Gibbs Free Energy=         0.183350
 Sum of electronic and zero-point Energies=           -497.788960
 Sum of electronic and thermal Energies=              -497.778111
 Sum of electronic and thermal Enthalpies=            -497.777167
 Sum of electronic and thermal Free Energies=         -497.825663

                     E (Thermal)             CV                S
                      KCal/Mol        Cal/Mol-Kelvin    Cal/Mol-Kelvin
 Total                  144.893             40.842            102.069
 Electronic               0.000              0.000              0.000
 Translational            0.889              2.981             41.007
 Rotational               0.889              2.981             30.062
 Vibrational            143.116             34.880             31.000
 Vibration     1          0.594              1.981              5.218
 Vibration     2          0.599              1.966              4.012
 Vibration     3          0.611              1.926              2.982
 Vibration     4          0.630              1.864              2.307
 Vibration     5          0.630              1.863              2.302
 Vibration     6          0.647              1.810              1.953
 Vibration     7          0.659              1.774              1.780
 Vibration     8          0.681              1.707              1.522
 Vibration     9          0.697              1.662              1.383
 Vibration    10          0.742              1.535              1.081
 Vibration    11          0.758              1.491              1.000
 Vibration    12          0.805              1.371              0.810
 Vibration    13          0.826              1.318              0.740
 Vibration    14          0.871              1.214              0.619
 Vibration    15          0.952              1.043              0.459
 Vibration    16          0.971              1.006              0.429

 Optimization completed.
    -- Stationary point found.
 Normal termination of Gaussian 16 at Tue Dec  8 20:27:47 2020.

 ----------------------------------------------------------------------
 # B3LYP/6-311++G(d,p) empiricaldispersion=gd3bj scf=xqc pop=npa geom=c
 heck
 ----------------------------------------------------------------------

 ---------------------------------------
 CID_153399836_JID_1516_Energie_neutraal
 ---------------------------------------
 Structure from the checkpoint file:  "JID_1516.chk"
 Charge =  0 Multiplicity = 1

 SCF Done:  E(RB3LYP) =  -498.152479236     A.U. after   13 cycles
 Normal termination of Gaussian 16 at Tue Dec  8 20:31:35 2020.

 ----------------------------------------------------------------------
 # B3LYP/6-311++G(d,p) empiricaldispersion=gd3bj scf=xqc pop=npa geom=c
 heck
 ----------------------------------------------------------------------

 -------------------------------------
 CID_153399836_JID_1516_Energie_kation
 -------------------------------------
 Structure from the checkpoint file:  "JID_1516.chk"
 Charge =  1 Multiplicity = 2

 SCF Done:  E(UB3LYP) =  -497.857997069     A.U. after   21 cycles
 Normal termination of Gaussian 16 at Tue Dec  8 20:38:23 2020.
 Gaussian 16:  ES64L-G16RevA.03 25-Dec-2016

 ----------------------------------------------------------------------
 # B3LYP/6-311++G(d,p) empiricaldispersion=gd3bj scf=xqc pop=npa geom=c
 heck
 ----------------------------------------------------------------------

 ------------------------------------
 CID_153399836_JID_1516_Energie_anion
 ------------------------------------
 Structure from the checkpoint file:  "JID_1516.chk"
 Charge = -1 Multiplicity = 2

                         Standard orientation:
 ---------------------------------------------------------------------
 Center     Atomic      Atomic             Coordinates (Angstroms)
 Number     Number       Type             X           Y           Z
 ---------------------------------------------------------------------
      1          6           0       -3.218667    0.524408   -0.000176
      2          7           0       -2.014551   -0.290284    0.000144
      3          6           0       -1.220512   -0.058357   -1.207873
      4          6           0       -0.043352   -1.032242   -1.271320
      5          6           0        0.841984   -1.060079    0.000341
      6          6           0       -0.043279   -1.031196    1.272009
      7          6           0       -1.220395   -0.057303    1.207876
      8          6           0        1.994327   -0.066142   -0.000041
      9          7           0        3.234702   -0.392526   -0.000074
     10          6           0        1.832235    1.434249   -0.000210
     11          8           0        0.788004    2.050094   -0.000678
     12          1           0       -3.010328    1.611923   -0.000754
     13          1           0       -3.819084    0.293773   -0.887231
     14          1           0       -3.818940    0.294683    0.887209
     15          1           0       -1.866978   -0.237719   -2.075674
     16          1           0       -0.867442    0.982935   -1.269052
     17          1           0        0.568530   -0.825807   -2.157607
     18          1           0       -0.453768   -2.041827   -1.390956
     19          1           0        1.351486   -2.033029    0.000721
     20          1           0        0.568666   -0.824185    2.158119
     21          1           0       -0.453830   -2.040636    1.392423
     22          1           0       -0.867330    0.984050    1.268109
     23          1           0       -1.866770   -0.235864    2.075912
     24          1           0        3.341526   -1.414363   -0.000022
     25          1           0        2.815129    1.944958    0.000098
 ---------------------------------------------------------------------

 SCF Done:  E(UB3LYP) =  -498.167391691     A.U. after   27 cycles

 The electronic state is 2-A.
 Alpha  occ. eigenvalues --  -18.89272 -14.17917 -14.09104 -10.07534 -10.05516
 Alpha  occ. eigenvalues --  -10.05515 -10.03493 -10.03471 -10.03461 -10.02209
 Alpha  occ. eigenvalues --  -10.00827  -0.83607  -0.80181  -0.71891  -0.65833
 Alpha  occ. eigenvalues --   -0.62272  -0.57323  -0.49761  -0.49388  -0.46467
 Alpha  occ. eigenvalues --   -0.41960  -0.36520  -0.33855  -0.33804  -0.33299
 Alpha  occ. eigenvalues --   -0.30935  -0.30236  -0.28816  -0.27159  -0.26275
 Alpha  occ. eigenvalues --   -0.25047  -0.24338  -0.22225  -0.22001  -0.20726
 Alpha  occ. eigenvalues --   -0.20240  -0.18837  -0.18358  -0.13271  -0.09543
 Alpha  occ. eigenvalues --   -0.08644  -0.05161   0.06139
 Alpha virt. eigenvalues --    0.08169   0.09574   0.09993   0.11760   0.11851
 Alpha virt. eigenvalues --    0.12538   0.13236   0.13821   0.14103   0.14598
 Alpha virt. eigenvalues --    0.15565   0.16038   0.16419   0.17029   0.18245

  Beta  occ. eigenvalues --  -18.88572 -14.17917 -14.08365 -10.07534 -10.05516
  Beta  occ. eigenvalues --  -10.05515 -10.03503 -10.03458 -10.03454 -10.01839
  Beta  occ. eigenvalues --  -10.00668  -0.82347  -0.80171  -0.70878  -0.65601
  Beta  occ. eigenvalues --   -0.62262  -0.57250  -0.49736  -0.49164  -0.45152
  Beta  occ. eigenvalues --   -0.41761  -0.36492  -0.33794  -0.33608  -0.33209
  Beta  occ. eigenvalues --   -0.30480  -0.30122  -0.28625  -0.26953  -0.26226
  Beta  occ. eigenvalues --   -0.24779  -0.24271  -0.21941  -0.21519  -0.20066
  Beta  occ. eigenvalues --   -0.19154  -0.18271  -0.16922  -0.09805  -0.09479
  Beta  occ. eigenvalues --   -0.07833  -0.04543
  Beta virt. eigenvalues --    0.08155   0.09558   0.09974   0.11748   0.11834
  Beta virt. eigenvalues --    0.12527   0.13230   0.13797   0.14090   0.14572
  Beta virt. eigenvalues --    0.15018   0.15701   0.16019   0.16408   0.17043

 Mulliken charges and spin densities:
               1          2
     1  C   -0.250125  -0.001077
     2  N    0.050083  -0.000056
     3  C   -0.357047   0.000707
     4  C   -0.549307   0.050981
     5  C    0.834145  -0.122568
     6  C   -0.549018   0.050734
     7  C   -0.357089   0.000764
     8  C   -0.515308   0.154824
     9  N   -0.318675   0.385649
    10  C   -0.392393   0.308573
    11  O   -0.364465   0.216326
    12  H    0.114794   0.000080
    13  H    0.104355   0.000290
    14  H    0.104326   0.000318
    15  H    0.118923   0.001402
    16  H    0.190304  -0.001444
    17  H    0.163776  -0.007050
    18  H    0.100069   0.006998
    19  H    0.146718  -0.007107
    20  H    0.163737  -0.007040
    21  H    0.100132   0.006946
    22  H    0.190275  -0.001413
    23  H    0.118953   0.001373
    24  H    0.119868  -0.015705
    25  H    0.032969  -0.022505
 Sum of Mulliken charges =  -1.00000   1.00000

 Dipole moment (field-independent basis, Debye):
    X=             -7.3243    Y=             -3.8181    Z=              0.0012  Tot=              8.2598
 Quadrupole moment (field-independent basis, Debye-Ang):
   XX=           -107.0512   YY=            -86.2250   ZZ=            -74.0501
   XY=             -6.4250   XZ=              0.0023   YZ=              0.0049

 Summary of Natural Population Analysis:

                                       Natural Population
                Natural  -----------------------------------------------
    Atom  No    Charge         Core      Valence    Rydberg      Total
 -----------------------------------------------------------------------
      C    1   -0.17277      0.99966     2.16605    0.00706     3.17277
      N    2   -0.29087      0.99972     2.77258    0.01857     3.79087
      C    3   -0.08986      0.99961     2.08046    0.00978     3.08986
      C    4   -0.18455      0.99961     2.17714    0.00780     3.18455
      C    5   -0.12962      0.99954     2.11704    0.01303     3.12962
      C    6   -0.18455      0.99961     2.17714    0.00780     3.18455
      C    7   -0.08986      0.99961     2.08046    0.00978     3.08986
      C    8    0.09825      0.99959     1.88532    0.01684     2.90175
      N    9   -0.21288      0.99972     2.70223    0.01094     3.71288
      C   10    0.24105      0.99969     1.73633    0.02293     2.75895
      O   11   -0.25060      0.99987     3.24231    0.00841     4.25060
      H   12    0.08076      0.00000     0.41722    0.00202     0.41924
      H   13    0.08755      0.00000     0.41134    0.00111     0.41245
      H   14    0.08755      0.00000     0.41134    0.00111     0.41245
      H   15    0.08197      0.00000     0.41658    0.00145     0.41803
      H   16    0.10461      0.00000     0.39399    0.00140     0.39539
      H   17    0.10101      0.00000     0.39799    0.00100     0.39899
      H   18    0.08844      0.00000     0.41014    0.00142     0.41156
      H   19    0.08991      0.00000     0.40744    0.00266     0.41009
      H   20    0.10101      0.00000     0.39799    0.00100     0.39899
      H   21    0.08844      0.00000     0.41014    0.00142     0.41156
      H   22    0.10462      0.00000     0.39398    0.00140     0.39538
      H   23    0.08197      0.00000     0.41658    0.00145     0.41803
      H   24    0.13324      0.00000     0.36416    0.00260     0.36676
      H   25    0.03517      0.00000     0.46083    0.00400     0.46483
 =======================================================================
   * Total *   -0.00000     10.99624    30.84678    0.15698    42.00000

 Normal termination of Gaussian 16 at Tue Dec  8 20:46:58 2020.
