 Gaussian 16, Revision A.03,

 -----------------------------------------------------------
 # opt freq B3LYP/6-31G(d) empiricaldispersion=gd3bj scf=xqc
 -----------------------------------------------------------

 -----------------------------
 CID_5151488_JID_1536_neutraal
 -----------------------------
 Symbolic Z-matrix:
 Charge =  0 Multiplicity = 1

 SCF Done:  E(RB3LYP) =  -497.995112682     A.U. after   15 cycles
 SCF Done:  E(RB3LYP) =  -497.998431272     A.U. after   13 cycles
 SCF Done:  E(RB3LYP) =  -497.999857223     A.U. after   12 cycles
 SCF Done:  E(RB3LYP) =  -498.002676881     A.U. after   14 cycles
 SCF Done:  E(RB3LYP) =  -498.004358167     A.U. after   14 cycles
 SCF Done:  E(RB3LYP) =  -498.004998158     A.U. after   12 cycles
 SCF Done:  E(RB3LYP) =  -498.005061070     A.U. after   12 cycles
 SCF Done:  E(RB3LYP) =  -498.005185516     A.U. after   10 cycles
 SCF Done:  E(RB3LYP) =  -498.005200019     A.U. after   10 cycles
 SCF Done:  E(RB3LYP) =  -498.005207941     A.U. after    9 cycles
 SCF Done:  E(RB3LYP) =  -498.005208901     A.U. after    8 cycles
 SCF Done:  E(RB3LYP) =  -498.005209401     A.U. after    8 cycles
 SCF Done:  E(RB3LYP) =  -498.005209633     A.U. after    8 cycles
 SCF Done:  E(RB3LYP) =  -498.005209713     A.U. after    7 cycles
 SCF Done:  E(RB3LYP) =  -498.005209744     A.U. after    7 cycles
 Optimization completed.
    -- Stationary point found.
 Normal termination of Gaussian 16 at Tue Dec  8 20:21:47 2020.

 --------------------------------------------------------------------
 #N Geom=AllCheck Guess=TCheck SCRF=Check GenChk RB3LYP/6-31G(d) Freq
 --------------------------------------------------------------------

 Structure from the checkpoint file:  "JID_1536.chk"
 -----------------------------
 CID_5151488_JID_1536_neutraal
 -----------------------------
 Charge =  0 Multiplicity = 1

 SCF Done:  E(RB3LYP) =  -498.005209744     A.U. after    1 cycles

  Exact polarizability: 147.686  -6.657  96.324   1.671   2.242  72.314
 Approx polarizability: 189.377 -19.901 143.319   2.392   5.928 104.809

                      1                      2                      3
                      A                      A                      A
 Frequencies --     38.0500                55.6445                74.4476
 Red. masses --      3.7953                 2.8352                 3.1455
 Frc consts  --      0.0032                 0.0052                 0.0103
 IR Inten    --      1.2607                 0.0944                 0.5313

                      4                      5                      6
                      A                      A                      A
 Frequencies --    106.3473               120.5222               194.1074
 Red. masses --      4.8068                 3.2609                 1.0620
 Frc consts  --      0.0320                 0.0279                 0.0236
 IR Inten    --      0.2418                 0.8071                 0.7913

                      7                      8                      9
                      A                      A                      A
 Frequencies --    198.4851               223.8643               258.7317
 Red. masses --      1.8569                 1.4444                 3.2362
 Frc consts  --      0.0431                 0.0426                 0.1276
 IR Inten    --      0.8281                 0.2335                 2.1098

                     10                     11                     12
                      A                      A                      A
 Frequencies --    273.4778               298.4178               349.6500
 Red. masses --      2.8872                 3.1235                 3.7849
 Frc consts  --      0.1272                 0.1639                 0.2726
 IR Inten    --      1.8309                 9.5048                 4.1420

                     13                     14                     15
                      A                      A                      A
 Frequencies --    372.5776               487.5427               546.7911
 Red. masses --      3.2159                 3.1118                 1.9379
 Frc consts  --      0.2630                 0.4358                 0.3414
 IR Inten    --     12.3624                 2.1741                34.3145

                     16                     17                     18
                      A                      A                      A
 Frequencies --    563.5433               618.9860               664.0365
 Red. masses --      1.7960                 3.7911                 3.4010
 Frc consts  --      0.3361                 0.8558                 0.8836
 IR Inten    --     44.5491                 5.1237                29.1563

                     19                     20                     21
                      A                      A                      A
 Frequencies --    741.7506               778.6299               796.0111
 Red. masses --      4.5963                 1.6784                 1.5519
 Frc consts  --      1.4900                 0.5995                 0.5794
 IR Inten    --     15.2854                 8.7905                 0.6853

                     22                     23                     24
                      A                      A                      A
 Frequencies --    824.2956               827.7869               843.4568
 Red. masses --      1.5036                 1.6216                 1.8224
 Frc consts  --      0.6019                 0.6547                 0.7639
 IR Inten    --      7.9021                 3.5079                 5.9129

                     25                     26                     27
                      A                      A                      A
 Frequencies --    926.2258               954.6169               982.8851
 Red. masses --      2.4207                 3.8422                 2.0216
 Frc consts  --      1.2236                 2.0630                 1.1507
 IR Inten    --      0.9183                63.0243                 4.6843

                     28                     29                     30
                      A                      A                      A
 Frequencies --   1022.0801              1040.7933              1073.2415
 Red. masses --      1.6732                 1.3987                 1.2573
 Frc consts  --      1.0298                 0.8927                 0.8533
 IR Inten    --      2.6518                 5.0291                 5.9258

                     31                     32                     33
                      A                      A                      A
 Frequencies --   1098.0506              1100.1193              1109.2681
 Red. masses --      1.3431                 1.8125                 1.7934
 Frc consts  --      0.9541                 1.2924                 1.3001
 IR Inten    --      2.7215                 9.3323                19.1846

                     34                     35                     36
                      A                      A                      A
 Frequencies --   1129.8136              1148.4961              1178.9149
 Red. masses --      1.5361                 1.0904                 2.7270
 Frc consts  --      1.1553                 0.8474                 2.2331
 IR Inten    --      5.6815                 1.9706                40.6604

                     37                     38                     39
                      A                      A                      A
 Frequencies --   1223.4646              1231.6203              1249.4249
 Red. masses --      1.3688                 1.9008                 3.0105
 Frc consts  --      1.2072                 1.6988                 2.7689
 IR Inten    --      0.1921                47.9555               155.2728

                     40                     41                     42
                      A                      A                      A
 Frequencies --   1287.9141              1321.3231              1374.7228
 Red. masses --      1.6065                 1.5523                 1.6617
 Frc consts  --      1.5701                 1.5968                 1.8503
 IR Inten    --     68.5382                39.4992                 5.0947

                     43                     44                     45
                      A                      A                      A
 Frequencies --   1433.4681              1441.9117              1452.6994
 Red. masses --      1.3227                 1.2057                 1.7740
 Frc consts  --      1.6013                 1.4769                 2.2058
 IR Inten    --     31.5690                 1.5319               155.7464

                     46                     47                     48
                      A                      A                      A
 Frequencies --   1480.6951              1488.6441              1508.2821
 Red. masses --      1.0897                 1.8364                 1.0471
 Frc consts  --      1.4076                 2.3977                 1.4035
 IR Inten    --      1.9756               203.7315                 7.9820

                     49                     50                     51
                      A                      A                      A
 Frequencies --   1512.0420              1520.2801              1528.8494
 Red. masses --      1.1257                 1.4372                 1.0410
 Frc consts  --      1.5164                 1.9571                 1.4335
 IR Inten    --     12.0124                20.1273                 4.6221

                     52                     53                     54
                      A                      A                      A
 Frequencies --   1532.4614              1547.8596              1722.9008
 Red. masses --      1.0622                 1.1187                 8.0572
 Frc consts  --      1.4697                 1.5791                14.0914
 IR Inten    --      9.6447                 7.3870                 5.3418

                     55                     56                     57
                      A                      A                      A
 Frequencies --   1779.8659              3033.9765              3037.6068
 Red. masses --      8.0170                 1.0416                 1.0653
 Frc consts  --     14.9636                 5.6489                 5.7915
 IR Inten    --    307.5178                28.6280                20.2999

                     58                     59                     60
                      A                      A                      A
 Frequencies --   3057.7283              3080.1144              3088.6108
 Red. masses --      1.0347                 1.1000                 1.0961
 Frc consts  --      5.6996                 6.1485                 6.1607
 IR Inten    --     23.5470                19.9314                15.1827

                     61                     62                     63
                      A                      A                      A
 Frequencies --   3127.8791              3130.5196              3155.9774
 Red. masses --      1.1033                 1.1031                 1.0987
 Frc consts  --      6.3597                 6.3691                 6.4475
 IR Inten    --     26.6265                35.0773                12.0149

                     64                     65                     66
                      A                      A                      A
 Frequencies --   3157.2873              3159.5450              3238.6897
 Red. masses --      1.0501                 1.0580                 1.0938
 Frc consts  --      6.1677                 6.2228                 6.7596
 IR Inten    --     17.2042                13.8682                 0.0118

                     67                     68                     69
                      A                      A                      A
 Frequencies --   3240.9399              3255.4154              3530.4181
 Red. masses --      1.1201                 1.1132                 1.0747
 Frc consts  --      6.9316                 6.9506                 7.8921
 IR Inten    --      0.3414                 8.7442                 4.6944

 - Thermochemistry -
 -------------------
 Temperature   298.150 Kelvin.  Pressure   1.00000 Atm.
 Atom     1 has atomic number  6 and mass  12.00000

 Molecular mass:   154.11061 amu.
 Principal axes and moments of inertia in atomic units:
                           1         2         3
     Eigenvalues --   830.502643377.354443901.42186
           X            0.99991   0.01373  -0.00074
           Y           -0.01374   0.99986  -0.01006
           Z            0.00060   0.01007   0.99995
 This molecule is an asymmetric top.
 Rotational symmetry number  1.
 Warning -- assumption of classical behavior for rotation
           may cause significant error
 Rotational temperatures (Kelvin)      0.10429     0.02565     0.02220
 Rotational constants (GHZ):           2.17307     0.53437     0.46259
 Zero-point vibrational energy     567955.8 (Joules/Mol)
                                  135.74470 (Kcal/Mol)
 Warning -- explicit consideration of  17 degrees of freedom as
           vibrations may cause significant error
 Vibrational temperatures:     54.75    80.06   107.11   153.01   173.40
          (Kelvin)            279.28   285.58   322.09   372.26   393.47
                              429.36   503.07   536.06   701.47   786.71
                              810.81   890.58   955.40  1067.21  1120.27
                             1145.28  1185.98  1191.00  1213.55  1332.63
                             1373.48  1414.15  1470.55  1497.47  1544.16
                             1579.85  1582.83  1595.99  1625.55  1652.43
                             1696.20  1760.29  1772.03  1797.64  1853.02
                             1901.09  1977.92  2062.44  2074.59  2090.11
                             2130.39  2141.83  2170.08  2175.49  2187.34
                             2199.67  2204.87  2227.02  2478.87  2560.83
                             4365.22  4370.44  4399.39  4431.60  4443.82
                             4500.32  4504.12  4540.75  4542.63  4545.88
                             4659.75  4662.99  4683.82  5079.48

 Zero-point correction=                           0.216323 (Hartree/Particle)
 Thermal correction to Energy=                    0.228597
 Thermal correction to Enthalpy=                  0.229541
 Thermal correction to Gibbs Free Energy=         0.177098
 Sum of electronic and zero-point Energies=           -497.788887
 Sum of electronic and thermal Energies=              -497.776613
 Sum of electronic and thermal Enthalpies=            -497.775668
 Sum of electronic and thermal Free Energies=         -497.828112

                     E (Thermal)             CV                S
                      KCal/Mol        Cal/Mol-Kelvin    Cal/Mol-Kelvin
 Total                  143.447             44.524            110.376
 Electronic               0.000              0.000              0.000
 Translational            0.889              2.981             41.007
 Rotational               0.889              2.981             30.771
 Vibrational            141.669             38.563             38.598
 Vibration     1          0.594              1.982              5.358
 Vibration     2          0.596              1.975              4.606
 Vibration     3          0.599              1.966              4.032
 Vibration     4          0.605              1.944              3.335
 Vibration     5          0.609              1.932              3.092
 Vibration     6          0.635              1.848              2.188
 Vibration     7          0.637              1.842              2.147
 Vibration     8          0.649              1.805              1.928
 Vibration     9          0.668              1.748              1.670
 Vibration    10          0.676              1.722              1.574
 Vibration    11          0.692              1.677              1.426
 Vibration    12          0.727              1.576              1.168
 Vibration    13          0.744              1.528              1.069
 Vibration    14          0.843              1.278              0.690
 Vibration    15          0.902              1.147              0.551
 Vibration    16          0.919              1.110              0.517
 Vibration    17          0.979              0.992              0.418

 Optimization completed.
    -- Stationary point found.
 Normal termination of Gaussian 16 at Tue Dec  8 20:26:55 2020.

 ----------------------------------------------------------------------
 # B3LYP/6-311++G(d,p) empiricaldispersion=gd3bj scf=xqc pop=npa geom=c
 heck
 ----------------------------------------------------------------------

 -------------------------------------
 CID_5151488_JID_1536_Energie_neutraal
 -------------------------------------
 Structure from the checkpoint file:  "JID_1536.chk"
 Charge =  0 Multiplicity = 1

 SCF Done:  E(RB3LYP) =  -498.149383631     A.U. after   14 cycles
 Normal termination of Gaussian 16 at Tue Dec  8 20:30:01 2020.

 ----------------------------------------------------------------------
 # B3LYP/6-311++G(d,p) empiricaldispersion=gd3bj scf=xqc pop=npa geom=c
 heck
 ----------------------------------------------------------------------

 -----------------------------------
 CID_5151488_JID_1536_Energie_kation
 -----------------------------------
 Structure from the checkpoint file:  "JID_1536.chk"
 Charge =  1 Multiplicity = 2

 SCF Done:  E(UB3LYP) =  -497.837916344     A.U. after   22 cycles
 Normal termination of Gaussian 16 at Tue Dec  8 20:35:05 2020.
 Gaussian 16:  ES64L-G16RevA.03 25-Dec-2016

 ----------------------------------------------------------------------
 # B3LYP/6-311++G(d,p) empiricaldispersion=gd3bj scf=xqc pop=npa geom=c
 heck
 ----------------------------------------------------------------------

 ----------------------------------
 CID_5151488_JID_1536_Energie_anion
 ----------------------------------
 Structure from the checkpoint file:  "JID_1536.chk"
 Charge = -1 Multiplicity = 2

                         Standard orientation:
 ---------------------------------------------------------------------
 Center     Atomic      Atomic             Coordinates (Angstroms)
 Number     Number       Type             X           Y           Z
 ---------------------------------------------------------------------
      1          6           0       -3.123177   -1.371562    0.768312
      2          6           0       -2.841940   -0.534270   -0.494046
      3          6           0       -1.968891    0.667868   -0.199166
      4          7           0       -0.689011    0.646827   -0.079457
      5          7           0       -0.030003   -0.535561   -0.249651
      6          6           0        1.345039   -0.656832   -0.172612
      7          8           0        1.855257   -1.757280   -0.354057
      8          6           0        2.122319    0.572262    0.134388
      9          6           0        3.386581    0.377751    0.955402
     10          6           0        3.498458    0.671273   -0.503278
     11          6           0       -2.651481    1.988775    0.019125
     12          1           0       -2.196865   -1.750648    1.212279
     13          1           0       -3.763860   -2.227468    0.532374
     14          1           0       -3.629717   -0.767838    1.528654
     15          1           0       -2.382217   -1.164905   -1.267441
     16          1           0       -3.790127   -0.185304   -0.917069
     17          1           0       -0.517605   -1.400375   -0.468375
     18          1           0        1.552244    1.481099    0.273370
     19          1           0        3.631946    1.156504    1.671238
     20          1           0        3.592135   -0.638124    1.277027
     21          1           0        3.778940   -0.148286   -1.156990
     22          1           0        3.822981    1.657854   -0.820159
     23          1           0       -3.186902    2.306561   -0.885497
     24          1           0       -3.399579    1.913320    0.820011
     25          1           0       -1.921773    2.755403    0.288041
 ---------------------------------------------------------------------

 SCF Done:  E(UB3LYP) =  -498.137180499     A.U. after   33 cycles
 SCF Done:  E(UB3LYP) =  -498.137180499     a.u. after    1 cycles

 The electronic state is 2-A.
 Alpha  occ. eigenvalues --  -18.99041 -14.26595 -14.23409 -10.17597 -10.10677
 Alpha  occ. eigenvalues --  -10.09305 -10.09221 -10.09192 -10.07169 -10.05980
 Alpha  occ. eigenvalues --  -10.05840  -0.95046  -0.89764  -0.77627  -0.74775
 Alpha  occ. eigenvalues --   -0.66531  -0.61873  -0.57147  -0.53477  -0.51913
 Alpha  occ. eigenvalues --   -0.49050  -0.46378  -0.43213  -0.39035  -0.38293
 Alpha  occ. eigenvalues --   -0.35158  -0.34679  -0.33962  -0.32147  -0.30350
 Alpha  occ. eigenvalues --   -0.29658  -0.29301  -0.28592  -0.27398  -0.26534
 Alpha  occ. eigenvalues --   -0.24989  -0.23880  -0.22491  -0.20416  -0.17463
 Alpha  occ. eigenvalues --   -0.16860  -0.13108   0.04649
 Alpha virt. eigenvalues --    0.06472   0.07746   0.08353   0.08384   0.09170
 Alpha virt. eigenvalues --    0.09502   0.09857   0.11139   0.11527   0.11815
 Alpha virt. eigenvalues --    0.12319   0.12618   0.13350   0.13860   0.14669

  Beta  occ. eigenvalues --  -18.99013 -14.26597 -14.23334 -10.17569 -10.10626
  Beta  occ. eigenvalues --  -10.09303 -10.09214 -10.09184 -10.07136 -10.05940
  Beta  occ. eigenvalues --  -10.05778  -0.94993  -0.89687  -0.77615  -0.74696
  Beta  occ. eigenvalues --   -0.66437  -0.61786  -0.57103  -0.53334  -0.51891
  Beta  occ. eigenvalues --   -0.48970  -0.46345  -0.43197  -0.38914  -0.38265
  Beta  occ. eigenvalues --   -0.35096  -0.34555  -0.33903  -0.32039  -0.30281
  Beta  occ. eigenvalues --   -0.29616  -0.29234  -0.28568  -0.27301  -0.26450
  Beta  occ. eigenvalues --   -0.24851  -0.23794  -0.22475  -0.20363  -0.17359
  Beta  occ. eigenvalues --   -0.16831  -0.12918
  Beta virt. eigenvalues --    0.06534   0.07624   0.08250   0.08497   0.08999
  Beta virt. eigenvalues --    0.09498   0.10048   0.10532   0.11597   0.12092
  Beta virt. eigenvalues --    0.12283   0.12541   0.13084   0.13740   0.14112

 Mulliken charges and spin densities:
               1          2
     1  C    2.142012  -2.659339
     2  C   -1.426381   1.200595
     3  C   -0.726782   0.689972
     4  N    0.036669   0.034345
     5  N   -0.099578  -0.055996
     6  C   -0.126103  -0.295966
     7  O   -0.325821   0.000262
     8  C    0.144387   0.442583
     9  C   -0.239669  -0.250896
    10  C   -0.352949  -0.104670
    11  C    2.286506  -2.783006
    12  H   -0.212433   0.348476
    13  H   -0.663896   0.820644
    14  H   -0.307485   0.455209
    15  H   -0.512482   0.653571
    16  H   -0.783637   0.977956
    17  H    0.587183  -0.283370
    18  H    0.118151   0.236023
    19  H    0.000710   0.130351
    20  H    0.139037   0.025396
    21  H    0.116199   0.045601
    22  H    0.053951   0.074203
    23  H   -0.607385   0.777067
    24  H   -0.212630   0.367902
    25  H   -0.027576   0.153086
 Sum of Mulliken charges =  -1.00000   1.00000

 Dipole moment (field-independent basis, Debye):
    X=              9.9060    Y=              1.6265    Z=              1.0500  Tot=             10.0934
 Quadrupole moment (field-independent basis, Debye-Ang):
   XX=           -152.9158   YY=           -111.6505   ZZ=            -93.6544
   XY=              1.4631   XZ=             -3.5519   YZ=              1.0208

 Summary of Natural Population Analysis:

                                       Natural Population
                Natural  -----------------------------------------------
    Atom  No    Charge         Core      Valence    Rydberg      Total
 -----------------------------------------------------------------------
      C    1   -0.28147      0.99966     2.27572    0.00609     3.28147
      C    2   -0.22803      0.99961     2.21820    0.01022     3.22803
      C    3    0.13992      0.99961     1.84540    0.01506     2.86008
      N    4   -0.14837      0.99960     2.63523    0.01355     3.64837
      N    5   -0.21964      0.99965     2.70928    0.01071     3.71964
      C    6    0.34199      0.99965     1.63562    0.02273     2.65801
      O    7   -0.32960      0.99988     3.32434    0.00539     4.32960
      C    8   -0.16239      0.99955     2.15247    0.01036     3.16239
      C    9   -0.18809      0.99963     2.18161    0.00684     3.18809
      C   10   -0.18812      0.99963     2.18166    0.00683     3.18812
      C   11   -0.29950      0.99962     2.29400    0.00588     3.29950
      H   12    0.09482      0.00000     0.40376    0.00142     0.40518
      H   13    0.10505      0.00000     0.39171    0.00324     0.39495
      H   14    0.10043      0.00000     0.39812    0.00145     0.39957
      H   15    0.10075      0.00000     0.39706    0.00219     0.39925
      H   16    0.11246      0.00000     0.38313    0.00441     0.38754
      H   17    0.18759      0.00000     0.30924    0.00317     0.31241
      H   18    0.12373      0.00000     0.37463    0.00163     0.37627
      H   19    0.10035      0.00000     0.39849    0.00116     0.39965
      H   20    0.10954      0.00000     0.38918    0.00128     0.39046
      H   21    0.10936      0.00000     0.38937    0.00126     0.39064
      H   22    0.10011      0.00000     0.39881    0.00107     0.39989
      H   23    0.10804      0.00000     0.38918    0.00277     0.39196
      H   24    0.10475      0.00000     0.39398    0.00127     0.39525
      H   25    0.10632      0.00000     0.39240    0.00129     0.39368
 =======================================================================
   * Total *   -0.00000     10.99610    30.86262    0.14129    42.00000

 Normal termination of Gaussian 16 at Tue Dec  8 20:43:45 2020.
