 Gaussian 16, Revision A.03,

 -----------------------------------------------------------
 # opt freq B3LYP/6-31G(d) empiricaldispersion=gd3bj scf=xqc
 -----------------------------------------------------------

 ------------------------------
 CID_84749654_JID_5141_neutraal
 ------------------------------
 Symbolic Z-matrix:
 Charge =  0 Multiplicity = 1

 SCF Done:  E(RB3LYP) =  -1406.53996935     A.U. after   15 cycles
 SCF Done:  E(RB3LYP) =  -1406.54651322     A.U. after   13 cycles
 SCF Done:  E(RB3LYP) =  -1406.54715437     A.U. after   14 cycles
 SCF Done:  E(RB3LYP) =  -1406.54786984     A.U. after   13 cycles
 SCF Done:  E(RB3LYP) =  -1406.54819872     A.U. after   12 cycles
 SCF Done:  E(RB3LYP) =  -1406.54860662     A.U. after   12 cycles
 SCF Done:  E(RB3LYP) =  -1406.54873086     A.U. after   13 cycles
 SCF Done:  E(RB3LYP) =  -1406.54901362     A.U. after   13 cycles
 SCF Done:  E(RB3LYP) =  -1406.54945628     A.U. after   16 cycles
 SCF Done:  E(RB3LYP) =  -1406.54980023     A.U. after   12 cycles
 SCF Done:  E(RB3LYP) =  -1406.55053369     A.U. after    9 cycles
 SCF Done:  E(RB3LYP) =  -1406.55053408     A.U. after    8 cycles
 SCF Done:  E(RB3LYP) =  -1406.55053424     A.U. after    8 cycles
 SCF Done:  E(RB3LYP) =  -1406.55053432     A.U. after    8 cycles
 SCF Done:  E(RB3LYP) =  -1406.55053436     A.U. after    8 cycles
 Optimization completed.
    -- Stationary point found.
 Normal termination of Gaussian 16 at Thu Dec 10 14:53:14 2020.

 --------------------------------------------------------------------
 #N Geom=AllCheck Guess=TCheck SCRF=Check GenChk RB3LYP/6-31G(d) Freq
 --------------------------------------------------------------------

 Structure from the checkpoint file:  "JID_5141.chk"
 ------------------------------
 CID_84749654_JID_5141_neutraal
 ------------------------------
 Charge =  0 Multiplicity = 1

 SCF Done:  E(RB3LYP) =  -1406.55053436     A.U. after    1 cycles

  Exact polarizability: 174.046 -21.998 131.540  -8.791  -6.720 113.645
 Approx polarizability: 267.591 -51.233 205.082 -22.960 -21.138 207.487

                      1                      2                      3
                      A                      A                      A
 Frequencies --     23.9432                45.6702                57.8774
 Red. masses --      6.9196                 8.4706                 7.1483
 Frc consts  --      0.0023                 0.0104                 0.0141
 IR Inten    --      1.9977                 2.6507                 1.1675

                      4                      5                      6
                      A                      A                      A
 Frequencies --     62.6373                87.1340               117.9920
 Red. masses --      5.3113                 6.5762                 6.1075
 Frc consts  --      0.0123                 0.0294                 0.0501
 IR Inten    --      0.6495                 0.6195                 1.5092

                      7                      8                      9
                      A                      A                      A
 Frequencies --    144.6456               157.9862               190.7456
 Red. masses --      6.8026                 5.3432                 3.1336
 Frc consts  --      0.0839                 0.0786                 0.0672
 IR Inten    --      2.3268                 0.7863                 1.3791

                     10                     11                     12
                      A                      A                      A
 Frequencies --    260.1032               274.7769               295.9064
 Red. masses --      1.1678                 6.7028                 3.4193
 Frc consts  --      0.0466                 0.2982                 0.1764
 IR Inten    --      0.5351                 1.7748                 1.0302

                     13                     14                     15
                      A                      A                      A
 Frequencies --    322.2854               332.2424               382.8040
 Red. masses --      4.7271                 4.2813                 1.5746
 Frc consts  --      0.2893                 0.2784                 0.1359
 IR Inten    --      1.0358                 0.6936                97.0816

                     16                     17                     18
                      A                      A                      A
 Frequencies --    393.7050               435.7739               467.2147
 Red. masses --      1.9311                 4.7774                 3.0593
 Frc consts  --      0.1764                 0.5345                 0.3935
 IR Inten    --     78.0987                 7.8186                 1.3761

                     19                     20                     21
                      A                      A                      A
 Frequencies --    481.2153               493.3968               529.6007
 Red. masses --      3.6982                 3.0244                 3.2197
 Frc consts  --      0.5046                 0.4338                 0.5321
 IR Inten    --      5.2334                 0.8356                30.7486

                     22                     23                     24
                      A                      A                      A
 Frequencies --    581.0486               622.0012               627.9115
 Red. masses --      3.8859                 4.7294                 1.6282
 Frc consts  --      0.7730                 1.0781                 0.3782
 IR Inten    --      7.2416                39.8878                80.8192

                     25                     26                     27
                      A                      A                      A
 Frequencies --    649.1653               668.6320               699.4641
 Red. masses --      1.1631                 2.6473                 1.3996
 Frc consts  --      0.2888                 0.6973                 0.4034
 IR Inten    --      9.8833                41.9926                 0.8505

                     28                     29                     30
                      A                      A                      A
 Frequencies --    731.5739               747.2994               796.0599
 Red. masses --      4.5833                 3.2694                 1.4971
 Frc consts  --      1.4453                 1.0758                 0.5590
 IR Inten    --     65.8476                16.0693                39.3979

                     31                     32                     33
                      A                      A                      A
 Frequencies --    834.0406               847.4860               863.5447
 Red. masses --      4.9125                 4.7907                 4.9353
 Frc consts  --      2.0134                 2.0273                 2.1684
 IR Inten    --     14.2920                32.8657                 8.7683

                     34                     35                     36
                      A                      A                      A
 Frequencies --    886.3291               894.0712               902.2555
 Red. masses --      3.4540                 1.5024                 2.9641
 Frc consts  --      1.5987                 0.7076                 1.4217
 IR Inten    --      6.9676                 2.2050                 1.3248

                     37                     38                     39
                      A                      A                      A
 Frequencies --    953.9867               986.9446              1008.3967
 Red. masses --      2.8922                 2.5195                 2.3260
 Frc consts  --      1.5508                 1.4459                 1.3936
 IR Inten    --      2.5559                 1.8808                 4.0340

                     40                     41                     42
                      A                      A                      A
 Frequencies --   1092.6388              1125.8455              1154.2090
 Red. masses --      2.0824                 1.1188                 1.8922
 Frc consts  --      1.4647                 0.8355                 1.4852
 IR Inten    --     66.9890                 5.3660               107.8578

                     43                     44                     45
                      A                      A                      A
 Frequencies --   1171.0055              1178.8118              1219.6176
 Red. masses --      1.4313                 1.8357                 1.7006
 Frc consts  --      1.1564                 1.5029                 1.4904
 IR Inten    --     37.9658                 6.7420                39.5632

                     46                     47                     48
                      A                      A                      A
 Frequencies --   1232.5622              1256.9242              1295.3797
 Red. masses --      1.8164                 1.5976                 1.6522
 Frc consts  --      1.6258                 1.4871                 1.6334
 IR Inten    --      6.5243                28.6855                92.1933

                     49                     50                     51
                      A                      A                      A
 Frequencies --   1321.8861              1356.5160              1374.1412
 Red. masses --      2.0205                 2.0255                 1.4323
 Frc consts  --      2.0801                 2.1960                 1.5935
 IR Inten    --      5.8567                17.6310                21.9290

                     52                     53                     54
                      A                      A                      A
 Frequencies --   1389.3336              1406.7638              1416.1653
 Red. masses --      1.7183                 3.3642                 2.1785
 Frc consts  --      1.9542                 3.9226                 2.5742
 IR Inten    --     10.5612               196.9012                13.9565

                     55                     56                     57
                      A                      A                      A
 Frequencies --   1429.8524              1464.6161              1479.3275
 Red. masses --      1.9932                 4.9711                 1.1207
 Frc consts  --      2.4010                 6.2828                 1.4450
 IR Inten    --      4.7030                 9.8002                 5.1710

                     58                     59                     60
                      A                      A                      A
 Frequencies --   1491.9145              1515.1253              1543.4896
 Red. masses --      1.1388                 1.0523                 1.0594
 Frc consts  --      1.4934                 1.4232                 1.4870
 IR Inten    --      3.1213                 7.2084                 5.9443

                     61                     62                     63
                      A                      A                      A
 Frequencies --   1580.8248              1648.9086              1835.5127
 Red. masses --      5.1160                 1.3138                 9.5015
 Frc consts  --      7.5327                 2.1047                18.8608
 IR Inten    --      3.2947               161.1551               218.1363

                     64                     65                     66
                      A                      A                      A
 Frequencies --   3022.6300              3043.5270              3062.1195
 Red. masses --      1.0451                 1.0823                 1.0607
 Frc consts  --      5.6259                 5.9069                 5.8601
 IR Inten    --     41.1213                 6.9627                21.8943

                     67                     68                     69
                      A                      A                      A
 Frequencies --   3098.9357              3120.3994              3135.3419
 Red. masses --      1.0894                 1.1043                 1.1031
 Frc consts  --      6.1638                 6.3354                 6.3891
 IR Inten    --     30.0007                10.6430                19.2543

                     70                     71                     72
                      A                      A                      A
 Frequencies --   3235.3729              3273.1085              3274.8441
 Red. masses --      1.0909                 1.0929                 1.0980
 Frc consts  --      6.7277                 6.8984                 6.9378
 IR Inten    --      0.1516                 0.7800                 0.7963

                     73                     74                     75
                      A                      A                      A
 Frequencies --   3558.9005              3677.6364              3689.4940
 Red. masses --      1.0449                 1.0640                 1.1044
 Frc consts  --      7.7972                 8.4786                 8.8575
 IR Inten    --     56.2339                34.0441                68.0916

 - Thermochemistry -
 -------------------
 Temperature   298.150 Kelvin.  Pressure   1.00000 Atm.
 Atom     1 has atomic number  6 and mass  12.00000

 Molecular mass:   244.03402 amu.
 Principal axes and moments of inertia in atomic units:
                           1         2         3
     Eigenvalues --  3018.790954262.904126040.06724
           X            0.99992   0.00971  -0.00765
           Y           -0.00956   0.99977   0.01900
           Z            0.00784  -0.01892   0.99979
 This molecule is an asymmetric top.
 Rotational symmetry number  1.
 Warning -- assumption of classical behavior for rotation
           may cause significant error
 Rotational temperatures (Kelvin)      0.02869     0.02032     0.01434
 Rotational constants (GHZ):           0.59784     0.42336     0.29879
 Zero-point vibrational energy     550470.9 (Joules/Mol)
                                  131.56570 (Kcal/Mol)
 Warning -- explicit consideration of  22 degrees of freedom as
           vibrations may cause significant error
 Vibrational temperatures:     34.45    65.71    83.27    90.12   125.37
          (Kelvin)            169.76   208.11   227.31   274.44   374.23
                              395.34   425.74   463.70   478.02   550.77
                              566.45   626.98   672.22   692.36   709.89
                              761.98   836.00   894.92   903.42   934.00
                              962.01  1006.37  1052.57  1075.20  1145.35
                             1200.00  1219.34  1242.45  1275.23  1286.37
                             1298.14  1372.57  1419.99  1450.86  1572.06
                             1619.84  1660.65  1684.82  1696.05  1754.76
                             1773.38  1808.43  1863.76  1901.90  1951.72
                             1977.08  1998.94  2024.02  2037.55  2057.24
                             2107.26  2128.42  2146.53  2179.93  2220.74
                             2274.45  2372.41  2640.89  4348.89  4378.96
                             4405.71  4458.68  4489.56  4511.06  4654.98
                             4709.27  4711.77  5120.46  5291.30  5308.36

 Zero-point correction=                           0.209663 (Hartree/Particle)
 Thermal correction to Energy=                    0.224981
 Thermal correction to Enthalpy=                  0.225925
 Thermal correction to Gibbs Free Energy=         0.165411
 Sum of electronic and zero-point Energies=          -1406.340871
 Sum of electronic and thermal Energies=             -1406.325554
 Sum of electronic and thermal Enthalpies=           -1406.324609
 Sum of electronic and thermal Free Energies=        -1406.385123

                     E (Thermal)             CV                S
                      KCal/Mol        Cal/Mol-Kelvin    Cal/Mol-Kelvin
 Total                  141.178             56.752            127.362
 Electronic               0.000              0.000              0.000
 Translational            0.889              2.981             42.377
 Rotational               0.889              2.981             32.719
 Vibrational            139.400             50.790             52.266
 Vibration     1          0.593              1.985              6.277
 Vibration     2          0.595              1.979              4.997
 Vibration     3          0.596              1.974              4.528
 Vibration     4          0.597              1.972              4.372
 Vibration     5          0.601              1.958              3.723
 Vibration     6          0.608              1.934              3.133
 Vibration     7          0.616              1.908              2.741
 Vibration     8          0.621              1.894              2.574
 Vibration     9          0.634              1.853              2.221
 Vibration    10          0.668              1.746              1.661
 Vibration    11          0.677              1.720              1.566
 Vibration    12          0.690              1.681              1.440
 Vibration    13          0.707              1.631              1.298
 Vibration    14          0.714              1.611              1.249
 Vibration    15          0.752              1.507              1.028
 Vibration    16          0.761              1.484              0.986
 Vibration    17          0.796              1.392              0.840
 Vibration    18          0.824              1.323              0.745
 Vibration    19          0.838              1.292              0.707
 Vibration    20          0.849              1.265              0.675
 Vibration    21          0.885              1.185              0.588
 Vibration    22          0.938              1.072              0.483

                           ! Non-Optimized Parameters !
 Normal termination of Gaussian 16 at Thu Dec 10 15:02:16 2020.

 ----------------------------------------------------------------------
 # B3LYP/6-311++G(d,p) empiricaldispersion=gd3bj scf=xqc pop=npa geom=c
 heck
 ----------------------------------------------------------------------

 --------------------------------------
 CID_84749654_JID_5141_Energie_neutraal
 --------------------------------------
 Structure from the checkpoint file:  "JID_5141.chk"
 Charge =  0 Multiplicity = 1

 SCF Done:  E(RB3LYP) =  -1406.79006208     A.U. after   16 cycles
 Normal termination of Gaussian 16 at Thu Dec 10 15:05:55 2020.

 ----------------------------------------------------------------------
 # B3LYP/6-311++G(d,p) empiricaldispersion=gd3bj scf=xqc pop=npa geom=c
 heck
 ----------------------------------------------------------------------

 ------------------------------------
 CID_84749654_JID_5141_Energie_kation
 ------------------------------------
 Structure from the checkpoint file:  "JID_5141.chk"
 Charge =  1 Multiplicity = 2

 SCF Done:  E(UB3LYP) =  -1406.51432496     A.U. after   26 cycles
 Normal termination of Gaussian 16 at Thu Dec 10 15:14:26 2020.
 Gaussian 16:  ES64L-G16RevA.03 25-Dec-2016

 ----------------------------------------------------------------------
 # B3LYP/6-311++G(d,p) empiricaldispersion=gd3bj scf=xqc pop=npa geom=c
 heck
 ----------------------------------------------------------------------

 -----------------------------------
 CID_84749654_JID_5141_Energie_anion
 -----------------------------------
 Structure from the checkpoint file:  "JID_5141.chk"
 Charge = -1 Multiplicity = 2

                         Standard orientation:
 ---------------------------------------------------------------------
 Center     Atomic      Atomic             Coordinates (Angstroms)
 Number     Number       Type             X           Y           Z
 ---------------------------------------------------------------------
      1          6           0       -0.888007    1.023405    1.807664
      2          7           0       -0.958563    1.243569    0.373404
      3          6           0       -0.296491    2.426306   -0.134548
      4          6           0        1.224708    2.347860   -0.278529
      5          8           0        1.834066    2.493983   -1.316020
      6          8           0        1.838459    2.062005    0.894751
      7          6           0       -0.867146    0.066303   -0.474146
      8          6           0        0.415358   -0.740078   -0.293971
      9          6           0        0.696431   -1.552078    0.780003
     10         16           0        2.299709   -2.205053    0.707515
     11          6           0        2.607426   -1.390198   -0.794121
     12          6           0        1.525795   -0.661495   -1.200787
     13          6           0       -2.159391   -0.786870   -0.407688
     14         16           0       -3.652979   -0.158373   -0.054977
     15          7           0       -1.981768   -2.070211   -0.765372
     16          1           0       -1.168133    1.951307    2.315846
     17          1           0        0.105889    0.718627    2.165592
     18          1           0       -1.623584    0.262039    2.081937
     19          1           0       -0.685066    2.665934   -1.128856
     20          1           0       -0.534739    3.261345    0.534832
     21          1           0        2.785647    1.952995    0.685562
     22          1           0       -0.861960    0.438822   -1.507212
     23          1           0        0.049733   -1.801076    1.609695
     24          1           0        3.562785   -1.502387   -1.288094
     25          1           0        1.515579   -0.060778   -2.102565
     26          1           0       -1.055768   -2.454810   -0.900516
     27          1           0       -2.788054   -2.677528   -0.816167
 ---------------------------------------------------------------------

 SCF Done:  E(UB3LYP) =  -1406.78661537     A.U. after   33 cycles
 SCF Done:  E(UB3LYP) =  -1406.78661537     a.u. after    1 cycles

 The electronic state is 2-A.
 Alpha  occ. eigenvalues --  -88.76707 -88.65529 -19.07203 -19.01816 -14.21712
 Alpha  occ. eigenvalues --  -14.20586 -10.20457 -10.11053 -10.10633 -10.10613
 Alpha  occ. eigenvalues --  -10.08493 -10.08444 -10.07643 -10.07142 -10.06458
 Alpha  occ. eigenvalues --   -7.85334  -7.74295  -5.81614  -5.81252  -5.80962
 Alpha  occ. eigenvalues --   -5.70638  -5.70204  -5.69841  -1.01204  -0.92290
 Alpha  occ. eigenvalues --   -0.83576  -0.81237  -0.77074  -0.66571  -0.63608
 Alpha  occ. eigenvalues --   -0.61898  -0.61395  -0.57930  -0.53470  -0.49900
 Alpha  occ. eigenvalues --   -0.46651  -0.45239  -0.43702  -0.42192  -0.40718
 Alpha  occ. eigenvalues --   -0.39453  -0.39059  -0.38263  -0.34981  -0.33717
 Alpha  occ. eigenvalues --   -0.32549  -0.30616  -0.30195  -0.29426  -0.29019
 Alpha  occ. eigenvalues --   -0.28134  -0.27223  -0.26952  -0.26349  -0.24375
 Alpha  occ. eigenvalues --   -0.22962  -0.22511  -0.22383  -0.19164  -0.14933
 Alpha  occ. eigenvalues --   -0.13483  -0.10960  -0.10392  -0.07583   0.04619
 Alpha virt. eigenvalues --    0.06662   0.07364   0.07904   0.08378   0.09165
 Alpha virt. eigenvalues --    0.09556   0.09731   0.10410   0.11112   0.11740
 Alpha virt. eigenvalues --    0.12109   0.13228   0.13272   0.13540   0.14381

  Beta  occ. eigenvalues --  -88.76685 -88.65509 -19.07176 -19.01807 -14.21664
  Beta  occ. eigenvalues --  -14.20588 -10.20456 -10.11042 -10.10653 -10.10111
  Beta  occ. eigenvalues --  -10.08383 -10.08348 -10.07637 -10.07122 -10.06447
  Beta  occ. eigenvalues --   -7.85313  -7.74277  -5.81604  -5.81242  -5.80888
  Beta  occ. eigenvalues --   -5.70645  -5.70122  -5.69831  -1.01170  -0.92262
  Beta  occ. eigenvalues --   -0.83447  -0.81000  -0.76955  -0.66434  -0.63560
  Beta  occ. eigenvalues --   -0.61738  -0.61022  -0.57771  -0.53384  -0.49779
  Beta  occ. eigenvalues --   -0.46419  -0.45001  -0.43610  -0.42083  -0.40642
  Beta  occ. eigenvalues --   -0.39363  -0.39023  -0.38195  -0.34850  -0.33615
  Beta  occ. eigenvalues --   -0.32489  -0.30523  -0.30111  -0.29274  -0.28846
  Beta  occ. eigenvalues --   -0.28034  -0.27010  -0.26706  -0.26145  -0.24030
  Beta  occ. eigenvalues --   -0.22854  -0.22091  -0.21833  -0.19139  -0.14655
  Beta  occ. eigenvalues --   -0.12936  -0.10899  -0.09662  -0.07512
  Beta virt. eigenvalues --    0.07131   0.07895   0.08295   0.08490   0.09034
  Beta virt. eigenvalues --    0.09602   0.09795   0.10085   0.10935   0.11074
  Beta virt. eigenvalues --    0.11755   0.12299   0.13228   0.13283   0.13660

 Mulliken charges and spin densities:
               1          2
     1  C   -0.345753  -0.105896
     2  N    0.431557  -0.041067
     3  C   -0.338623   0.002165
     4  C    0.398215  -0.457254
     5  O   -0.248719   0.040230
     6  O   -0.085389   0.011376
     7  C    0.628234  -0.940864
     8  C    0.303785  -0.423031
     9  C   -0.945199   1.063003
    10  S    0.229914  -0.540388
    11  C    0.321760  -0.545286
    12  C   -0.425440   0.287838
    13  C   -0.163323   0.274125
    14  S   -0.852997   0.106980
    15  N   -0.243668   0.047214
    16  H    0.091384   0.008479
    17  H    0.123594   0.039617
    18  H    0.144883  -0.007697
    19  H    0.138715   0.063114
    20  H    0.104555   0.058120
    21  H   -0.036066   0.312117
    22  H   -0.291520   0.537114
    23  H    0.267892  -0.009761
    24  H   -0.604695   0.851378
    25  H   -0.032942   0.244240
    26  H    0.174095   0.105457
    27  H    0.255752   0.018677
 Sum of Mulliken charges =  -1.00000   1.00000

 Dipole moment (field-independent basis, Debye):
    X=              1.8471    Y=             -0.5044    Z=              3.1652  Tot=              3.6993
 Quadrupole moment (field-independent basis, Debye-Ang):
   XX=           -174.2369   YY=           -123.5023   ZZ=           -125.5396
   XY=              1.1829   XZ=              2.9247   YZ=              1.9667

 Summary of Natural Population Analysis:

                                       Natural Population
                Natural  -----------------------------------------------
    Atom  No    Charge         Core      Valence    Rydberg      Total
 -----------------------------------------------------------------------
      C    1   -0.17920      0.99964     2.17274    0.00682     3.17920
      N    2   -0.26187      0.99971     2.74951    0.01264     3.76187
      C    3   -0.12325      0.99956     2.11341    0.01028     3.12325
      C    4    0.39461      0.99974     1.57936    0.02629     2.60539
      O    5   -0.30653      0.99987     3.30019    0.00647     4.30653
      O    6   -0.34585      0.99987     3.33908    0.00690     4.34585
      C    7   -0.04034      0.99947     2.02392    0.01696     3.04034
      C    8   -0.06545      0.99947     2.05094    0.01504     3.06545
      C    9   -0.18260      0.99944     2.17164    0.01151     3.18260
      S   10    0.19994      4.99944     2.77842    0.02219     7.80006
      C   11   -0.17921      0.99953     2.16741    0.01227     3.17921
      C   12   -0.12690      0.99948     2.11532    0.01210     3.12690
      C   13    0.13835      0.99964     1.84146    0.02055     2.86165
      S   14   -0.12854      4.99952     3.11484    0.01418     8.12854
      N   15   -0.38021      0.99966     2.87006    0.01049     3.88021
      H   16    0.09146      0.00000     0.40773    0.00081     0.40854
      H   17    0.08999      0.00000     0.40829    0.00173     0.41001
      H   18    0.10366      0.00000     0.39544    0.00090     0.39634
      H   19    0.10705      0.00000     0.39204    0.00091     0.39295
      H   20    0.10432      0.00000     0.39472    0.00097     0.39568
      H   21    0.24204      0.00000     0.25299    0.00498     0.25796
      H   22    0.12010      0.00000     0.37761    0.00229     0.37990
      H   23    0.11136      0.00000     0.38776    0.00088     0.38864
      H   24    0.10904      0.00000     0.38938    0.00158     0.39096
      H   25    0.11423      0.00000     0.38408    0.00169     0.38577
      H   26    0.19893      0.00000     0.29931    0.00175     0.30107
      H   27    0.19487      0.00000     0.30361    0.00152     0.30513
 =======================================================================
   * Total *   -0.00000     22.99404    40.78126    0.22470    64.00000

 Normal termination of Gaussian 16 at Thu Dec 10 15:24:40 2020.
