 Gaussian 16, Revision A.03,

 -----------------------------------------------------------
 # opt freq B3LYP/6-31G(d) empiricaldispersion=gd3bj scf=xqc
 -----------------------------------------------------------

 -------------------------------
 CID_104150071_JID_9400_neutraal
 -------------------------------
 Symbolic Z-matrix:
 Charge =  0 Multiplicity = 1

 SCF Done:  E(RB3LYP) =  -876.913286947     A.U. after   15 cycles
 SCF Done:  E(RB3LYP) =  -876.920961256     A.U. after   12 cycles
 SCF Done:  E(RB3LYP) =  -876.922529046     A.U. after   12 cycles
 SCF Done:  E(RB3LYP) =  -876.923162946     A.U. after   12 cycles
 SCF Done:  E(RB3LYP) =  -876.923503777     A.U. after   11 cycles
 SCF Done:  E(RB3LYP) =  -876.923607756     A.U. after   11 cycles
 SCF Done:  E(RB3LYP) =  -876.923676131     A.U. after   11 cycles
 SCF Done:  E(RB3LYP) =  -876.923711181     A.U. after   10 cycles
 SCF Done:  E(RB3LYP) =  -876.923744727     A.U. after   10 cycles
 SCF Done:  E(RB3LYP) =  -876.923764664     A.U. after   10 cycles
 SCF Done:  E(RB3LYP) =  -876.928468397     A.U. after   10 cycles
 SCF Done:  E(RB3LYP) =  -876.928472557     A.U. after    9 cycles
 SCF Done:  E(RB3LYP) =  -876.928476402     A.U. after    9 cycles
 SCF Done:  E(RB3LYP) =  -876.928476861     A.U. after    8 cycles
 SCF Done:  E(RB3LYP) =  -876.928476945     A.U. after    7 cycles
 Optimization completed.
    -- Stationary point found.
 Normal termination of Gaussian 16 at Sat Dec 12 09:55:37 2020.

 --------------------------------------------------------------------
 #N Geom=AllCheck Guess=TCheck SCRF=Check GenChk RB3LYP/6-31G(d) Freq
 --------------------------------------------------------------------

 Structure from the checkpoint file:  "JID_9400.chk"
 -------------------------------
 CID_104150071_JID_9400_neutraal
 -------------------------------
 Charge =  0 Multiplicity = 1

 SCF Done:  E(RB3LYP) =  -876.928476945     A.U. after    1 cycles

  Exact polarizability: 213.446  -1.142 167.553  14.158  -1.617 124.705
 Approx polarizability: 275.181  -6.745 274.709  28.458  -6.824 193.532

                      1                      2                      3
                      A                      A                      A
 Frequencies --     20.3502                32.6581                35.9140
 Red. masses --      4.9704                 3.9204                 2.9071
 Frc consts  --      0.0012                 0.0025                 0.0022
 IR Inten    --      1.1899                 0.2762                 0.0718

                      4                      5                      6
                      A                      A                      A
 Frequencies --     60.2252                74.3427               119.0406
 Red. masses --      3.8540                 6.3265                 3.6569
 Frc consts  --      0.0082                 0.0206                 0.0305
 IR Inten    --      1.0496                 0.2465                 0.9961

                      7                      8                      9
                      A                      A                      A
 Frequencies --    125.9516               147.3560               165.2112
 Red. masses --      3.0336                 5.1076                 1.6529
 Frc consts  --      0.0284                 0.0653                 0.0266
 IR Inten    --      0.7356                 1.1199                 7.7457

                     10                     11                     12
                      A                      A                      A
 Frequencies --    171.9274               190.6643               196.7008
 Red. masses --      3.1320                 1.7953                 2.0131
 Frc consts  --      0.0545                 0.0385                 0.0459
 IR Inten    --      3.7192                12.0720                 0.8094

                     13                     14                     15
                      A                      A                      A
 Frequencies --    238.0664               250.4859               266.9182
 Red. masses --      2.8368                 1.5588                 3.5660
 Frc consts  --      0.0947                 0.0576                 0.1497
 IR Inten    --      7.8269                 6.4706                 7.2255

                     16                     17                     18
                      A                      A                      A
 Frequencies --    296.4922               314.2418               319.0917
 Red. masses --      3.2446                 3.5700                 2.7679
 Frc consts  --      0.1681                 0.2077                 0.1660
 IR Inten    --      1.8728                 5.5440                 1.3913

                     19                     20                     21
                      A                      A                      A
 Frequencies --    369.5963               376.5891               402.4958
 Red. masses --      5.5699                 2.9613                 3.2961
 Frc consts  --      0.4483                 0.2474                 0.3146
 IR Inten    --      7.1551                 1.2962                15.7778

                     22                     23                     24
                      A                      A                      A
 Frequencies --    419.2745               456.5433               479.6460
 Red. masses --      2.5927                 2.9583                 4.2596
 Frc consts  --      0.2685                 0.3633                 0.5774
 IR Inten    --     26.5381                 7.9695                 1.7190

                     25                     26                     27
                      A                      A                      A
 Frequencies --    518.0449               536.7871               560.8026
 Red. masses --      1.6230                 1.9804                 3.3707
 Frc consts  --      0.2566                 0.3362                 0.6246
 IR Inten    --    216.7222                 4.0100                 1.3309

                     28                     29                     30
                      A                      A                      A
 Frequencies --    585.6889               654.9390               675.1192
 Red. masses --      4.3345                 3.8714                 3.4715
 Frc consts  --      0.8760                 0.9784                 0.9322
 IR Inten    --     17.0430                 8.1954                20.5131

                     31                     32                     33
                      A                      A                      A
 Frequencies --    682.2749               724.7659               766.6868
 Red. masses --      4.2134                 3.0347                 2.6998
 Frc consts  --      1.1556                 0.9392                 0.9350
 IR Inten    --      0.5256                37.0496                 1.8185

                     34                     35                     36
                      A                      A                      A
 Frequencies --    781.4004               790.8510               807.8115
 Red. masses --      5.3979                 2.9497                 1.3621
 Frc consts  --      1.9419                 1.0870                 0.5237
 IR Inten    --      8.5692                13.4441                 1.5956

                     37                     38                     39
                      A                      A                      A
 Frequencies --    813.8401               867.0195               869.9542
 Red. masses --      2.0258                 1.9737                 1.4947
 Frc consts  --      0.7906                 0.8742                 0.6665
 IR Inten    --     36.8927                20.2763                 0.6842

                     40                     41                     42
                      A                      A                      A
 Frequencies --    874.4706               884.0594               922.8866
 Red. masses --      2.0480                 1.9403                 2.4919
 Frc consts  --      0.9227                 0.8935                 1.2505
 IR Inten    --     21.4979                 5.8254                 5.0987

                     43                     44                     45
                      A                      A                      A
 Frequencies --    946.7233               950.3110               957.9421
 Red. masses --      2.0892                 2.3647                 2.8336
 Frc consts  --      1.1032                 1.2582                 1.5320
 IR Inten    --     13.3647                13.5164                26.4905

                     46                     47                     48
                      A                      A                      A
 Frequencies --   1006.1406              1011.1958              1035.4182
 Red. masses --      4.4002                 2.7285                 2.9921
 Frc consts  --      2.6244                 1.6438                 1.8900
 IR Inten    --     31.2290                14.1162                19.7061

                     49                     50                     51
                      A                      A                      A
 Frequencies --   1060.4376              1064.2527              1098.2658
 Red. masses --      2.4164                 2.1763                 1.7431
 Frc consts  --      1.6010                 1.4523                 1.2388
 IR Inten    --      7.1583                 4.0030                 6.9602

                     52                     53                     54
                      A                      A                      A
 Frequencies --   1114.8723              1127.3454              1131.3924
 Red. masses --      2.0753                 1.9379                 1.9633
 Frc consts  --      1.5198                 1.4511                 1.4807
 IR Inten    --     13.7938                 5.7123                11.6843

                     55                     56                     57
                      A                      A                      A
 Frequencies --   1155.4841              1192.5249              1211.0230
 Red. masses --      2.3241                 2.1824                 1.8003
 Frc consts  --      1.8283                 1.8286                 1.5556
 IR Inten    --    119.4292                74.2257                 5.3177

                     58                     59                     60
                      A                      A                      A
 Frequencies --   1236.6611              1251.0967              1267.9988
 Red. masses --      2.7667                 1.7009                 1.4335
 Frc consts  --      2.4929                 1.5686                 1.3579
 IR Inten    --     35.7719                52.8192                11.4545

                     61                     62                     63
                      A                      A                      A
 Frequencies --   1285.5154              1292.2311              1296.4074
 Red. masses --      1.6742                 1.2108                 1.3750
 Frc consts  --      1.6301                 1.1912                 1.3615
 IR Inten    --     72.1263                14.0251                 5.5862

                     64                     65                     66
                      A                      A                      A
 Frequencies --   1323.4311              1328.2987              1341.0818
 Red. masses --      1.5282                 2.3598                 1.4354
 Frc consts  --      1.5770                 2.4531                 1.5211
 IR Inten    --      4.7534                 7.2987                46.2246

                     67                     68                     69
                      A                      A                      A
 Frequencies --   1358.4382              1375.7881              1387.8820
 Red. masses --      1.4981                 1.2104                 1.2633
 Frc consts  --      1.6288                 1.3499                 1.4337
 IR Inten    --     57.0697                 0.5491                 2.3092

                     70                     71                     72
                      A                      A                      A
 Frequencies --   1408.8769              1411.5569              1418.9648
 Red. masses --      1.5259                 1.4655                 1.7198
 Frc consts  --      1.7845                 1.7204                 2.0401
 IR Inten    --      2.6787                21.2771                90.5213

                     73                     74                     75
                      A                      A                      A
 Frequencies --   1424.2354              1425.4581              1436.0246
 Red. masses --      1.5081                 1.3673                 1.6691
 Frc consts  --      1.8024                 1.6369                 2.0279
 IR Inten    --     12.3007                 8.1879                 1.7288

                     76                     77                     78
                      A                      A                      A
 Frequencies --   1439.2580              1462.3480              1491.1598
 Red. masses --      1.3143                 2.1265                 3.7823
 Frc consts  --      1.6041                 2.6793                 4.9551
 IR Inten    --      7.3615               171.7974                86.1643

                     79                     80                     81
                      A                      A                      A
 Frequencies --   1500.4439              1507.1796              1512.0542
 Red. masses --      1.0863                 1.0988                 1.1006
 Frc consts  --      1.4410                 1.4706                 1.4825
 IR Inten    --      1.0114                17.1367                 8.2737

                     82                     83                     84
                      A                      A                      A
 Frequencies --   1525.4592              1526.0712              1528.5483
 Red. masses --      1.0458                 1.2126                 1.0827
 Frc consts  --      1.4338                 1.6639                 1.4905
 IR Inten    --     15.2670                49.8444                 2.6795

                     85                     86                     87
                      A                      A                      A
 Frequencies --   1531.8779              1540.5694              1542.1039
 Red. masses --      1.6519                 1.1051                 1.1358
 Frc consts  --      2.2839                 1.5453                 1.5914
 IR Inten    --     66.8888                10.4285                51.1467

                     88                     89                     90
                      A                      A                      A
 Frequencies --   1619.1400              1660.7296              1750.4610
 Red. masses --      7.7431                 5.6636                 1.0623
 Frc consts  --     11.9600                 9.2032                 1.9177
 IR Inten    --    174.9611               133.5598                25.0439

                     91                     92                     93
                      A                      A                      A
 Frequencies --   1750.7964              2986.5109              3001.6510
 Red. masses --     11.3268                 1.0724                 1.0694
 Frc consts  --     20.4563                 5.6356                 5.6767
 IR Inten    --    231.5988                61.6968                62.2389

                     94                     95                     96
                      A                      A                      A
 Frequencies --   3046.7910              3051.7758              3054.8374
 Red. masses --      1.0676                 1.0611                 1.0351
 Frc consts  --      5.8391                 5.8224                 5.6913
 IR Inten    --     27.3157                21.0944                37.6760

                     97                     98                     99
                      A                      A                      A
 Frequencies --   3058.4713              3087.3308              3089.6919
 Red. masses --      1.0696                 1.0642                 1.0951
 Frc consts  --      5.8948                 5.9763                 6.1594
 IR Inten    --     36.1544                34.3190                57.9582

                    100                    101                    102
                      A                      A                      A
 Frequencies --   3094.5028              3112.8423              3115.9140
 Red. masses --      1.1018                 1.0907                 1.0961
 Frc consts  --      6.2166                 6.2271                 6.2702
 IR Inten    --     10.4757                15.0859                24.3723

                    103                    104                    105
                      A                      A                      A
 Frequencies --   3122.8115              3137.3104              3137.7670
 Red. masses --      1.1033                 1.1029                 1.1022
 Frc consts  --      6.3395                 6.3956                 6.3938
 IR Inten    --     39.7129                25.1631                38.0356

                    106                    107                    108
                      A                      A                      A
 Frequencies --   3151.2337              3192.3750              3225.8545
 Red. masses --      1.0964                 1.0908                 1.0916
 Frc consts  --      6.4148                 6.5500                 6.6927
 IR Inten    --      6.7805                 6.0978                 1.6411

                    109                    110                    111
                      A                      A                      A
 Frequencies --   3423.5372              3500.3485              3599.2019
 Red. masses --      1.0497                 1.0913                 1.0772
 Frc consts  --      7.2488                 7.8779                 8.2217
 IR Inten    --      6.2167                 0.5661                29.3854

 - Thermochemistry -
 -------------------
 Temperature   298.150 Kelvin.  Pressure   1.00000 Atm.
 Atom     1 has atomic number  6 and mass  12.00000

 Molecular mass:   264.15863 amu.
 Principal axes and moments of inertia in atomic units:
                           1         2         3
     Eigenvalues --  2789.890578438.066789350.19834
           X            0.99983   0.01826  -0.00185
           Y           -0.01827   0.99979  -0.00878
           Z            0.00169   0.00881   0.99996
 This molecule is an asymmetric top.
 Rotational symmetry number  1.
 Warning -- assumption of classical behavior for rotation
           may cause significant error
 Rotational temperatures (Kelvin)      0.03105     0.01026     0.00926
 Rotational constants (GHZ):           0.64689     0.21388     0.19302
 Zero-point vibrational energy     880806.9 (Joules/Mol)
                                  210.51791 (Kcal/Mol)
 Warning -- explicit consideration of  28 degrees of freedom as
           vibrations may cause significant error
 Vibrational temperatures:     29.28    46.99    51.67    86.65   106.96
          (Kelvin)            171.27   181.22   212.01   237.70   247.37
                              274.32   283.01   342.52   360.39   384.04
                              426.59   452.12   459.10   531.77   541.83
                              579.10   603.24   656.86   690.10   745.35
                              772.32   806.87   842.68   942.31   971.35
                              981.64  1042.78  1103.09  1124.26  1137.86
                             1162.26  1170.93  1247.45  1251.67  1258.17
                             1271.96  1327.83  1362.12  1367.29  1378.26
                             1447.61  1454.89  1489.74  1525.73  1531.22
                             1580.16  1604.05  1622.00  1627.82  1662.48
                             1715.78  1742.39  1779.28  1800.05  1824.37
                             1849.57  1859.23  1865.24  1904.12  1911.13
                             1929.52  1954.49  1979.45  1996.85  2027.06
                             2030.92  2041.57  2049.16  2050.92  2066.12
                             2070.77  2103.99  2145.45  2158.80  2168.50
                             2175.51  2194.80  2195.68  2199.24  2204.03
                             2216.54  2218.74  2329.58  2389.42  2518.52
                             2519.01  4296.92  4318.71  4383.65  4390.82
                             4395.23  4400.46  4441.98  4445.38  4452.30
                             4478.69  4483.11  4493.03  4513.89  4514.55
                             4533.92  4593.12  4641.29  4925.71  5036.22
                             5178.45

 Zero-point correction=                           0.335482 (Hartree/Particle)
 Thermal correction to Energy=                    0.353999
 Thermal correction to Enthalpy=                  0.354944
 Thermal correction to Gibbs Free Energy=         0.287275
 Sum of electronic and zero-point Energies=           -876.592995
 Sum of electronic and thermal Energies=              -876.574477
 Sum of electronic and thermal Enthalpies=            -876.573533
 Sum of electronic and thermal Free Energies=         -876.641201

                     E (Thermal)             CV                S
                      KCal/Mol        Cal/Mol-Kelvin    Cal/Mol-Kelvin
 Total                  222.138             69.899            142.420
 Electronic               0.000              0.000              0.000
 Translational            0.889              2.981             42.613
 Rotational               0.889              2.981             33.753
 Vibrational            220.361             63.938             66.053
 Vibration     1          0.593              1.986              6.600
 Vibration     2          0.594              1.983              5.661
 Vibration     3          0.594              1.982              5.473
 Vibration     4          0.597              1.973              4.450
 Vibration     5          0.599              1.966              4.035
 Vibration     6          0.609              1.933              3.116
 Vibration     7          0.611              1.927              3.007
 Vibration     8          0.617              1.906              2.706
 Vibration     9          0.624              1.885              2.489
 Vibration    10          0.626              1.877              2.414
 Vibration    11          0.634              1.853              2.221
 Vibration    12          0.636              1.844              2.164
 Vibration    13          0.656              1.782              1.817
 Vibration    14          0.663              1.762              1.727
 Vibration    15          0.672              1.734              1.616
 Vibration    16          0.690              1.680              1.437
 Vibration    17          0.702              1.646              1.340
 Vibration    18          0.705              1.637              1.315
 Vibration    19          0.742              1.535              1.081
 Vibration    20          0.747              1.520              1.053
 Vibration    21          0.768              1.465              0.954
 Vibration    22          0.782              1.428              0.894
 Vibration    23          0.815              1.346              0.776
 Vibration    24          0.836              1.295              0.711
 Vibration    25          0.873              1.210              0.615
 Vibration    26          0.892              1.169              0.572
 Vibration    27          0.916              1.116              0.522
 Vibration    28          0.943              1.062              0.475

 Optimization completed.
    -- Stationary point found.
 Normal termination of Gaussian 16 at Sat Dec 12 10:15:06 2020.

 ----------------------------------------------------------------------
 # B3LYP/6-311++G(d,p) empiricaldispersion=gd3bj scf=xqc pop=npa geom=c
 heck
 ----------------------------------------------------------------------

 ---------------------------------------
 CID_104150071_JID_9400_Energie_neutraal
 ---------------------------------------
 Structure from the checkpoint file:  "JID_9400.chk"
 Charge =  0 Multiplicity = 1

 SCF Done:  E(RB3LYP) =  -877.178475415     A.U. after   16 cycles
 Normal termination of Gaussian 16 at Sat Dec 12 10:24:24 2020.

 ----------------------------------------------------------------------
 # B3LYP/6-311++G(d,p) empiricaldispersion=gd3bj scf=xqc pop=npa geom=c
 heck
 ----------------------------------------------------------------------

 -------------------------------------
 CID_104150071_JID_9400_Energie_kation
 -------------------------------------
 Structure from the checkpoint file:  "JID_9400.chk"
 Charge =  1 Multiplicity = 2

 SCF Done:  E(UB3LYP) =  -876.890985228     A.U. after   28 cycles
 Normal termination of Gaussian 16 at Sat Dec 12 10:47:37 2020.
 Gaussian 16:  ES64L-G16RevA.03 25-Dec-2016

 ----------------------------------------------------------------------
 # B3LYP/6-311++G(d,p) empiricaldispersion=gd3bj scf=xqc pop=npa geom=c
 heck
 ----------------------------------------------------------------------

 ------------------------------------
 CID_104150071_JID_9400_Energie_anion
 ------------------------------------
 Structure from the checkpoint file:  "JID_9400.chk"
 Charge = -1 Multiplicity = 2

                         Standard orientation:
 ---------------------------------------------------------------------
 Center     Atomic      Atomic             Coordinates (Angstroms)
 Number     Number       Type             X           Y           Z
 ---------------------------------------------------------------------
      1          6           0        3.994176    2.738300   -0.383772
      2          6           0        2.871108    2.371353    0.598039
      3          6           0        2.156051    1.108189    0.184402
      4          7           0        2.880460   -0.026065    0.261808
      5          6           0        2.315480   -1.173510   -0.124937
      6          6           0        0.979669   -1.258484   -0.573335
      7          6           0        0.243401   -0.086674   -0.645828
      8          6           0        0.843111    1.126602   -0.275102
      9          6           0       -1.161878   -0.062633   -1.184433
     10          8           0       -1.431289    0.622523   -2.165660
     11          7           0       -2.092233   -0.853375   -0.552847
     12          6           0       -3.473660   -0.761554   -1.041579
     13          6           0       -4.230756    0.455372   -0.498310
     14          6           0       -4.160908    0.618016    1.021625
     15          8           0       -2.845353    0.965426    1.444822
     16          6           0       -2.014981   -0.104006    1.846119
     17          6           0       -1.944930   -1.274208    0.839807
     18          7           0        3.106671   -2.309916   -0.085290
     19          7           0        4.336326   -2.302409    0.613849
     20          1           0        4.706229    1.911523   -0.465583
     21          1           0        4.532412    3.631014   -0.047416
     22          1           0        3.589662    2.937514   -1.382232
     23          1           0        3.300228    2.218072    1.596049
     24          1           0        2.151011    3.193539    0.674111
     25          1           0        0.553453   -2.210655   -0.876137
     26          1           0        0.284761    2.052692   -0.348793
     27          1           0       -3.435008   -0.717239   -2.130750
     28          1           0       -3.978800   -1.690827   -0.752475
     29          1           0       -5.282642    0.384040   -0.807386
     30          1           0       -3.813791    1.359209   -0.953607
     31          1           0       -4.515541   -0.285503    1.543258
     32          1           0       -4.807323    1.446403    1.330870
     33          1           0       -2.325395   -0.504492    2.826101
     34          1           0       -1.023511    0.342559    1.961498
     35          1           0       -2.746559   -1.992969    1.031109
     36          1           0       -1.001296   -1.804876    0.984028
     37          1           0        2.616977   -3.188406    0.018651
     38          1           0        5.033877   -1.923681   -0.027229
     39          1           0        4.260523   -1.599738    1.353834
 ---------------------------------------------------------------------

 SCF Done:  E(UB3LYP) =  -877.176501896     A.U. after   33 cycles
 SCF Done:  E(UB3LYP) =  -877.176501896     a.u. after    1 cycles

 The electronic state is 2-A.
 Alpha  occ. eigenvalues --  -19.02469 -18.96504 -14.24121 -14.23192 -14.22622
 Alpha  occ. eigenvalues --  -14.17250 -10.14436 -10.12461 -10.11997 -10.11640
 Alpha  occ. eigenvalues --  -10.10033 -10.09611 -10.08281 -10.06684 -10.06544
 Alpha  occ. eigenvalues --  -10.06215 -10.05686 -10.04756 -10.04646  -0.93975
 Alpha  occ. eigenvalues --   -0.91807  -0.89265  -0.82276  -0.81396  -0.70814
 Alpha  occ. eigenvalues --   -0.69618  -0.68127  -0.66771  -0.62924  -0.60671
 Alpha  occ. eigenvalues --   -0.59797  -0.55181  -0.53599  -0.50982  -0.49377
 Alpha  occ. eigenvalues --   -0.48451  -0.43563  -0.42420  -0.40354  -0.40021
 Alpha  occ. eigenvalues --   -0.39470  -0.39225  -0.37440  -0.36991  -0.35658
 Alpha  occ. eigenvalues --   -0.34837  -0.34418  -0.33645  -0.32637  -0.32008
 Alpha  occ. eigenvalues --   -0.31148  -0.30195  -0.29972  -0.28944  -0.27920
 Alpha  occ. eigenvalues --   -0.26756  -0.26520  -0.26232  -0.25368  -0.24620
 Alpha  occ. eigenvalues --   -0.24550  -0.23373  -0.21217  -0.19659  -0.18320
 Alpha  occ. eigenvalues --   -0.16583  -0.16267  -0.14797  -0.13826  -0.12930
 Alpha  occ. eigenvalues --   -0.10308   0.04149
 Alpha virt. eigenvalues --    0.06113   0.06940   0.07392   0.08158   0.08366
 Alpha virt. eigenvalues --    0.08876   0.09411   0.10298   0.10420   0.10989
 Alpha virt. eigenvalues --    0.11017   0.11518   0.11841   0.12238   0.12439

  Beta  occ. eigenvalues --  -19.02466 -18.96367 -14.24108 -14.23192 -14.22622
  Beta  occ. eigenvalues --  -14.17038 -10.14353 -10.12495 -10.11979 -10.11637
  Beta  occ. eigenvalues --  -10.10010 -10.09599 -10.08138 -10.06670 -10.06557
  Beta  occ. eigenvalues --  -10.06193 -10.05425 -10.04707 -10.04625  -0.93960
  Beta  occ. eigenvalues --   -0.91576  -0.89217  -0.82184  -0.81119  -0.70712
  Beta  occ. eigenvalues --   -0.69489  -0.67808  -0.66686  -0.62868  -0.60537
  Beta  occ. eigenvalues --   -0.59732  -0.54955  -0.53487  -0.50915  -0.49195
  Beta  occ. eigenvalues --   -0.48329  -0.43465  -0.42354  -0.40252  -0.39992
  Beta  occ. eigenvalues --   -0.39426  -0.39166  -0.37356  -0.36890  -0.35541
  Beta  occ. eigenvalues --   -0.34698  -0.34351  -0.33548  -0.32580  -0.31933
  Beta  occ. eigenvalues --   -0.31063  -0.30058  -0.29607  -0.28775  -0.27763
  Beta  occ. eigenvalues --   -0.26649  -0.26387  -0.26139  -0.25080  -0.24535
  Beta  occ. eigenvalues --   -0.24510  -0.23189  -0.21176  -0.19402  -0.18155
  Beta  occ. eigenvalues --   -0.16421  -0.15439  -0.14466  -0.13564  -0.12556
  Beta  occ. eigenvalues --   -0.09835
  Beta virt. eigenvalues --    0.06683   0.06838   0.07678   0.08233   0.08553
  Beta virt. eigenvalues --    0.08786   0.09178   0.09393   0.10350   0.10583
  Beta virt. eigenvalues --    0.11005   0.11235   0.11715   0.11836   0.12284

 Mulliken charges and spin densities:
               1          2
     1  C   -0.459650  -0.161010
     2  C   -0.385894   0.126797
     3  C    0.112204  -0.010807
     4  N   -0.098218   0.100262
     5  C    0.102726  -0.251760
     6  C   -0.501095   0.212595
     7  C    1.194374  -0.010024
     8  C   -0.222070  -0.079496
     9  C   -1.303038   0.178240
    10  O   -0.290530   0.045309
    11  N    0.069616   0.042028
    12  C    0.311739  -0.611893
    13  C   -0.561701   0.416033
    14  C    0.542847  -0.897204
    15  O   -0.109152   0.026350
    16  C   -0.313768  -0.299509
    17  C    0.346271  -0.301029
    18  N   -0.150278  -0.006232
    19  N   -0.322012   0.012551
    20  H    0.142875   0.003252
    21  H    0.045826   0.073286
    22  H    0.110058   0.023174
    23  H    0.109137   0.034393
    24  H    0.151933  -0.006493
    25  H    0.158856  -0.005048
    26  H    0.210127  -0.000589
    27  H    0.182993   0.002037
    28  H   -0.329412   0.496608
    29  H   -0.246254   0.381249
    30  H    0.197850   0.019383
    31  H   -0.103672   0.227777
    32  H   -0.022882   0.190587
    33  H   -0.093406   0.232044
    34  H    0.221019  -0.000526
    35  H   -0.143147   0.322932
    36  H   -0.209651   0.388315
    37  H    0.178939   0.088106
    38  H    0.243997  -0.003258
    39  H    0.232443   0.001569
 Sum of Mulliken charges =  -1.00000   1.00000

 Dipole moment (field-independent basis, Debye):
    X=              2.7835    Y=              1.0736    Z=              1.1704  Tot=              3.2047
 Quadrupole moment (field-independent basis, Debye-Ang):
   XX=           -185.1312   YY=           -145.8397   ZZ=           -143.2873
   XY=             -1.4096   XZ=             -0.3851   YZ=              5.9920

 Summary of Natural Population Analysis:

                                       Natural Population
                Natural  -----------------------------------------------
    Atom  No    Charge         Core      Valence    Rydberg      Total
 -----------------------------------------------------------------------
      C    1   -0.27961      0.99967     2.27555    0.00440     3.27961
      C    2   -0.19939      0.99961     2.19176    0.00802     3.19939
      C    3    0.13395      0.99954     1.85178    0.01473     2.86605
      N    4   -0.26293      0.99963     2.75240    0.01089     3.76293
      C    5    0.19031      0.99954     1.79503    0.01512     2.80969
      C    6   -0.12267      0.99947     2.11374    0.00946     3.12267
      C    7    0.00842      0.99947     1.98055    0.01155     2.99158
      C    8   -0.14253      0.99946     2.13475    0.00832     3.14253
      C    9    0.35744      0.99959     1.61842    0.02455     2.64256
      O   10   -0.30865      0.99988     3.30399    0.00478     4.30865
      N   11   -0.26076      0.99965     2.74980    0.01131     3.76076
      C   12   -0.08482      0.99961     2.07318    0.01203     3.08482
      C   13   -0.21181      0.99962     2.20359    0.00860     3.21181
      C   14   -0.01226      0.99958     1.99998    0.01271     3.01226
      O   15   -0.30090      0.99989     3.29235    0.00866     4.30090
      C   16   -0.01469      0.99958     2.00286    0.01226     3.01469
      C   17   -0.10364      0.99961     2.09290    0.01113     3.10364
      N   18   -0.23178      0.99966     2.71873    0.01339     3.73178
      N   19   -0.32181      0.99978     2.81166    0.01037     3.82181
      H   20    0.10130      0.00000     0.39739    0.00131     0.39870
      H   21    0.08999      0.00000     0.40868    0.00133     0.41001
      H   22    0.09612      0.00000     0.40283    0.00105     0.40388
      H   23    0.09788      0.00000     0.40048    0.00164     0.40212
      H   24    0.09484      0.00000     0.40430    0.00087     0.40516
      H   25    0.10055      0.00000     0.39830    0.00114     0.39945
      H   26    0.10593      0.00000     0.39325    0.00081     0.39407
      H   27    0.11034      0.00000     0.38864    0.00102     0.38966
      H   28    0.09189      0.00000     0.40671    0.00141     0.40811
      H   29    0.09818      0.00000     0.40051    0.00131     0.40182
      H   30    0.10839      0.00000     0.39050    0.00111     0.39161
      H   31    0.07844      0.00000     0.41989    0.00167     0.42156
      H   32    0.08821      0.00000     0.41071    0.00108     0.41179
      H   33    0.07590      0.00000     0.42295    0.00115     0.42410
      H   34    0.09720      0.00000     0.40150    0.00131     0.40280
      H   35    0.09501      0.00000     0.40336    0.00163     0.40499
      H   36    0.11318      0.00000     0.38525    0.00157     0.38682
      H   37    0.17987      0.00000     0.31708    0.00304     0.32013
      H   38    0.16949      0.00000     0.32895    0.00155     0.33051
      H   39    0.17542      0.00000     0.32223    0.00235     0.32458
 =======================================================================
   * Total *   -0.00000     18.99283    51.76654    0.24063    71.00000

 Normal termination of Gaussian 16 at Sat Dec 12 11:15:30 2020.
