 Gaussian 16, Revision A.03,

 -----------------------------------------------------------
 # opt freq B3LYP/6-31G(d) empiricaldispersion=gd3bj scf=xqc
 -----------------------------------------------------------

 -------------------------------
 CID_150264471_JID_2848_neutraal
 -------------------------------
 Symbolic Z-matrix:
 Charge =  0 Multiplicity = 1

 SCF Done:  E(RB3LYP) =  -584.166771433     A.U. after   15 cycles
 SCF Done:  E(RB3LYP) =  -584.175197250     A.U. after   14 cycles
 SCF Done:  E(RB3LYP) =  -584.175868908     A.U. after   13 cycles
 SCF Done:  E(RB3LYP) =  -584.176242950     A.U. after   13 cycles
 SCF Done:  E(RB3LYP) =  -584.176356552     A.U. after   12 cycles
 SCF Done:  E(RB3LYP) =  -584.176406090     A.U. after   12 cycles
 SCF Done:  E(RB3LYP) =  -584.176436634     A.U. after   10 cycles
 SCF Done:  E(RB3LYP) =  -584.176456126     A.U. after   11 cycles
 SCF Done:  E(RB3LYP) =  -584.176474606     A.U. after   12 cycles
 SCF Done:  E(RB3LYP) =  -584.176481549     A.U. after   12 cycles
 SCF Done:  E(RB3LYP) =  -584.176510920     A.U. after   14 cycles
 SCF Done:  E(RB3LYP) =  -584.176521011     A.U. after   12 cycles
 SCF Done:  E(RB3LYP) =  -584.176522717     A.U. after   11 cycles
 SCF Done:  E(RB3LYP) =  -584.176522791     A.U. after    8 cycles
 SCF Done:  E(RB3LYP) =  -584.176522809     A.U. after    8 cycles
 SCF Done:  E(RB3LYP) =  -584.176522813     A.U. after    8 cycles
 Optimization completed.
    -- Stationary point found.
 Normal termination of Gaussian 16 at Wed Dec  9 18:27:08 2020.

 --------------------------------------------------------------------
 #N Geom=AllCheck Guess=TCheck SCRF=Check GenChk RB3LYP/6-31G(d) Freq
 --------------------------------------------------------------------

 Structure from the checkpoint file:  "JID_2848.chk"
 -------------------------------
 CID_150264471_JID_2848_neutraal
 -------------------------------
 Charge =  0 Multiplicity = 1

 SCF Done:  E(RB3LYP) =  -584.176522813     A.U. after    1 cycles

  Exact polarizability: 121.001  -7.844  87.047   8.353  -1.221  78.348
 Approx polarizability: 200.802 -21.038 118.529  24.853  -2.876 127.880

                      1                      2                      3
                      A                      A                      A
 Frequencies --     27.5915                60.6475                84.7243
 Red. masses --      7.0201                 4.9747                 3.3459
 Frc consts  --      0.0031                 0.0108                 0.0142
 IR Inten    --      0.2675                 0.5745                 1.7644

                      4                      5                      6
                      A                      A                      A
 Frequencies --    139.9704               158.0779               187.8185
 Red. masses --      6.6749                 4.5286                 4.4385
 Frc consts  --      0.0770                 0.0667                 0.0922
 IR Inten    --      0.3410                 2.4030                 0.4068

                      7                      8                      9
                      A                      A                      A
 Frequencies --    230.6819               239.0812               280.0852
 Red. masses --      1.3446                 1.1958                 2.1437
 Frc consts  --      0.0422                 0.0403                 0.0991
 IR Inten    --     67.4419                 7.4644                42.1145

                     10                     11                     12
                      A                      A                      A
 Frequencies --    308.0329               364.8121               372.1489
 Red. masses --      3.1970                 2.9647                 2.9201
 Frc consts  --      0.1787                 0.2325                 0.2383
 IR Inten    --      5.5842                 0.6205                11.3412

                     13                     14                     15
                      A                      A                      A
 Frequencies --    439.3277               455.5035               547.8485
 Red. masses --      3.2865                 5.2021                 4.3784
 Frc consts  --      0.3737                 0.6359                 0.7743
 IR Inten    --     14.2958                 2.4781                 1.9983

                     16                     17                     18
                      A                      A                      A
 Frequencies --    576.1192               579.7103               674.0062
 Red. masses --      8.4399                 7.2695                 4.8738
 Frc consts  --      1.6505                 1.4394                 1.3045
 IR Inten    --      5.8888                25.2277                 1.9562

                     19                     20                     21
                      A                      A                      A
 Frequencies --    726.0108               779.3977               804.8563
 Red. masses --      5.9958                 2.3814                 1.4910
 Frc consts  --      1.8620                 0.8523                 0.5691
 IR Inten    --     22.1700                 5.4985                47.0867

                     22                     23                     24
                      A                      A                      A
 Frequencies --    830.3158               859.1222               878.0447
 Red. masses --      2.8633                 1.4434                 2.7393
 Frc consts  --      1.1630                 0.6277                 1.2443
 IR Inten    --     16.3742                59.8207                48.8167

                     25                     26                     27
                      A                      A                      A
 Frequencies --    901.7779               949.7820               966.7863
 Red. masses --      1.5041                 2.7498                 3.1479
 Frc consts  --      0.7207                 1.4615                 1.7335
 IR Inten    --    101.9608                70.6306                80.0994

                     28                     29                     30
                      A                      A                      A
 Frequencies --    991.9189              1025.9324              1051.0633
 Red. masses --      2.9557                 1.8174                 2.7734
 Frc consts  --      1.7134                 1.1270                 1.8052
 IR Inten    --      4.0601                41.9597                38.3814

                     31                     32                     33
                      A                      A                      A
 Frequencies --   1069.3618              1107.6189              1135.6420
 Red. masses --      2.5636                 1.7629                 2.0014
 Frc consts  --      1.7272                 1.2743                 1.5208
 IR Inten    --     50.8569                11.5852                64.0224

                     34                     35                     36
                      A                      A                      A
 Frequencies --   1182.8801              1205.3839              1212.3119
 Red. masses --      1.3569                 1.4104                 1.7710
 Frc consts  --      1.1186                 1.2074                 1.5335
 IR Inten    --      2.9656                71.6473                 6.4281

                     37                     38                     39
                      A                      A                      A
 Frequencies --   1259.2771              1306.0112              1321.6418
 Red. masses --      1.5365                 1.5633                 1.7420
 Frc consts  --      1.4356                 1.5710                 1.7928
 IR Inten    --     18.5026                73.2298                52.9548

                     40                     41                     42
                      A                      A                      A
 Frequencies --   1325.0178              1342.5479              1358.0388
 Red. masses --      3.3454                 1.4255                 1.3754
 Frc consts  --      3.4605                 1.5138                 1.4945
 IR Inten    --     97.7994                 1.9129                 6.6277

                     43                     44                     45
                      A                      A                      A
 Frequencies --   1393.4657              1428.4071              1440.3769
 Red. masses --      1.4421                 1.4476                 1.5167
 Frc consts  --      1.6499                 1.7403                 1.8540
 IR Inten    --     26.0449                17.7468                 6.5317

                     46                     47                     48
                      A                      A                      A
 Frequencies --   1447.4682              1501.2283              1522.8832
 Red. masses --      1.5566                 1.1002                 1.0892
 Frc consts  --      1.9216                 1.4609                 1.4884
 IR Inten    --     12.3038                 7.1500                 1.2524

                     49                     50                     51
                      A                      A                      A
 Frequencies --   1691.4985              1695.5992              1757.8754
 Red. masses --      1.1004                 1.0903                 6.9417
 Frc consts  --      1.8550                 1.8469                12.6384
 IR Inten    --     34.5293                24.3932                33.5909

                     52                     53                     54
                      A                      A                      A
 Frequencies --   2279.3111              2980.3036              3030.8574
 Red. masses --     13.7286                 1.0712                 1.0602
 Frc consts  --     42.0226                 5.6059                 5.7381
 IR Inten    --    453.9683                70.5094                31.6666

                     55                     56                     57
                      A                      A                      A
 Frequencies --   3061.4790              3071.2191              3089.7607
 Red. masses --      1.1025                 1.0903                 1.0861
 Frc consts  --      6.0881                 6.0595                 6.1088
 IR Inten    --     31.5816                25.6045                24.6936

                     58                     59                     60
                      A                      A                      A
 Frequencies --   3111.1171              3197.6192              3471.7082
 Red. masses --      1.0874                 1.0905                 1.0494
 Frc consts  --      6.2012                 6.5693                 7.4518
 IR Inten    --     32.0275                14.1204                 0.4407

                     61                     62                     63
                      A                      A                      A
 Frequencies --   3472.9442              3556.9097              3563.1224
 Red. masses --      1.0494                 1.0922                 1.0933
 Frc consts  --      7.4573                 8.1417                 8.1783
 IR Inten    --      1.7862                 0.1342                 0.4700

 - Thermochemistry -
 -------------------
 Temperature   298.150 Kelvin.  Pressure   1.00000 Atm.
 Atom     1 has atomic number  6 and mass  12.00000

 Molecular mass:   169.09636 amu.
 Principal axes and moments of inertia in atomic units:
                           1         2         3
     Eigenvalues --  1504.515332018.536162895.48421
           X            0.99553   0.09428   0.00587
           Y           -0.09422   0.99549  -0.01074
           Z           -0.00686   0.01014   0.99993
 This molecule is an asymmetric top.
 Rotational symmetry number  1.
 Warning -- assumption of classical behavior for rotation
           may cause significant error
 Rotational temperatures (Kelvin)      0.05757     0.04291     0.02991
 Rotational constants (GHZ):           1.19955     0.89408     0.62330
 Zero-point vibrational energy     496941.2 (Joules/Mol)
                                  118.77180 (Kcal/Mol)
 Warning -- explicit consideration of  17 degrees of freedom as
           vibrations may cause significant error
 Vibrational temperatures:     39.70    87.26   121.90   201.39   227.44
          (Kelvin)            270.23   331.90   343.98   402.98   443.19
                              524.88   535.44   632.09   655.37   788.23
                              828.91   834.07   969.74  1044.57  1121.38
                             1158.01  1194.64  1236.09  1263.31  1297.46
                             1366.52  1390.99  1427.15  1476.09  1512.25
                             1538.57  1593.62  1633.94  1701.90  1734.28
                             1744.25  1811.82  1879.06  1901.55  1906.41
                             1931.63  1953.91  2004.89  2055.16  2072.38
                             2082.58  2159.93  2191.09  2433.69  2439.59
                             2529.19  3279.42  4287.99  4360.73  4404.79
                             4418.80  4445.48  4476.20  4600.66  4995.01
                             4996.79  5117.60  5126.54

 Zero-point correction=                           0.189275 (Hartree/Particle)
 Thermal correction to Energy=                    0.201111
 Thermal correction to Enthalpy=                  0.202055
 Thermal correction to Gibbs Free Energy=         0.150601
 Sum of electronic and zero-point Energies=           -583.987248
 Sum of electronic and thermal Energies=              -583.975412
 Sum of electronic and thermal Enthalpies=            -583.974468
 Sum of electronic and thermal Free Energies=         -584.025922

                     E (Thermal)             CV                S
                      KCal/Mol        Cal/Mol-Kelvin    Cal/Mol-Kelvin
 Total                  126.199             43.608            108.295
 Electronic               0.000              0.000              0.000
 Translational            0.889              2.981             41.284
 Rotational               0.889              2.981             30.554
 Vibrational            124.422             37.647             36.457
 Vibration     1          0.593              1.984              5.995
 Vibration     2          0.597              1.973              4.436
 Vibration     3          0.601              1.960              3.778
 Vibration     4          0.615              1.913              2.804
 Vibration     5          0.621              1.894              2.573
 Vibration     6          0.632              1.857              2.249
 Vibration     7          0.652              1.794              1.874
 Vibration     8          0.657              1.781              1.810
 Vibration     9          0.680              1.710              1.533
 Vibration    10          0.698              1.658              1.373
 Vibration    11          0.738              1.545              1.102
 Vibration    12          0.744              1.529              1.071
 Vibration    13          0.799              1.384              0.829
 Vibration    14          0.814              1.349              0.779
 Vibration    15          0.903              1.144              0.549
 Vibration    16          0.933              1.083              0.493
 Vibration    17          0.936              1.075              0.486

 Optimization completed.
    -- Stationary point found.
 Normal termination of Gaussian 16 at Wed Dec  9 18:32:23 2020.

 ----------------------------------------------------------------------
 # B3LYP/6-311++G(d,p) empiricaldispersion=gd3bj scf=xqc pop=npa geom=c
 heck
 ----------------------------------------------------------------------

 ---------------------------------------
 CID_150264471_JID_2848_Energie_neutraal
 ---------------------------------------
 Structure from the checkpoint file:  "JID_2848.chk"
 Charge =  0 Multiplicity = 1

 SCF Done:  E(RB3LYP) =  -584.356676839     A.U. after   15 cycles
 Normal termination of Gaussian 16 at Wed Dec  9 18:34:33 2020.

 ----------------------------------------------------------------------
 # B3LYP/6-311++G(d,p) empiricaldispersion=gd3bj scf=xqc pop=npa geom=c
 heck
 ----------------------------------------------------------------------

 -------------------------------------
 CID_150264471_JID_2848_Energie_kation
 -------------------------------------
 Structure from the checkpoint file:  "JID_2848.chk"
 Charge =  1 Multiplicity = 2

 SCF Done:  E(UB3LYP) =  -584.047072991     A.U. after   30 cycles
 Normal termination of Gaussian 16 at Wed Dec  9 18:39:59 2020.
 Gaussian 16:  ES64L-G16RevA.03 25-Dec-2016

 ----------------------------------------------------------------------
 # B3LYP/6-311++G(d,p) empiricaldispersion=gd3bj scf=xqc pop=npa geom=c
 heck
 ----------------------------------------------------------------------

 ------------------------------------
 CID_150264471_JID_2848_Energie_anion
 ------------------------------------
 Structure from the checkpoint file:  "JID_2848.chk"
 Charge = -1 Multiplicity = 2

                         Standard orientation:
 ---------------------------------------------------------------------
 Center     Atomic      Atomic             Coordinates (Angstroms)
 Number     Number       Type             X           Y           Z
 ---------------------------------------------------------------------
      1          6           0        1.706850   -0.401643    1.292357
      2          6           0        0.546025   -1.324510    1.040757
      3          6           0       -0.279054   -1.173393   -0.002055
      4          8           0       -0.129296   -0.176174   -0.946607
      5          6           0        0.706121    0.910993   -0.577083
      6          6           0        2.023786    0.423607    0.028568
      7          7           0        2.741399   -0.287777   -1.031152
      8          7           0        0.055203    1.789744    0.415056
      9          7           0       -1.131462    2.056468    0.181206
     10          7           0       -2.224699    2.361282    0.089172
     11          6           0       -1.482857   -2.021558   -0.289554
     12          7           0       -2.706548   -1.233215   -0.103409
     13          1           0        2.601071   -0.968102    1.584940
     14          1           0        1.475827    0.272267    2.129040
     15          1           0        0.347035   -2.131636    1.739300
     16          1           0        0.887546    1.449657   -1.510640
     17          1           0        2.613825    1.305215    0.298440
     18          1           0        3.642215   -0.601858   -0.675156
     19          1           0        2.222112   -1.129004   -1.279597
     20          1           0       -1.451061   -2.335864   -1.340170
     21          1           0       -1.415851   -2.932917    0.328454
     22          1           0       -3.516086   -1.772985   -0.402475
     23          1           0       -2.834737   -1.031873    0.886676
 ---------------------------------------------------------------------

 SCF Done:  E(UB3LYP) =  -584.348068578     A.U. after   32 cycles

 The electronic state is 2-A.
 Alpha  occ. eigenvalues --  -19.04291 -14.35215 -14.25566 -14.23649 -14.18824
 Alpha  occ. eigenvalues --  -14.18651 -10.15696 -10.11456 -10.09747 -10.09142
 Alpha  occ. eigenvalues --  -10.06200 -10.05311  -1.01973  -0.96520  -0.85607
 Alpha  occ. eigenvalues --   -0.78815  -0.77716  -0.68394  -0.66500  -0.58764
 Alpha  occ. eigenvalues --   -0.54855  -0.50783  -0.48218  -0.42015  -0.40827
 Alpha  occ. eigenvalues --   -0.39317  -0.38908  -0.37538  -0.35550  -0.35091
 Alpha  occ. eigenvalues --   -0.34010  -0.32810  -0.32192  -0.30658  -0.29534
 Alpha  occ. eigenvalues --   -0.28793  -0.27423  -0.26838  -0.23637  -0.20910
 Alpha  occ. eigenvalues --   -0.19028  -0.14655  -0.14362  -0.13638  -0.12041
 Alpha  occ. eigenvalues --    0.04481
 Alpha virt. eigenvalues --    0.06792   0.07238   0.08704   0.09067   0.09883
 Alpha virt. eigenvalues --    0.10319   0.10728   0.11551   0.11928   0.12842
 Alpha virt. eigenvalues --    0.13363   0.13553   0.13998   0.15424   0.16536

  Beta  occ. eigenvalues --  -19.04286 -14.35047 -14.25332 -14.23688 -14.18788
  Beta  occ. eigenvalues --  -14.18623 -10.15650 -10.11450 -10.09737 -10.09119
  Beta  occ. eigenvalues --  -10.06173 -10.05282  -1.01656  -0.96479  -0.85448
  Beta  occ. eigenvalues --   -0.78752  -0.77661  -0.68337  -0.66395  -0.58665
  Beta  occ. eigenvalues --   -0.54784  -0.50721  -0.48084  -0.41912  -0.40750
  Beta  occ. eigenvalues --   -0.39262  -0.38265  -0.37422  -0.35448  -0.34977
  Beta  occ. eigenvalues --   -0.33709  -0.32718  -0.31919  -0.30598  -0.29488
  Beta  occ. eigenvalues --   -0.28726  -0.27375  -0.26731  -0.23581  -0.20852
  Beta  occ. eigenvalues --   -0.18708  -0.14587  -0.14323  -0.13591  -0.11965
  Beta virt. eigenvalues --    0.07075   0.07873   0.08802   0.09266   0.09713
  Beta virt. eigenvalues --    0.10307   0.10629   0.11257   0.11889   0.12225
  Beta virt. eigenvalues --    0.13141   0.13805   0.13916   0.14329   0.15489

 Mulliken charges and spin densities:
               1          2
     1  C    1.994796  -3.078066
     2  C   -1.268518   1.654381
     3  C   -1.128401   0.879728
     4  O   -0.086635   0.026963
     5  C    0.556353  -1.053517
     6  C   -1.176822   1.750481
     7  N   -0.167506  -0.232173
     8  N   -0.721276   0.984291
     9  N    0.682597  -0.486843
    10  N   -0.043166  -0.285116
    11  C    2.419334  -3.088177
    12  N   -0.401728   0.090269
    13  H   -0.412655   0.594762
    14  H    0.029695   0.125633
    15  H   -0.667877   0.854372
    16  H    0.118073   0.100130
    17  H   -0.273091   0.513383
    18  H   -0.206679   0.443149
    19  H    0.225275  -0.003254
    20  H   -0.173031   0.333500
    21  H   -0.419281   0.568241
    22  H    0.026792   0.202121
    23  H    0.093752   0.105741
 Sum of Mulliken charges =  -1.00000   1.00000

 Dipole moment (field-independent basis, Debye):
    X=             -0.8537    Y=              2.2224    Z=             -1.1593  Tot=              2.6480
 Quadrupole moment (field-independent basis, Debye-Ang):
   XX=           -123.9222   YY=           -112.4433   ZZ=            -97.0611
   XY=              2.9844   XZ=             -1.8399   YZ=              3.2296

 Summary of Natural Population Analysis:

                                       Natural Population
                Natural  -----------------------------------------------
    Atom  No    Charge         Core      Valence    Rydberg      Total
 -----------------------------------------------------------------------
      C    1   -0.21342      0.99960     2.20297    0.01085     3.21342
      C    2   -0.13598      0.99945     2.12622    0.01031     3.13598
      C    3    0.14984      0.99936     1.83394    0.01686     2.85016
      O    4   -0.28862      0.99986     3.27846    0.01030     4.28862
      C    5    0.15154      0.99952     1.83075    0.01819     2.84846
      C    6   -0.02611      0.99958     2.01188    0.01466     3.02611
      N    7   -0.42358      0.99977     2.91327    0.01053     3.92358
      N    8   -0.21506      0.99969     2.70232    0.01305     3.71506
      N    9    0.13589      0.99970     2.34861    0.01579     3.36411
      N   10   -0.01260      0.99982     2.49959    0.01320     3.51260
      C   11   -0.10593      0.99958     2.09398    0.01237     3.10593
      N   12   -0.41483      0.99977     2.90425    0.01081     3.91483
      H   13    0.10473      0.00000     0.39293    0.00234     0.39527
      H   14    0.11073      0.00000     0.38764    0.00162     0.38927
      H   15    0.10515      0.00000     0.39315    0.00170     0.39485
      H   16    0.09320      0.00000     0.40552    0.00128     0.40680
      H   17    0.10165      0.00000     0.39675    0.00160     0.39835
      H   18    0.17735      0.00000     0.32008    0.00256     0.32265
      H   19    0.17731      0.00000     0.32046    0.00223     0.32269
      H   20    0.09552      0.00000     0.40303    0.00144     0.40448
      H   21    0.08704      0.00000     0.41026    0.00270     0.41296
      H   22    0.17308      0.00000     0.32499    0.00193     0.32692
      H   23    0.17310      0.00000     0.32500    0.00190     0.32690
 =======================================================================
   * Total *   -0.00000     11.99569    32.82609    0.17822    45.00000

 Normal termination of Gaussian 16 at Wed Dec  9 18:45:47 2020.
