 Gaussian 16, Revision A.03,

 -----------------------------------------------------------
 # opt freq B3LYP/6-31G(d) empiricaldispersion=gd3bj scf=xqc
 -----------------------------------------------------------

 -------------------------------
 CID_120960161_JID_9294_neutraal
 -------------------------------
 Symbolic Z-matrix:
 Charge =  0 Multiplicity = 1

 SCF Done:  E(RB3LYP) =  -842.171402202     A.U. after   15 cycles
 SCF Done:  E(RB3LYP) =  -842.179699844     A.U. after   12 cycles
 SCF Done:  E(RB3LYP) =  -842.181261200     A.U. after   12 cycles
 SCF Done:  E(RB3LYP) =  -842.182206961     A.U. after   12 cycles
 SCF Done:  E(RB3LYP) =  -842.182595141     A.U. after   12 cycles
 SCF Done:  E(RB3LYP) =  -842.182892509     A.U. after   11 cycles
 SCF Done:  E(RB3LYP) =  -842.182951188     A.U. after   10 cycles
 SCF Done:  E(RB3LYP) =  -842.182964813     A.U. after   10 cycles
 SCF Done:  E(RB3LYP) =  -842.182969216     A.U. after    9 cycles
 SCF Done:  E(RB3LYP) =  -842.182971002     A.U. after    8 cycles
 SCF Done:  E(RB3LYP) =  -842.182971727     A.U. after    7 cycles
 SCF Done:  E(RB3LYP) =  -842.182972329     A.U. after    7 cycles
 SCF Done:  E(RB3LYP) =  -842.182972526     A.U. after    7 cycles
 Optimization completed.
    -- Stationary point found.
 Normal termination of Gaussian 16 at Sun Dec 13 12:39:11 2020.

 --------------------------------------------------------------------
 #N Geom=AllCheck Guess=TCheck SCRF=Check GenChk RB3LYP/6-31G(d) Freq
 --------------------------------------------------------------------

 Structure from the checkpoint file:  "JID_9294.chk"
 -------------------------------
 CID_120960161_JID_9294_neutraal
 -------------------------------
 Charge =  0 Multiplicity = 1

 SCF Done:  E(RB3LYP) =  -842.182972526     A.U. after    1 cycles

  Exact polarizability: 231.468   0.415 152.413   1.388  -1.053 146.619
 Approx polarizability: 285.217  -1.787 213.386  -0.876   2.245 243.977

                      1                      2                      3
                      A                      A                      A
 Frequencies --     19.8183                31.9918                57.6799
 Red. masses --      3.6047                 3.8722                 3.5201
 Frc consts  --      0.0008                 0.0023                 0.0069
 IR Inten    --      0.0710                 0.7739                 1.3602

                      4                      5                      6
                      A                      A                      A
 Frequencies --     82.4688                97.7348               112.5231
 Red. masses --      6.1780                 3.1604                 3.0450
 Frc consts  --      0.0248                 0.0178                 0.0227
 IR Inten    --      0.2067                 0.2177                 0.1444

                      7                      8                      9
                      A                      A                      A
 Frequencies --    135.4265               158.6119               168.1267
 Red. masses --      2.5680                 1.0988                 1.4484
 Frc consts  --      0.0277                 0.0163                 0.0241
 IR Inten    --      0.0280                 0.0997                 0.1941

                     10                     11                     12
                      A                      A                      A
 Frequencies --    183.4503               185.5713               205.9219
 Red. masses --      1.6825                 2.1553                 1.3405
 Frc consts  --      0.0334                 0.0437                 0.0335
 IR Inten    --      0.1715                 0.1568                 0.0547

                     13                     14                     15
                      A                      A                      A
 Frequencies --    214.7104               227.1809               253.2609
 Red. masses --      1.9249                 1.2520                 1.9042
 Frc consts  --      0.0523                 0.0381                 0.0720
 IR Inten    --      0.2194                 0.0794                 1.9666

                     16                     17                     18
                      A                      A                      A
 Frequencies --    266.3304               297.6577               321.7541
 Red. masses --      2.9900                 2.1285                 2.7520
 Frc consts  --      0.1250                 0.1111                 0.1679
 IR Inten    --      1.5073                 1.3660                 2.3656

                     19                     20                     21
                      A                      A                      A
 Frequencies --    329.4676               348.9441               367.7636
 Red. masses --      2.3398                 2.6554                 2.9627
 Frc consts  --      0.1496                 0.1905                 0.2361
 IR Inten    --      6.3783                 6.0363                 2.2326

                     22                     23                     24
                      A                      A                      A
 Frequencies --    384.5398               400.6984               405.1452
 Red. masses --      2.6823                 2.3845                 2.7110
 Frc consts  --      0.2337                 0.2256                 0.2622
 IR Inten    --      1.0984                 0.5224                 0.2467

                     25                     26                     27
                      A                      A                      A
 Frequencies --    441.7083               450.6685               455.1462
 Red. masses --      2.8189                 3.2487                 4.8163
 Frc consts  --      0.3240                 0.3888                 0.5878
 IR Inten    --      0.0624                 1.6599                 0.2116

                     28                     29                     30
                      A                      A                      A
 Frequencies --    480.1256               519.6314               533.0984
 Red. masses --      3.5476                 3.1880                 2.9385
 Frc consts  --      0.4818                 0.5072                 0.4920
 IR Inten    --      1.4505                 1.5964                 0.2249

                     31                     32                     33
                      A                      A                      A
 Frequencies --    594.4891               665.7565               672.3405
 Red. masses --      1.7910                 4.2618                 3.2031
 Frc consts  --      0.3729                 1.1130                 0.8531
 IR Inten    --      6.2276                 0.0195                 8.0601

                     34                     35                     36
                      A                      A                      A
 Frequencies --    738.1156               776.0357               791.6485
 Red. masses --      7.5346                 4.6188                 4.9686
 Frc consts  --      2.4186                 1.6389                 1.8346
 IR Inten    --      5.8735                 7.8482                25.4156

                     37                     38                     39
                      A                      A                      A
 Frequencies --    807.3645               815.8303               842.1158
 Red. masses --      3.4475                 2.2601                 2.4866
 Frc consts  --      1.3240                 0.8863                 1.0389
 IR Inten    --     17.3846                56.7537                98.0241

                     40                     41                     42
                      A                      A                      A
 Frequencies --    894.8938               901.3654               917.2748
 Red. masses --      2.4157                 5.5107                 3.3050
 Frc consts  --      1.1398                 2.6379                 1.6384
 IR Inten    --     40.5879                10.0628                14.1973

                     43                     44                     45
                      A                      A                      A
 Frequencies --    928.1050               949.5373               975.3587
 Red. masses --      2.2293                 2.2277                 1.3911
 Frc consts  --      1.1314                 1.1834                 0.7797
 IR Inten    --      3.0169                 5.0942                 0.0029

                     46                     47                     48
                      A                      A                      A
 Frequencies --    989.6680              1001.2907              1009.2502
 Red. masses --      1.4255                 1.3415                 2.4957
 Frc consts  --      0.8226                 0.7924                 1.4978
 IR Inten    --      1.9397                 0.7052                 5.0268

                     49                     50                     51
                      A                      A                      A
 Frequencies --   1010.9534              1028.2601              1032.5779
 Red. masses --      4.9119                 1.3001                 2.8239
 Frc consts  --      2.9577                 0.8099                 1.7740
 IR Inten    --      3.0443                 2.9262                18.3761

                     52                     53                     54
                      A                      A                      A
 Frequencies --   1042.1291              1062.5647              1069.6076
 Red. masses --      2.5673                 1.9307                 1.2533
 Frc consts  --      1.6428                 1.2843                 0.8448
 IR Inten    --     20.8714                12.7753                 0.9230

                     55                     56                     57
                      A                      A                      A
 Frequencies --   1083.9523              1092.7799              1132.8447
 Red. masses --      2.3644                 2.1274                 1.4812
 Frc consts  --      1.6368                 1.4968                 1.1200
 IR Inten    --      3.5129                35.6948                 4.8720

                     58                     59                     60
                      A                      A                      A
 Frequencies --   1154.1933              1155.2332              1163.7583
 Red. masses --      3.6758                 1.8003                 1.8081
 Frc consts  --      2.8851                 1.4156                 1.4428
 IR Inten    --     43.8603                 3.4462                87.5230

                     61                     62                     63
                      A                      A                      A
 Frequencies --   1183.9740              1193.1394              1195.3845
 Red. masses --      1.9851                 3.4782                 2.3064
 Frc consts  --      1.6395                 2.9174                 1.9418
 IR Inten    --     50.5563                 2.6193                19.0205

                     64                     65                     66
                      A                      A                      A
 Frequencies --   1222.1344              1229.5556              1274.2184
 Red. masses --      1.4856                 2.2918                 1.6632
 Frc consts  --      1.3073                 2.0414                 1.5910
 IR Inten    --     10.5175                10.3889                 1.9890

                     67                     68                     69
                      A                      A                      A
 Frequencies --   1311.6717              1315.1923              1322.9239
 Red. masses --      3.0276                 1.6131                 4.8915
 Frc consts  --      3.0690                 1.6439                 5.0439
 IR Inten    --      0.6853                11.0511                26.1372

                     70                     71                     72
                      A                      A                      A
 Frequencies --   1332.2216              1359.7900              1363.7199
 Red. masses --      1.5029                 1.5327                 1.3089
 Frc consts  --      1.5716                 1.6698                 1.4342
 IR Inten    --      8.7905                 3.3987                24.9631

                     73                     74                     75
                      A                      A                      A
 Frequencies --   1378.0655              1389.5851              1407.5313
 Red. masses --      1.3028                 1.3198                 4.4570
 Frc consts  --      1.4577                 1.5015                 5.2024
 IR Inten    --     37.1558                 5.1235               136.9479

                     76                     77                     78
                      A                      A                      A
 Frequencies --   1416.9914              1422.0970              1434.6363
 Red. masses --      1.5480                 1.4205                 3.1954
 Frc consts  --      1.8313                 1.6926                 3.8749
 IR Inten    --     28.9501                 4.4569                 1.1463

                     79                     80                     81
                      A                      A                      A
 Frequencies --   1436.1282              1445.4679              1448.8512
 Red. masses --      1.3263                 1.2328                 1.2314
 Frc consts  --      1.6117                 1.5176                 1.5229
 IR Inten    --      0.0014                 7.4328                 1.3125

                     82                     83                     84
                      A                      A                      A
 Frequencies --   1469.2243              1486.8944              1501.3752
 Red. masses --      1.2314                 1.1875                 1.0809
 Frc consts  --      1.5661                 1.5469                 1.4355
 IR Inten    --      4.9344                 2.2153                 1.7670

                     85                     86                     87
                      A                      A                      A
 Frequencies --   1506.7921              1508.1741              1512.9525
 Red. masses --      1.1890                 1.0433                 1.0501
 Frc consts  --      1.5905                 1.3982                 1.4162
 IR Inten    --      7.0448                 0.8299                 0.0031

                     88                     89                     90
                      A                      A                      A
 Frequencies --   1514.3929              1518.7528              1520.8272
 Red. masses --      1.1085                 1.0611                 1.0474
 Frc consts  --      1.4979                 1.4420                 1.4273
 IR Inten    --      5.0643                 8.9830                 6.9687

                     91                     92                     93
                      A                      A                      A
 Frequencies --   1525.3576              1525.9450              1531.0406
 Red. masses --      1.0875                 1.0483                 1.0485
 Frc consts  --      1.4909                 1.4382                 1.4481
 IR Inten    --      6.8779                 4.8877                 2.1455

                     94                     95                     96
                      A                      A                      A
 Frequencies --   1532.4671              1535.7962              1547.0673
 Red. masses --      1.0664                 1.0480                 1.1154
 Frc consts  --      1.4756                 1.4563                 1.5729
 IR Inten    --      0.9154                11.3967                 4.4186

                     97                     98                     99
                      A                      A                      A
 Frequencies --   1558.0818              1568.9870              1616.0763
 Red. masses --      1.1100                 6.3616                 7.8365
 Frc consts  --      1.5876                 9.2269                12.0587
 IR Inten    --     10.2164                44.1088               257.5168

                    100                    101                    102
                      A                      A                      A
 Frequencies --   2889.4097              2919.3018              2949.1589
 Red. masses --      1.0734                 1.0800                 1.0614
 Frc consts  --      5.2800                 5.4230                 5.4393
 IR Inten    --     70.3758                47.4973                95.4034

                    103                    104                    105
                      A                      A                      A
 Frequencies --   3044.8063              3047.9560              3050.3480
 Red. masses --      1.0389                 1.0412                 1.0417
 Frc consts  --      5.6746                 5.6992                 5.7107
 IR Inten    --      5.0783                27.6808                63.5456

                    106                    107                    108
                      A                      A                      A
 Frequencies --   3054.1685              3055.0522              3068.7989
 Red. masses --      1.0623                 1.0427                 1.0610
 Frc consts  --      5.8382                 5.7338                 5.8873
 IR Inten    --     32.1879                47.2740                40.8522

                    109                    110                    111
                      A                      A                      A
 Frequencies --   3072.7541              3091.5867              3099.6479
 Red. masses --      1.0823                 1.0726                 1.1019
 Frc consts  --      6.0208                 6.0399                 6.2379
 IR Inten    --     41.4120                37.4111                 0.7953

                    112                    113                    114
                      A                      A                      A
 Frequencies --   3101.1448              3103.6734              3104.7055
 Red. masses --      1.1020                 1.1064                 1.1010
 Frc consts  --      6.2443                 6.2792                 6.2529
 IR Inten    --      3.8747                38.9514                28.6163

                    115                    116                    117
                      A                      A                      A
 Frequencies --   3106.2365              3118.8085              3135.7411
 Red. masses --      1.1013                 1.1077                 1.1001
 Frc consts  --      6.2606                 6.3480                 6.3735
 IR Inten    --     63.4899                18.3649                22.6937

                    118                    119                    120
                      A                      A                      A
 Frequencies --   3139.1405              3152.7151              3179.1755
 Red. masses --      1.1020                 1.0960                 1.0955
 Frc consts  --      6.3983                 6.4186                 6.5238
 IR Inten    --     32.4619                27.6640                 6.2501

                    121                    122                    123
                      A                      A                      A
 Frequencies --   3188.0054              3194.4005              3460.7679
 Red. masses --      1.0871                 1.0923                 1.0735
 Frc consts  --      6.5099                 6.5670                 7.5752
 IR Inten    --      3.5713                11.2195                 2.2429

 - Thermochemistry -
 -------------------
 Temperature   298.150 Kelvin.  Pressure   1.00000 Atm.
 Atom     1 has atomic number  6 and mass  12.00000

 Molecular mass:   264.19501 amu.
 Principal axes and moments of inertia in atomic units:
                           1         2         3
     Eigenvalues --  2086.42909********************
           X            0.99999   0.00481   0.00237
           Y           -0.00479   0.99995  -0.00908
           Z           -0.00241   0.00907   0.99996
 This molecule is an asymmetric top.
 Rotational symmetry number  1.
 Warning -- assumption of classical behavior for rotation
           may cause significant error
 Rotational temperatures (Kelvin)      0.04151     0.00824     0.00790
 Rotational constants (GHZ):           0.86499     0.17173     0.16467
 Zero-point vibrational energy     994859.0 (Joules/Mol)
                                  237.77701 (Kcal/Mol)
 Warning -- explicit consideration of  31 degrees of freedom as
           vibrations may cause significant error
 Vibrational temperatures:     28.51    46.03    82.99   118.65   140.62
          (Kelvin)            161.90   194.85   228.21   241.90   263.94
                              267.00   296.28   308.92   326.86   364.39
                              383.19   428.26   462.93   474.03   502.05
                              529.13   553.27   576.52   582.91   635.52
                              648.41   654.85   690.79   747.63   767.01
                              855.34   957.88   967.35  1061.98  1116.54
                             1139.01  1161.62  1173.80  1211.62  1287.55
                             1296.86  1319.75  1335.34  1366.17  1403.32
                             1423.91  1440.63  1452.09  1454.54  1479.44
                             1485.65  1499.39  1528.79  1538.93  1559.57
                             1572.27  1629.91  1660.63  1662.12  1674.39
                             1703.47  1716.66  1719.89  1758.38  1769.06
                             1833.32  1887.20  1892.27  1903.39  1916.77
                             1956.43  1962.09  1982.73  1999.30  2025.12
                             2038.73  2046.08  2064.12  2066.27  2079.71
                             2084.57  2113.89  2139.31  2160.14  2167.94
                             2169.93  2176.80  2178.87  2185.15  2188.13
                             2194.65  2195.49  2202.83  2204.88  2209.67
                             2225.88  2241.73  2257.42  2325.17  4157.22
                             4200.22  4243.18  4380.80  4385.33  4388.77
                             4394.27  4395.54  4415.32  4421.01  4448.10
                             4459.70  4461.86  4465.49  4466.98  4469.18
                             4487.27  4511.63  4516.52  4536.05  4574.12
                             4586.83  4596.03  4979.27

 Zero-point correction=                           0.378922 (Hartree/Particle)
 Thermal correction to Energy=                    0.398406
 Thermal correction to Enthalpy=                  0.399350
 Thermal correction to Gibbs Free Energy=         0.330870
 Sum of electronic and zero-point Energies=           -841.804051
 Sum of electronic and thermal Energies=              -841.784567
 Sum of electronic and thermal Enthalpies=            -841.783623
 Sum of electronic and thermal Free Energies=         -841.852103

                     E (Thermal)             CV                S
                      KCal/Mol        Cal/Mol-Kelvin    Cal/Mol-Kelvin
 Total                  250.003             74.694            144.129
 Electronic               0.000              0.000              0.000
 Translational            0.889              2.981             42.614
 Rotational               0.889              2.981             33.840
 Vibrational            248.226             68.732             67.675
 Vibration     1          0.593              1.986              6.652
 Vibration     2          0.594              1.983              5.702
 Vibration     3          0.596              1.974              4.535
 Vibration     4          0.600              1.961              3.831
 Vibration     5          0.603              1.951              3.499
 Vibration     6          0.607              1.939              3.225
 Vibration     7          0.613              1.918              2.867
 Vibration     8          0.621              1.893              2.566
 Vibration     9          0.625              1.882              2.456
 Vibration    10          0.631              1.862              2.293
 Vibration    11          0.632              1.860              2.272
 Vibration    12          0.640              1.831              2.080
 Vibration    13          0.645              1.819              2.003
 Vibration    14          0.651              1.800              1.901
 Vibration    15          0.664              1.757              1.708
 Vibration    16          0.672              1.735              1.620
 Vibration    17          0.691              1.678              1.430
 Vibration    18          0.707              1.632              1.301
 Vibration    19          0.712              1.617              1.263
 Vibration    20          0.726              1.577              1.171
 Vibration    21          0.740              1.539              1.089
 Vibration    22          0.753              1.503              1.021
 Vibration    23          0.767              1.469              0.960
 Vibration    24          0.770              1.459              0.944
 Vibration    25          0.801              1.379              0.821
 Vibration    26          0.809              1.359              0.794
 Vibration    27          0.813              1.350              0.780
 Vibration    28          0.836              1.294              0.710
 Vibration    29          0.875              1.207              0.611
 Vibration    30          0.888              1.177              0.580
 Vibration    31          0.952              1.044              0.459

                           ! Non-Optimized Parameters !
 Normal termination of Gaussian 16 at Sun Dec 13 13:02:19 2020.

 ----------------------------------------------------------------------
 # B3LYP/6-311++G(d,p) empiricaldispersion=gd3bj scf=xqc pop=npa geom=c
 heck
 ----------------------------------------------------------------------

 ---------------------------------------
 CID_120960161_JID_9294_Energie_neutraal
 ---------------------------------------
 Structure from the checkpoint file:  "JID_9294.chk"
 Charge =  0 Multiplicity = 1

 SCF Done:  E(RB3LYP) =  -842.409938886     A.U. after   15 cycles
 Normal termination of Gaussian 16 at Sun Dec 13 13:13:36 2020.

 ----------------------------------------------------------------------
 # B3LYP/6-311++G(d,p) empiricaldispersion=gd3bj scf=xqc pop=npa geom=c
 heck
 ----------------------------------------------------------------------

 -------------------------------------
 CID_120960161_JID_9294_Energie_kation
 -------------------------------------
 Structure from the checkpoint file:  "JID_9294.chk"
 Charge =  1 Multiplicity = 2

 SCF Done:  E(UB3LYP) =  -842.121829769     A.U. after   33 cycles
 SCF Done:  E(UB3LYP) =  -842.121829769     a.u. after    1 cycles
 Normal termination of Gaussian 16 at Sun Dec 13 13:49:01 2020.
 Gaussian 16:  ES64L-G16RevA.03 25-Dec-2016

 ----------------------------------------------------------------------
 # B3LYP/6-311++G(d,p) empiricaldispersion=gd3bj scf=xqc pop=npa geom=c
 heck
 ----------------------------------------------------------------------

 ------------------------------------
 CID_120960161_JID_9294_Energie_anion
 ------------------------------------
 Structure from the checkpoint file:  "JID_9294.chk"
 Charge = -1 Multiplicity = 2

                         Standard orientation:
 ---------------------------------------------------------------------
 Center     Atomic      Atomic             Coordinates (Angstroms)
 Number     Number       Type             X           Y           Z
 ---------------------------------------------------------------------
      1          6           0       -4.239775   -1.720790   -1.110067
      2          6           0       -3.512628   -0.808072   -0.133368
      3          6           0       -2.227214   -0.149493   -0.661008
      4          6           0       -3.483799    0.687076   -0.368023
      5          6           0       -4.181847    1.284006   -1.581316
      6          6           0       -3.504533    1.649833    0.808424
      7          6           0       -0.961691   -0.059261    0.063563
      8          7           0        0.229949   -0.164410   -0.467432
      9          6           0        1.063856   -0.008272    0.618179
     10          7           0        0.451859    0.182868    1.761140
     11          8           0       -0.916116    0.148389    1.397572
     12          6           0        2.556584   -0.102646    0.534201
     13          6           0        2.948207   -1.518169    0.044256
     14          7           0        4.382634   -1.699280   -0.145141
     15          6           0        4.920163   -0.637426   -0.997726
     16          6           0        4.551367    0.763794   -0.508886
     17          7           0        3.102576    0.905938   -0.380045
     18          6           0        2.742342    2.261473    0.010793
     19          6           0       -3.563152   -1.362957    1.281187
     20          1           0       -5.310187   -1.761309   -0.872735
     21          1           0       -3.843970   -2.740248   -1.034715
     22          1           0       -4.138250   -1.405051   -2.150545
     23          1           0       -2.024376   -0.318430   -1.714180
     24          1           0       -5.248611    1.435199   -1.374159
     25          1           0       -3.747696    2.262127   -1.818963
     26          1           0       -4.098233    0.661756   -2.474847
     27          1           0       -2.952775    1.294917    1.677263
     28          1           0       -3.068104    2.611013    0.512129
     29          1           0       -4.541460    1.837310    1.113099
     30          1           0        2.949111    0.036273    1.561841
     31          1           0        2.445918   -1.692008   -0.913501
     32          1           0        2.581043   -2.261527    0.759482
     33          1           0        4.845533   -1.658502    0.763540
     34          1           0        4.514243   -0.781258   -2.006453
     35          1           0        6.009072   -0.743425   -1.055567
     36          1           0        4.905585    1.519070   -1.220870
     37          1           0        5.064294    0.960407    0.457649
     38          1           0        1.655541    2.378225    0.008153
     39          1           0        3.117185    2.535871    1.015682
     40          1           0        3.161870    2.965439   -0.715117
     41          1           0       -4.604454   -1.406057    1.623286
     42          1           0       -3.167736   -2.385443    1.295513
     43          1           0       -2.991015   -0.781861    2.002526
 ---------------------------------------------------------------------

 SCF Done:  E(UB3LYP) =  -842.398305305     A.U. after   33 cycles
 SCF Done:  E(UB3LYP) =  -842.398305305     a.u. after    1 cycles

 The electronic state is 2-A.
 Alpha  occ. eigenvalues --  -19.11871 -14.26922 -14.22537 -14.22045 -14.21914
 Alpha  occ. eigenvalues --  -10.18291 -10.14476 -10.12614 -10.11052 -10.10885
 Alpha  occ. eigenvalues --  -10.10849 -10.10829 -10.10784 -10.10271 -10.10042
 Alpha  occ. eigenvalues --  -10.07465 -10.07407 -10.07237 -10.07226  -1.06490
 Alpha  occ. eigenvalues --   -0.86763  -0.83975  -0.81298  -0.80694  -0.77138
 Alpha  occ. eigenvalues --   -0.68655  -0.67009  -0.63652  -0.63463  -0.61660
 Alpha  occ. eigenvalues --   -0.58957  -0.57784  -0.56160  -0.55461  -0.52461
 Alpha  occ. eigenvalues --   -0.49128  -0.47317  -0.42836  -0.41798  -0.40763
 Alpha  occ. eigenvalues --   -0.40395  -0.39195  -0.38681  -0.38063  -0.37408
 Alpha  occ. eigenvalues --   -0.36834  -0.35620  -0.34985  -0.33951  -0.33041
 Alpha  occ. eigenvalues --   -0.31544  -0.31275  -0.31039  -0.30388  -0.29783
 Alpha  occ. eigenvalues --   -0.29749  -0.29376  -0.29174  -0.28439  -0.27635
 Alpha  occ. eigenvalues --   -0.27183  -0.26922  -0.25935  -0.24775  -0.24556
 Alpha  occ. eigenvalues --   -0.23934  -0.22571  -0.20548  -0.18731  -0.16965
 Alpha  occ. eigenvalues --   -0.15180  -0.13622   0.03932
 Alpha virt. eigenvalues --    0.05035   0.05814   0.06736   0.07180   0.07393
 Alpha virt. eigenvalues --    0.07598   0.08002   0.09095   0.09493   0.09700
 Alpha virt. eigenvalues --    0.09825   0.10352   0.10510   0.10733   0.11338

  Beta  occ. eigenvalues --  -19.11812 -14.26853 -14.22530 -14.22054 -14.21906
  Beta  occ. eigenvalues --  -10.18224 -10.14453 -10.12614 -10.11047 -10.10876
  Beta  occ. eigenvalues --  -10.10835 -10.10812 -10.10763 -10.10274 -10.10031
  Beta  occ. eigenvalues --  -10.07434 -10.07371 -10.07218 -10.07205  -1.06393
  Beta  occ. eigenvalues --   -0.86739  -0.83932  -0.81274  -0.80648  -0.77054
  Beta  occ. eigenvalues --   -0.68625  -0.66968  -0.63626  -0.63413  -0.61614
  Beta  occ. eigenvalues --   -0.58900  -0.57746  -0.56072  -0.55432  -0.52415
  Beta  occ. eigenvalues --   -0.49086  -0.47276  -0.42752  -0.41762  -0.40714
  Beta  occ. eigenvalues --   -0.40243  -0.39153  -0.38639  -0.37999  -0.37374
  Beta  occ. eigenvalues --   -0.36797  -0.35584  -0.34939  -0.33899  -0.33022
  Beta  occ. eigenvalues --   -0.31511  -0.31244  -0.31009  -0.30340  -0.29747
  Beta  occ. eigenvalues --   -0.29713  -0.29349  -0.29147  -0.28410  -0.27604
  Beta  occ. eigenvalues --   -0.27153  -0.26894  -0.25908  -0.24691  -0.24495
  Beta  occ. eigenvalues --   -0.23780  -0.22355  -0.20521  -0.18687  -0.16829
  Beta  occ. eigenvalues --   -0.15127  -0.13595
  Beta virt. eigenvalues --    0.05821   0.06091   0.06408   0.07118   0.07491
  Beta virt. eigenvalues --    0.07743   0.07979   0.08313   0.09457   0.09694
  Beta virt. eigenvalues --    0.09933   0.10086   0.10440   0.10645   0.10836

 Mulliken charges and spin densities:
               1          2
     1  C    0.744310  -1.127239
     2  C   -0.821336   1.046154
     3  C    0.129022  -0.606465
     4  C   -0.567730   0.807594
     5  C    0.319878  -0.688838
     6  C   -0.180272  -0.390914
     7  C    0.066129  -0.694672
     8  N    0.107003   0.034061
     9  C    0.351587  -0.084857
    10  N   -0.203195   0.028524
    11  O    0.208800   0.014973
    12  C   -0.432422  -0.007217
    13  C   -0.198851  -0.512610
    14  N   -0.133313   0.098918
    15  C    0.097927  -0.531135
    16  C    0.253413  -0.381467
    17  N    0.163064   0.093854
    18  C   -0.093909  -0.222393
    19  C   -0.389670  -0.203791
    20  H   -0.362031   0.532407
    21  H    0.054944   0.089120
    22  H   -0.191985   0.323493
    23  H    0.262966   0.003266
    24  H   -0.165042   0.325858
    25  H   -0.023756   0.174505
    26  H   -0.216205   0.347220
    27  H    0.062820   0.074389
    28  H    0.010344   0.120375
    29  H   -0.037384   0.209980
    30  H    0.097048   0.091851
    31  H    0.172122   0.062891
    32  H    0.160482  -0.002770
    33  H    0.128835   0.106540
    34  H    0.220032  -0.075677
    35  H   -0.365984   0.559624
    36  H   -0.195920   0.350260
    37  H   -0.058645   0.170601
    38  H    0.069872   0.117654
    39  H    0.047943   0.066135
    40  H   -0.070498   0.211603
    41  H   -0.142579   0.323866
    42  H    0.075739   0.058036
    43  H    0.046445   0.086295
 Sum of Mulliken charges =  -1.00000   1.00000

 Dipole moment (field-independent basis, Debye):
    X=              2.4266    Y=             -0.3502    Z=              1.5514  Tot=              2.9014
 Quadrupole moment (field-independent basis, Debye-Ang):
   XX=           -251.3395   YY=           -154.8374   ZZ=           -154.0478
   XY=             -5.7364   XZ=             -0.8360   YZ=             -0.7922

 Summary of Natural Population Analysis:

                                       Natural Population
                Natural  -----------------------------------------------
    Atom  No    Charge         Core      Valence    Rydberg      Total
 -----------------------------------------------------------------------
      C    1   -0.28137      0.99962     2.27546    0.00628     3.28137
      C    2   -0.01875      0.99951     2.00748    0.01177     3.01875
      C    3   -0.14510      0.99947     2.13380    0.01183     3.14510
      C    4   -0.01931      0.99951     2.00750    0.01230     3.01931
      C    5   -0.28110      0.99962     2.27526    0.00622     3.28110
      C    6   -0.28791      0.99962     2.28203    0.00627     3.28791
      C    7    0.30130      0.99956     1.68047    0.01867     2.69870
      N    8   -0.26979      0.99967     2.76153    0.00858     3.76979
      C    9    0.17622      0.99960     1.80418    0.02000     2.82378
      N   10   -0.08499      0.99966     2.57386    0.01147     3.58499
      O   11   -0.17267      0.99985     3.16528    0.00753     4.17267
      C   12   -0.03210      0.99953     2.01991    0.01266     3.03210
      C   13   -0.08770      0.99960     2.07738    0.01072     3.08770
      N   14   -0.33200      0.99976     2.82005    0.01219     3.83200
      C   15   -0.09491      0.99962     2.08243    0.01286     3.09491
      C   16   -0.09400      0.99961     2.08173    0.01265     3.09400
      N   17   -0.27404      0.99970     2.76307    0.01127     3.77404
      C   18   -0.17787      0.99965     2.17001    0.00821     3.17787
      C   19   -0.28801      0.99962     2.28206    0.00633     3.28801
      H   20    0.10551      0.00000     0.39257    0.00192     0.39449
      H   21    0.10015      0.00000     0.39898    0.00088     0.39985
      H   22    0.10143      0.00000     0.39749    0.00108     0.39857
      H   23    0.11901      0.00000     0.37943    0.00157     0.38099
      H   24    0.10286      0.00000     0.39599    0.00116     0.39714
      H   25    0.10174      0.00000     0.39727    0.00098     0.39826
      H   26    0.10198      0.00000     0.39689    0.00113     0.39802
      H   27    0.10960      0.00000     0.38890    0.00150     0.39040
      H   28    0.10144      0.00000     0.39759    0.00096     0.39856
      H   29    0.10200      0.00000     0.39708    0.00092     0.39800
      H   30    0.09072      0.00000     0.40709    0.00219     0.40928
      H   31    0.10194      0.00000     0.39659    0.00148     0.39806
      H   32    0.09745      0.00000     0.40174    0.00081     0.40255
      H   33    0.16859      0.00000     0.32937    0.00204     0.33141
      H   34    0.09346      0.00000     0.40522    0.00132     0.40654
      H   35    0.09699      0.00000     0.40196    0.00105     0.40301
      H   36    0.09977      0.00000     0.39871    0.00152     0.40023
      H   37    0.07715      0.00000     0.42054    0.00231     0.42285
      H   38    0.10125      0.00000     0.39762    0.00113     0.39875
      H   39    0.08171      0.00000     0.41713    0.00116     0.41829
      H   40    0.09616      0.00000     0.40295    0.00089     0.40384
      H   41    0.10398      0.00000     0.39492    0.00110     0.39602
      H   42    0.09980      0.00000     0.39934    0.00086     0.40020
      H   43    0.10939      0.00000     0.38918    0.00143     0.39061
 =======================================================================
   * Total *    0.00000     18.99279    52.76803    0.23919    72.00000

 Normal termination of Gaussian 16 at Sun Dec 13 14:24:21 2020.
