 Gaussian 16, Revision A.03,

 -----------------------------------------------------------
 # opt freq B3LYP/6-31G(d) empiricaldispersion=gd3bj scf=xqc
 -----------------------------------------------------------

 -------------------------------
 CID_151363756_JID_5375_neutraal
 -------------------------------
 Symbolic Z-matrix:
 Charge =  0 Multiplicity = 1

 SCF Done:  E(RB3LYP) =  -1003.06638705     A.U. after   16 cycles
 SCF Done:  E(RB3LYP) =  -1003.06878940     A.U. after   15 cycles
 SCF Done:  E(RB3LYP) =  -1003.06962083     A.U. after   13 cycles
 SCF Done:  E(RB3LYP) =  -1003.07000870     A.U. after   13 cycles
 SCF Done:  E(RB3LYP) =  -1003.07010589     A.U. after   13 cycles
 SCF Done:  E(RB3LYP) =  -1003.07015770     A.U. after   13 cycles
 SCF Done:  E(RB3LYP) =  -1003.07018759     A.U. after   11 cycles
 SCF Done:  E(RB3LYP) =  -1003.07020577     A.U. after   12 cycles
 SCF Done:  E(RB3LYP) =  -1003.07021428     A.U. after   12 cycles
 SCF Done:  E(RB3LYP) =  -1003.07021599     A.U. after   10 cycles
 SCF Done:  E(RB3LYP) =  -1003.07021808     A.U. after    9 cycles
 SCF Done:  E(RB3LYP) =  -1003.07021854     A.U. after    9 cycles
 SCF Done:  E(RB3LYP) =  -1003.07021904     A.U. after    9 cycles
 SCF Done:  E(RB3LYP) =  -1003.07021936     A.U. after    9 cycles
 SCF Done:  E(RB3LYP) =  -1003.07021949     A.U. after    8 cycles
 SCF Done:  E(RB3LYP) =  -1003.07021951     A.U. after    8 cycles
 Optimization completed.
    -- Stationary point found.
 Normal termination of Gaussian 16 at Thu Dec 10 15:51:47 2020.

 --------------------------------------------------------------------
 #N Geom=AllCheck Guess=TCheck SCRF=Check GenChk RB3LYP/6-31G(d) Freq
 --------------------------------------------------------------------

 Structure from the checkpoint file:  "JID_5375.chk"
 -------------------------------
 CID_151363756_JID_5375_neutraal
 -------------------------------
 Charge =  0 Multiplicity = 1

 SCF Done:  E(RB3LYP) =  -1003.07021951     A.U. after    1 cycles

  Exact polarizability: 231.745  -2.883 180.796  -0.502   0.087  57.736
 Approx polarizability: 328.968  -7.219 376.504  -0.558   0.003  91.352

                      1                      2                      3
                      A                      A                      A
 Frequencies --     22.2973                26.8230                71.1035
 Red. masses --      2.1300                 1.3335                 4.5255
 Frc consts  --      0.0006                 0.0006                 0.0135
 IR Inten    --      0.1666                 0.1919                 0.7185

                      4                      5                      6
                      A                      A                      A
 Frequencies --     72.1173                76.0858               146.9114
 Red. masses --      8.0437                15.0774                 7.2326
 Frc consts  --      0.0246                 0.0514                 0.0920
 IR Inten    --      0.4911                 0.7453                 0.3103

                      7                      8                      9
                      A                      A                      A
 Frequencies --    180.1886               261.9411               280.4021
 Red. masses --      5.1361                 8.9989                 8.0691
 Frc consts  --      0.0983                 0.3638                 0.3738
 IR Inten    --      0.0681                 0.0139                 0.6979

                     10                     11                     12
                      A                      A                      A
 Frequencies --    302.8055               322.2508               383.4124
 Red. masses --      4.4320                 4.6160                 4.0964
 Frc consts  --      0.2394                 0.2824                 0.3548
 IR Inten    --      0.0807                 2.0581                 2.4537

                     13                     14                     15
                      A                      A                      A
 Frequencies --    411.1724               437.1190               489.1019
 Red. masses --      3.0174                 6.7972                14.2350
 Frc consts  --      0.3006                 0.7652                 2.0063
 IR Inten    --      0.0318                 1.3897                 0.4269

                     16                     17                     18
                      A                      A                      A
 Frequencies --    492.0245               532.4282               589.4244
 Red. masses --      3.2903                13.8488                 3.7395
 Frc consts  --      0.4693                 2.3130                 0.7655
 IR Inten    --      3.7594                11.4435                 8.8353

                     19                     20                     21
                      A                      A                      A
 Frequencies --    596.2267               649.4192               677.7539
 Red. masses --      5.6986                 7.4529                 3.3971
 Frc consts  --      1.1935                 1.8519                 0.9194
 IR Inten    --      2.4874                 4.8625                 0.0545

                     22                     23                     24
                      A                      A                      A
 Frequencies --    680.5828               714.5145               727.7619
 Red. masses --      9.7798                 1.8973                 2.8167
 Frc consts  --      2.6690                 0.5707                 0.8790
 IR Inten    --      8.6867                37.6756                 0.4802

                     25                     26                     27
                      A                      A                      A
 Frequencies --    781.8518               812.5979               830.5678
 Red. masses --     11.6722                 4.9756                 1.4661
 Frc consts  --      4.2039                 1.9358                 0.5959
 IR Inten    --     13.9428                 6.5030                24.2867

                     28                     29                     30
                      A                      A                      A
 Frequencies --    858.1052               865.0852               954.2410
 Red. masses --      1.2899                 4.1349                 1.3179
 Frc consts  --      0.5596                 1.8232                 0.7071
 IR Inten    --      8.0890                 6.6562                 0.1300

                     31                     32                     33
                      A                      A                      A
 Frequencies --    955.3463               987.3145              1013.2798
 Red. masses --      8.1362                 1.3048                 2.8089
 Frc consts  --      4.3752                 0.7494                 1.6992
 IR Inten    --     24.2731                 0.9066                14.5993

                     34                     35                     36
                      A                      A                      A
 Frequencies --   1027.6384              1045.7044              1074.6836
 Red. masses --      2.0704                 2.6487                 1.5338
 Frc consts  --      1.2882                 1.7065                 1.0437
 IR Inten    --     14.1410                 4.0318                15.0222

                     37                     38                     39
                      A                      A                      A
 Frequencies --   1135.9332              1157.9364              1222.4102
 Red. masses --      1.7460                 1.3031                 1.1488
 Frc consts  --      1.3274                 1.0294                 1.0115
 IR Inten    --     20.6126                 6.6994                13.2566

                     40                     41                     42
                      A                      A                      A
 Frequencies --   1248.5166              1281.3371              1310.6950
 Red. masses --      3.1894                 3.9143                 5.3067
 Frc consts  --      2.9292                 3.7865                 5.3713
 IR Inten    --      2.2747                50.5083                 6.2540

                     43                     44                     45
                      A                      A                      A
 Frequencies --   1351.1875              1356.9512              1387.0713
 Red. masses --      2.0171                 2.6445                11.1450
 Frc consts  --      2.1697                 2.8689                12.6336
 IR Inten    --     15.3511                 2.4822               125.2447

                     46                     47                     48
                      A                      A                      A
 Frequencies --   1442.5734              1458.9166              1516.0978
 Red. masses --      1.2462                 2.7352                 1.1192
 Frc consts  --      1.5280                 3.4300                 1.5157
 IR Inten    --      0.7295                10.4860                 8.0054

                     49                     50                     51
                      A                      A                      A
 Frequencies --   1518.0280              1527.5359              1564.4905
 Red. masses --      1.3443                 2.5308                 3.9147
 Frc consts  --      1.8252                 3.4793                 5.6454
 IR Inten    --     11.1815                 2.7419               182.9816

                     52                     53                     54
                      A                      A                      A
 Frequencies --   1577.8158              1627.9221              1673.6409
 Red. masses --      5.2984                 5.6993                 5.7139
 Frc consts  --      7.7716                 8.8989                 9.4299
 IR Inten    --    134.1370                 1.4599                15.5243

                     55                     56                     57
                      A                      A                      A
 Frequencies --   2286.4545              3043.6574              3100.9169
 Red. masses --     13.9938                 1.0404                 1.0960
 Frc consts  --     43.1035                 5.6784                 6.2092
 IR Inten    --    681.5672                32.6060                19.7334

                     58                     59                     60
                      A                      A                      A
 Frequencies --   3129.5900              3181.0047              3185.3046
 Red. masses --      1.1026                 1.0869                 1.0896
 Frc consts  --      6.3626                 6.4798                 6.5135
 IR Inten    --     15.0463                16.3631                18.1749

                     61                     62                     63
                      A                      A                      A
 Frequencies --   3197.8861              3230.0160              3296.6710
 Red. masses --      1.0944                 1.0924                 1.0950
 Frc consts  --      6.5938                 6.7148                 7.0113
 IR Inten    --     13.1133                 2.2299                 5.9595

 - Thermochemistry -
 -------------------
 Temperature   298.150 Kelvin.  Pressure   1.00000 Atm.
 Atom     1 has atomic number  6 and mass  12.00000

 Molecular mass:   216.04697 amu.
 Principal axes and moments of inertia in atomic units:
                           1         2         3
     Eigenvalues --  1665.098546205.891147859.72887
           X            0.99983  -0.01843  -0.00019
           Y            0.01843   0.99983   0.00016
           Z            0.00018  -0.00016   1.00000
 This molecule is an asymmetric top.
 Rotational symmetry number  1.
 Warning -- assumption of classical behavior for rotation
           may cause significant error
 Rotational temperatures (Kelvin)      0.05202     0.01396     0.01102
 Rotational constants (GHZ):           1.08386     0.29081     0.22962
 Zero-point vibrational energy     438795.3 (Joules/Mol)
                                  104.87459 (Kcal/Mol)
 Warning -- explicit consideration of  19 degrees of freedom as
           vibrations may cause significant error
 Vibrational temperatures:     32.08    38.59   102.30   103.76   109.47
          (Kelvin)            211.37   259.25   376.87   403.44   435.67
                              463.65   551.64   591.59   628.92   703.71
                              707.91   766.05   848.05   857.84   934.37
                              975.14   979.21  1028.03  1047.09  1124.91
                             1169.15  1195.00  1234.62  1244.66  1372.94
                             1374.53  1420.53  1457.88  1478.54  1504.54
                             1546.23  1634.35  1666.01  1758.78  1796.34
                             1843.56  1885.80  1944.06  1952.35  1995.69
                             2075.54  2099.06  2181.33  2184.10  2197.78
                             2250.95  2270.12  2342.22  2408.00  3289.70
                             4379.14  4461.53  4502.78  4576.76  4582.94
                             4601.04  4647.27  4743.17

 Zero-point correction=                           0.167128 (Hartree/Particle)
 Thermal correction to Energy=                    0.180309
 Thermal correction to Enthalpy=                  0.181253
 Thermal correction to Gibbs Free Energy=         0.124436
 Sum of electronic and zero-point Energies=          -1002.903091
 Sum of electronic and thermal Energies=             -1002.889911
 Sum of electronic and thermal Enthalpies=           -1002.888966
 Sum of electronic and thermal Free Energies=        -1002.945783

                     E (Thermal)             CV                S
                      KCal/Mol        Cal/Mol-Kelvin    Cal/Mol-Kelvin
 Total                  113.146             48.478            119.581
 Electronic               0.000              0.000              0.000
 Translational            0.889              2.981             42.014
 Rotational               0.889              2.981             32.763
 Vibrational            111.368             42.516             44.804
 Vibration     1          0.593              1.985              6.418
 Vibration     2          0.593              1.984              6.052
 Vibration     3          0.598              1.968              4.123
 Vibration     4          0.598              1.967              4.095
 Vibration     5          0.599              1.965              3.989
 Vibration     6          0.617              1.906              2.712
 Vibration     7          0.629              1.867              2.326
 Vibration     8          0.669              1.742              1.649
 Vibration     9          0.680              1.710              1.531
 Vibration    10          0.694              1.668              1.401
 Vibration    11          0.707              1.631              1.299
 Vibration    12          0.753              1.506              1.026
 Vibration    13          0.775              1.446              0.922
 Vibration    14          0.797              1.389              0.836
 Vibration    15          0.845              1.274              0.686
 Vibration    16          0.848              1.268              0.678
 Vibration    17          0.887              1.178              0.582
 Vibration    18          0.947              1.054              0.468
 Vibration    19          0.954              1.040              0.456

 Optimization completed on the basis of negligible forces.
    -- Stationary point found.
 Normal termination of Gaussian 16 at Thu Dec 10 15:58:04 2020.

 ----------------------------------------------------------------------
 # B3LYP/6-311++G(d,p) empiricaldispersion=gd3bj scf=xqc pop=npa geom=c
 heck
 ----------------------------------------------------------------------

 ---------------------------------------
 CID_151363756_JID_5375_Energie_neutraal
 ---------------------------------------
 Structure from the checkpoint file:  "JID_5375.chk"
 Charge =  0 Multiplicity = 1

 SCF Done:  E(RB3LYP) =  -1003.25095768     A.U. after   16 cycles
 Normal termination of Gaussian 16 at Thu Dec 10 16:00:35 2020.

 ----------------------------------------------------------------------
 # B3LYP/6-311++G(d,p) empiricaldispersion=gd3bj scf=xqc pop=npa geom=c
 heck
 ----------------------------------------------------------------------

 -------------------------------------
 CID_151363756_JID_5375_Energie_kation
 -------------------------------------
 Structure from the checkpoint file:  "JID_5375.chk"
 Charge =  1 Multiplicity = 2

 SCF Done:  E(UB3LYP) =  -1002.97014787     A.U. after   23 cycles
 Normal termination of Gaussian 16 at Thu Dec 10 16:05:01 2020.
 Gaussian 16:  ES64L-G16RevA.03 25-Dec-2016

 ----------------------------------------------------------------------
 # B3LYP/6-311++G(d,p) empiricaldispersion=gd3bj scf=xqc pop=npa geom=c
 heck
 ----------------------------------------------------------------------

 ------------------------------------
 CID_151363756_JID_5375_Energie_anion
 ------------------------------------
 Structure from the checkpoint file:  "JID_5375.chk"
 Charge = -1 Multiplicity = 2

                         Standard orientation:
 ---------------------------------------------------------------------
 Center     Atomic      Atomic             Coordinates (Angstroms)
 Number     Number       Type             X           Y           Z
 ---------------------------------------------------------------------
      1          6           0       -5.172268    0.933528    0.016623
      2          6           0       -3.718640    0.533921   -0.008288
      3          6           0       -3.338479   -0.813621   -0.009806
      4          6           0       -1.997498   -1.182898   -0.005720
      5          6           0       -0.990309   -0.207706   -0.002286
      6          6           0       -1.364423    1.146945   -0.004322
      7          6           0       -2.706141    1.504370   -0.008516
      8          6           0        0.430876   -0.554038   -0.000766
      9          7           0        1.398652    0.328068   -0.000537
     10          6           0        2.628495   -0.278117    0.002038
     11          6           0        2.633783   -1.647570    0.003886
     12         16           0        1.001484   -2.226552    0.002344
     13          7           0        3.812172    0.477619    0.002658
     14          7           0        3.675519    1.711662    0.000781
     15          7           0        3.703853    2.849339   -0.000731
     16          1           0       -5.816984    0.122099   -0.335007
     17          1           0       -5.492831    1.190935    1.034728
     18          1           0       -5.355836    1.811976   -0.611332
     19          1           0       -4.104254   -1.584855   -0.015463
     20          1           0       -1.737774   -2.238230   -0.009130
     21          1           0       -0.586684    1.902397   -0.006050
     22          1           0       -2.977033    2.557291   -0.013426
     23          1           0        3.483895   -2.312484    0.005918
 ---------------------------------------------------------------------

 SCF Done:  E(UB3LYP) =  -1003.26768843     A.U. after   24 cycles

 The electronic state is 2-A.
 Alpha  occ. eigenvalues --  -88.72678 -14.37547 -14.27552 -14.25613 -14.15542
 Alpha  occ. eigenvalues --  -10.10820 -10.07378 -10.05642 -10.04938 -10.03846
 Alpha  occ. eigenvalues --  -10.03641 -10.03549 -10.03397 -10.03167 -10.02858
 Alpha  occ. eigenvalues --   -7.81362  -5.77659  -5.77303  -5.76966  -1.03472
 Alpha  occ. eigenvalues --   -0.88352  -0.81361  -0.72335  -0.65941  -0.65339
 Alpha  occ. eigenvalues --   -0.62216  -0.60988  -0.56806  -0.50078  -0.48178
 Alpha  occ. eigenvalues --   -0.46533  -0.43552  -0.40389  -0.40128  -0.38508
 Alpha  occ. eigenvalues --   -0.36197  -0.34657  -0.33516  -0.32542  -0.30836
 Alpha  occ. eigenvalues --   -0.29861  -0.28701  -0.28490  -0.27364  -0.25833
 Alpha  occ. eigenvalues --   -0.23651  -0.23130  -0.21904  -0.20717  -0.20302
 Alpha  occ. eigenvalues --   -0.19089  -0.15234  -0.13743  -0.12570  -0.12016
 Alpha  occ. eigenvalues --   -0.07751   0.03876
 Alpha virt. eigenvalues --    0.07146   0.07830   0.09518   0.09632   0.09882
 Alpha virt. eigenvalues --    0.10697   0.10986   0.11658   0.12179   0.13008
 Alpha virt. eigenvalues --    0.13824   0.14966   0.15119   0.15378   0.15522

  Beta  occ. eigenvalues --  -88.72614 -14.37556 -14.27595 -14.25589 -14.15301
  Beta  occ. eigenvalues --  -10.10904 -10.07012 -10.05669 -10.04644 -10.03933
  Beta  occ. eigenvalues --  -10.03620 -10.03300 -10.03298 -10.02991 -10.02727
  Beta  occ. eigenvalues --   -7.81304  -5.77634  -5.77279  -5.76747  -1.03504
  Beta  occ. eigenvalues --   -0.88335  -0.80936  -0.72023  -0.65506  -0.64875
  Beta  occ. eigenvalues --   -0.62043  -0.60766  -0.56644  -0.49678  -0.47824
  Beta  occ. eigenvalues --   -0.46202  -0.43314  -0.40465  -0.40015  -0.38329
  Beta  occ. eigenvalues --   -0.36018  -0.34678  -0.33363  -0.32301  -0.30494
  Beta  occ. eigenvalues --   -0.29687  -0.28645  -0.27467  -0.27243  -0.25670
  Beta  occ. eigenvalues --   -0.23280  -0.22431  -0.21752  -0.20601  -0.20221
  Beta  occ. eigenvalues --   -0.18560  -0.13673  -0.13418  -0.11780  -0.11062
  Beta  occ. eigenvalues --   -0.06357
  Beta virt. eigenvalues --    0.07108   0.07767   0.09274   0.09600   0.09804
  Beta virt. eigenvalues --    0.09887   0.10640   0.11293   0.11912   0.12162
  Beta virt. eigenvalues --    0.12959   0.13797   0.15049   0.15106   0.15433

 Mulliken charges and spin densities:
               1          2
     1  C   -0.587271  -0.031452
     2  C    0.724285   0.184337
     3  C   -0.841643  -0.040148
     4  C   -0.563836   0.180209
     5  C    0.917852   0.006084
     6  C   -0.349524   0.150030
     7  C   -0.505194  -0.027814
     8  C   -0.003225   0.180014
     9  N    0.045107   0.118673
    10  C   -0.726777  -0.068354
    11  C    0.392696   0.223207
    12  S   -0.511816   0.121849
    13  N    0.027988   0.023490
    14  N    0.118593  -0.016742
    15  N   -0.119858  -0.017946
    16  H    0.119543   0.002492
    17  H    0.105893   0.036342
    18  H    0.111798   0.009685
    19  H    0.108589   0.004039
    20  H    0.059402  -0.016569
    21  H    0.152410  -0.007279
    22  H    0.119540   0.001974
    23  H    0.205446  -0.016122
 Sum of Mulliken charges =  -1.00000   1.00000

 Dipole moment (field-independent basis, Debye):
    X=             -0.9976    Y=             -0.6871    Z=             -0.0356  Tot=              1.2119
 Quadrupole moment (field-independent basis, Debye-Ang):
   XX=           -134.7023   YY=           -113.1516   ZZ=           -104.3823
   XY=             -3.4727   XZ=              0.3312   YZ=             -0.0816

 Summary of Natural Population Analysis:

                                       Natural Population
                Natural  -----------------------------------------------
    Atom  No    Charge         Core      Valence    Rydberg      Total
 -----------------------------------------------------------------------
      C    1   -0.29219      0.99965     2.28818    0.00436     3.29219
      C    2    0.03186      0.99952     1.96032    0.00830     2.96814
      C    3   -0.13288      0.99954     2.12431    0.00903     3.13288
      C    4   -0.04752      0.99945     2.04029    0.00778     3.04752
      C    5   -0.04125      0.99936     2.02902    0.01286     3.04125
      C    6   -0.05499      0.99956     2.04642    0.00902     3.05499
      C    7   -0.12475      0.99953     2.11674    0.00848     3.12475
      C    8    0.10683      0.99957     1.87767    0.01593     2.89317
      N    9   -0.23929      0.99962     2.72817    0.01151     3.73929
      C   10    0.10889      0.99943     1.87654    0.01514     2.89111
      C   11   -0.16724      0.99949     2.15804    0.00971     3.16724
      S   12    0.18752      4.99947     2.79137    0.02165     7.81248
      N   13   -0.16456      0.99963     2.65124    0.01369     3.66456
      N   14    0.12254      0.99971     2.36082    0.01693     3.37746
      N   15   -0.06587      0.99981     2.55189    0.01417     3.56587
      H   16    0.09529      0.00000     0.40381    0.00090     0.40471
      H   17    0.09961      0.00000     0.39936    0.00104     0.40039
      H   18    0.09710      0.00000     0.40197    0.00093     0.40290
      H   19    0.08955      0.00000     0.40936    0.00110     0.41045
      H   20    0.09396      0.00000     0.40443    0.00161     0.40604
      H   21    0.10497      0.00000     0.39374    0.00130     0.39503
      H   22    0.08985      0.00000     0.40911    0.00104     0.41015
      H   23    0.10259      0.00000     0.39636    0.00105     0.39741
 =======================================================================
   * Total *    0.00000     18.99334    36.81914    0.18753    56.00000

 Normal termination of Gaussian 16 at Thu Dec 10 16:11:16 2020.
