 Gaussian 16, Revision A.03,

 -----------------------------------------------------------
 # opt freq B3LYP/6-31G(d) empiricaldispersion=gd3bj scf=xqc
 -----------------------------------------------------------

 -------------------------------
 CID_103537646_JID_3075_neutraal
 -------------------------------
 Symbolic Z-matrix:
 Charge =  0 Multiplicity = 1

 SCF Done:  E(RB3LYP) =  -598.920964159     A.U. after   13 cycles
 SCF Done:  E(RB3LYP) =  -598.925884511     A.U. after   11 cycles
 SCF Done:  E(RB3LYP) =  -598.926436771     A.U. after   10 cycles
 SCF Done:  E(RB3LYP) =  -598.926497856     A.U. after   10 cycles
 SCF Done:  E(RB3LYP) =  -598.926655137     A.U. after   10 cycles
 SCF Done:  E(RB3LYP) =  -598.926668709     A.U. after    9 cycles
 SCF Done:  E(RB3LYP) =  -598.926669630     A.U. after    8 cycles
 SCF Done:  E(RB3LYP) =  -598.926672142     A.U. after    8 cycles
 SCF Done:  E(RB3LYP) =  -598.926673280     A.U. after    7 cycles
 SCF Done:  E(RB3LYP) =  -598.926673806     A.U. after    7 cycles
 SCF Done:  E(RB3LYP) =  -598.926674062     A.U. after    6 cycles
 SCF Done:  E(RB3LYP) =  -598.926674115     A.U. after    6 cycles
 Optimization completed.
    -- Stationary point found.
 Normal termination of Gaussian 16 at Wed Dec  9 22:24:48 2020.

 --------------------------------------------------------------------
 #N Geom=AllCheck Guess=TCheck SCRF=Check GenChk RB3LYP/6-31G(d) Freq
 --------------------------------------------------------------------

 Structure from the checkpoint file:  "JID_3075.chk"
 -------------------------------
 CID_103537646_JID_3075_neutraal
 -------------------------------
 Charge =  0 Multiplicity = 1

 SCF Done:  E(RB3LYP) =  -598.926674115     A.U. after    1 cycles

  Exact polarizability: 127.757  -5.209 117.141  -1.467   0.460 102.559
 Approx polarizability: 163.473  -2.585 163.971  -2.585   1.690 153.386

                      1                      2                      3
                      A                      A                      A
 Frequencies --     43.9980                50.9237                77.7337
 Red. masses --      3.5885                 3.4909                 2.6002
 Frc consts  --      0.0041                 0.0053                 0.0093
 IR Inten    --      0.1600                 1.3482                 0.1163

                      4                      5                      6
                      A                      A                      A
 Frequencies --    102.3785               125.4348               137.8834
 Red. masses --      3.0322                 2.1528                 1.8755
 Frc consts  --      0.0187                 0.0200                 0.0210
 IR Inten    --      0.9409                 0.2453                 3.0635

                      7                      8                      9
                      A                      A                      A
 Frequencies --    204.3350               217.2041               238.1424
 Red. masses --      2.5252                 1.4906                 1.6305
 Frc consts  --      0.0621                 0.0414                 0.0545
 IR Inten    --      4.2297                 0.1427                 2.0402

                     10                     11                     12
                      A                      A                      A
 Frequencies --    245.6634               260.3255               281.2008
 Red. masses --      1.7948                 1.3998                 2.8864
 Frc consts  --      0.0638                 0.0559                 0.1345
 IR Inten    --      1.0472                 0.2927                 0.6369

                     13                     14                     15
                      A                      A                      A
 Frequencies --    317.6568               372.4062               377.1697
 Red. masses --      2.3647                 2.3132                 2.9763
 Frc consts  --      0.1406                 0.1890                 0.2495
 IR Inten    --      0.9769                 1.8195                 2.8942

                     16                     17                     18
                      A                      A                      A
 Frequencies --    420.8383               446.8113               460.2762
 Red. masses --      2.0331                 3.6672                 2.8719
 Frc consts  --      0.2122                 0.4314                 0.3585
 IR Inten    --      0.4103                12.2317                 2.7179

                     19                     20                     21
                      A                      A                      A
 Frequencies --    474.9166               539.2328               584.0922
 Red. masses --      2.5311                 2.9287                 2.3008
 Frc consts  --      0.3364                 0.5017                 0.4625
 IR Inten    --      3.1638                 3.0956                 5.3227

                     22                     23                     24
                      A                      A                      A
 Frequencies --    617.5079               650.8370               720.2648
 Red. masses --      1.5389                 1.5540                 2.9116
 Frc consts  --      0.3457                 0.3878                 0.8900
 IR Inten    --     47.7625                42.6533                 6.0963

                     25                     26                     27
                      A                      A                      A
 Frequencies --    760.8748               797.4162               806.5714
 Red. masses --      2.0170                 2.7806                 2.0741
 Frc consts  --      0.6880                 1.0417                 0.7950
 IR Inten    --      5.5521                14.9586                 1.5664

                     28                     29                     30
                      A                      A                      A
 Frequencies --    850.9380               886.7315               933.7992
 Red. masses --      1.5868                 2.0327                 1.7190
 Frc consts  --      0.6770                 0.9417                 0.8831
 IR Inten    --      6.8235                 2.9982                 4.1884

                     31                     32                     33
                      A                      A                      A
 Frequencies --    943.7094               965.6331               982.5034
 Red. masses --      1.9262                 2.0987                 2.5218
 Frc consts  --      1.0107                 1.1530                 1.4343
 IR Inten    --      4.2036                22.7712                 8.6760

                     34                     35                     36
                      A                      A                      A
 Frequencies --    992.2625              1028.4751              1055.4205
 Red. masses --      2.5680                 2.0258                 1.8712
 Frc consts  --      1.4897                 1.2625                 1.2280
 IR Inten    --     37.9967                19.0367                14.9736

                     37                     38                     39
                      A                      A                      A
 Frequencies --   1059.6874              1067.9257              1088.0080
 Red. masses --      2.3191                 2.2820                 2.3704
 Frc consts  --      1.5343                 1.5334                 1.6533
 IR Inten    --      0.2881                11.9885                24.4435

                     40                     41                     42
                      A                      A                      A
 Frequencies --   1112.7563              1118.1308              1143.2453
 Red. masses --      2.4402                 2.1469                 2.1634
 Frc consts  --      1.7802                 1.5814                 1.6660
 IR Inten    --     55.6561                 9.9261                46.2701

                     43                     44                     45
                      A                      A                      A
 Frequencies --   1162.1488              1171.0938              1188.4070
 Red. masses --      2.4485                 2.0737                 1.2809
 Frc consts  --      1.9484                 1.6756                 1.0659
 IR Inten    --     35.7135                26.0810                 2.8454

                     46                     47                     48
                      A                      A                      A
 Frequencies --   1209.6858              1225.5182              1236.3534
 Red. masses --      2.7861                 1.4523                 1.5693
 Frc consts  --      2.4021                 1.2851                 1.4134
 IR Inten    --      7.2445                 0.6845                16.9476

                     49                     50                     51
                      A                      A                      A
 Frequencies --   1256.0801              1285.9999              1313.8183
 Red. masses --      1.4408                 1.2311                 1.5264
 Frc consts  --      1.3394                 1.1995                 1.5523
 IR Inten    --     45.0078                 8.8255                 5.4959

                     52                     53                     54
                      A                      A                      A
 Frequencies --   1329.2074              1332.0190              1341.4239
 Red. masses --      1.2512                 1.1753                 1.2987
 Frc consts  --      1.3025                 1.2286                 1.3768
 IR Inten    --      7.2040                34.4181                 3.7136

                     55                     56                     57
                      A                      A                      A
 Frequencies --   1346.1013              1363.5026              1371.3684
 Red. masses --      1.3669                 1.3035                 1.2535
 Frc consts  --      1.4593                 1.4278                 1.3890
 IR Inten    --     45.0883                 9.4209                 2.7245

                     58                     59                     60
                      A                      A                      A
 Frequencies --   1385.7003              1401.2184              1413.8215
 Red. masses --      1.3966                 1.3578                 1.2428
 Frc consts  --      1.5800                 1.5708                 1.4637
 IR Inten    --     26.0424                22.7827                 1.4956

                     61                     62                     63
                      A                      A                      A
 Frequencies --   1432.4261              1442.5650              1446.5231
 Red. masses --      1.2414                 1.2621                 1.3554
 Frc consts  --      1.5008                 1.5475                 1.6710
 IR Inten    --      9.4181                 2.3038                13.4536

                     64                     65                     66
                      A                      A                      A
 Frequencies --   1476.2077              1502.3273              1510.6249
 Red. masses --      1.5275                 1.1401                 1.0783
 Frc consts  --      1.9612                 1.5160                 1.4497
 IR Inten    --     52.8608                 0.6432                 0.2832

                     67                     68                     69
                      A                      A                      A
 Frequencies --   1518.2086              1524.9682              1527.4677
 Red. masses --      1.0638                 1.0736                 1.0635
 Frc consts  --      1.4446                 1.4710                 1.4619
 IR Inten    --      3.9008                 1.0391                 8.0001

                     70                     71                     72
                      A                      A                      A
 Frequencies --   1530.4154              1532.9870              1534.2747
 Red. masses --      1.0664                 1.0509                 1.0531
 Frc consts  --      1.4715                 1.4551                 1.4606
 IR Inten    --      5.0758                12.0294                 2.9159

                     73                     74                     75
                      A                      A                      A
 Frequencies --   1539.6316              1543.5946              1560.9574
 Red. masses --      1.0637                 1.0846                 1.0654
 Frc consts  --      1.4857                 1.5227                 1.5295
 IR Inten    --     10.6968                10.8712                 3.6626

                     76                     77                     78
                      A                      A                      A
 Frequencies --   2942.1374              3006.2202              3016.3344
 Red. masses --      1.0814                 1.0468                 1.0702
 Frc consts  --      5.5155                 5.5736                 5.7370
 IR Inten    --     61.9583                32.8479                54.1944

                     79                     80                     81
                      A                      A                      A
 Frequencies --   3035.1604              3044.6689              3054.3880
 Red. masses --      1.0755                 1.0381                 1.0994
 Frc consts  --      5.8373                 5.6697                 6.0429
 IR Inten    --     37.2000                26.1989                29.6073

                     82                     83                     84
                      A                      A                      A
 Frequencies --   3060.5029              3060.7891              3070.9425
 Red. masses --      1.0755                 1.0605                 1.0376
 Frc consts  --      5.9351                 5.8537                 5.7654
 IR Inten    --     38.5513                22.2401                13.1733

                     85                     86                     87
                      A                      A                      A
 Frequencies --   3078.5511              3088.3212              3088.9487
 Red. masses --      1.0623                 1.1001                 1.0860
 Frc consts  --      5.9316                 6.1820                 6.1055
 IR Inten    --     30.7026                 3.9198                37.6068

                     88                     89                     90
                      A                      A                      A
 Frequencies --   3110.8950              3118.6545              3126.3077
 Red. masses --      1.1023                 1.1012                 1.1029
 Frc consts  --      6.2851                 6.3104                 6.3511
 IR Inten    --     58.1455                54.4205                47.7192

                     91                     92                     93
                      A                      A                      A
 Frequencies --   3134.8068              3135.2002              3141.3089
 Red. masses --      1.0978                 1.1007                 1.0953
 Frc consts  --      6.3562                 6.3743                 6.3678
 IR Inten    --     51.8788                18.6804                18.3424

                     94                     95                     96
                      A                      A                      A
 Frequencies --   3147.1806              3171.2971              3585.4156
 Red. masses --      1.1023                 1.0901                 1.0639
 Frc consts  --      6.4326                 6.4594                 8.0577
 IR Inten    --     17.0817                19.6001                97.0820

 - Thermochemistry -
 -------------------
 Temperature   298.150 Kelvin.  Pressure   1.00000 Atm.
 Atom     1 has atomic number  6 and mass  12.00000

 Molecular mass:   187.15723 amu.
 Principal axes and moments of inertia in atomic units:
                           1         2         3
     Eigenvalues --  1602.011173427.792314075.20719
           X            0.99949  -0.03155  -0.00453
           Y            0.03152   0.99947  -0.00781
           Z            0.00477   0.00766   0.99996
 This molecule is an asymmetric top.
 Rotational symmetry number  1.
 Warning -- assumption of classical behavior for rotation
           may cause significant error
 Rotational temperatures (Kelvin)      0.05407     0.02527     0.02125
 Rotational constants (GHZ):           1.12655     0.52650     0.44286
 Zero-point vibrational energy     817862.9 (Joules/Mol)
                                  195.47393 (Kcal/Mol)
 Warning -- explicit consideration of  22 degrees of freedom as
           vibrations may cause significant error
 Vibrational temperatures:     63.30    73.27   111.84   147.30   180.47
          (Kelvin)            198.38   293.99   312.51   342.63   353.45
                              374.55   404.59   457.04   535.81   542.66
                              605.49   642.86   662.23   683.30   775.84
                              840.38   888.46   936.41  1036.30  1094.73
                             1147.30  1160.48  1224.31  1275.81  1343.53
                             1357.79  1389.33  1413.60  1427.64  1479.75
                             1518.51  1524.65  1536.51  1565.40  1601.01
                             1608.74  1644.88  1672.07  1684.94  1709.85
                             1740.47  1763.25  1778.84  1807.22  1850.27
                             1890.29  1912.43  1916.48  1930.01  1936.74
                             1961.78  1973.09  1993.71  2016.04  2034.17
                             2060.94  2075.53  2081.22  2123.93  2161.51
                             2173.45  2184.36  2194.09  2197.69  2201.93
                             2205.63  2207.48  2215.19  2220.89  2245.87
                             4233.08  4325.28  4339.83  4366.92  4380.60
                             4394.58  4403.38  4403.79  4418.40  4429.35
                             4443.41  4444.31  4475.88  4487.05  4498.06
                             4510.29  4510.85  4519.64  4528.09  4562.79
                             5158.61

 Zero-point correction=                           0.311508 (Hartree/Particle)
 Thermal correction to Energy=                    0.325841
 Thermal correction to Enthalpy=                  0.326785
 Thermal correction to Gibbs Free Energy=         0.270501
 Sum of electronic and zero-point Energies=           -598.615167
 Sum of electronic and thermal Energies=              -598.600833
 Sum of electronic and thermal Enthalpies=            -598.599889
 Sum of electronic and thermal Free Energies=         -598.656173

                     E (Thermal)             CV                S
                      KCal/Mol        Cal/Mol-Kelvin    Cal/Mol-Kelvin
 Total                  204.468             54.840            118.459
 Electronic               0.000              0.000              0.000
 Translational            0.889              2.981             41.586
 Rotational               0.889              2.981             31.482
 Vibrational            202.691             48.878             45.391
 Vibration     1          0.595              1.980              5.070
 Vibration     2          0.595              1.977              4.781
 Vibration     3          0.599              1.964              3.947
 Vibration     4          0.604              1.947              3.409
 Vibration     5          0.610              1.928              3.015
 Vibration     6          0.614              1.915              2.833
 Vibration     7          0.640              1.834              2.094
 Vibration     8          0.646              1.815              1.982
 Vibration     9          0.656              1.782              1.817
 Vibration    10          0.660              1.770              1.761
 Vibration    11          0.668              1.745              1.660
 Vibration    12          0.681              1.708              1.526
 Vibration    13          0.704              1.640              1.322
 Vibration    14          0.744              1.529              1.070
 Vibration    15          0.748              1.519              1.050
 Vibration    16          0.783              1.425              0.889
 Vibration    17          0.806              1.368              0.805
 Vibration    18          0.818              1.338              0.765
 Vibration    19          0.832              1.306              0.724
 Vibration    20          0.894              1.163              0.567
 Vibration    21          0.941              1.066              0.478
 Vibration    22          0.977              0.995              0.421

 Optimization completed.
    -- Stationary point found.
 Normal termination of Gaussian 16 at Wed Dec  9 22:34:57 2020.

 ----------------------------------------------------------------------
 # B3LYP/6-311++G(d,p) empiricaldispersion=gd3bj scf=xqc pop=npa geom=c
 heck
 ----------------------------------------------------------------------

 ---------------------------------------
 CID_103537646_JID_3075_Energie_neutraal
 ---------------------------------------
 Structure from the checkpoint file:  "JID_3075.chk"
 Charge =  0 Multiplicity = 1

 SCF Done:  E(RB3LYP) =  -599.107099016     A.U. after   14 cycles
 Normal termination of Gaussian 16 at Wed Dec  9 22:39:05 2020.

 ----------------------------------------------------------------------
 # B3LYP/6-311++G(d,p) empiricaldispersion=gd3bj scf=xqc pop=npa geom=c
 heck
 ----------------------------------------------------------------------

 -------------------------------------
 CID_103537646_JID_3075_Energie_kation
 -------------------------------------
 Structure from the checkpoint file:  "JID_3075.chk"
 Charge =  1 Multiplicity = 2

 SCF Done:  E(UB3LYP) =  -598.807420398     A.U. after   23 cycles
 Normal termination of Gaussian 16 at Wed Dec  9 22:50:02 2020.
 Gaussian 16:  ES64L-G16RevA.03 25-Dec-2016

 ----------------------------------------------------------------------
 # B3LYP/6-311++G(d,p) empiricaldispersion=gd3bj scf=xqc pop=npa geom=c
 heck
 ----------------------------------------------------------------------

 ------------------------------------
 CID_103537646_JID_3075_Energie_anion
 ------------------------------------
 Structure from the checkpoint file:  "JID_3075.chk"
 Charge = -1 Multiplicity = 2

                         Standard orientation:
 ---------------------------------------------------------------------
 Center     Atomic      Atomic             Coordinates (Angstroms)
 Number     Number       Type             X           Y           Z
 ---------------------------------------------------------------------
      1          6           0       -2.797114    2.058014    0.347520
      2          6           0       -3.104993    0.636963   -0.131657
      3          6           0       -1.880257   -0.115561   -0.645049
      4          6           0       -0.721511   -0.290273    0.372545
      5          6           0       -1.204946   -0.952961    1.660862
      6          7           0        0.301018   -1.103744   -0.341167
      7          6           0        1.289657   -1.828173    0.476723
      8          6           0        2.379203   -0.802034    0.814262
      9          6           0        2.504331   -0.012425   -0.508243
     10          6           0        1.150392   -0.297349   -1.243808
     11          8           0        2.873497    1.356024   -0.392146
     12          6           0        1.989753    2.215150    0.294598
     13          8           0       -2.299392   -1.394971   -1.087933
     14          1           0       -2.164600    2.060793    1.242674
     15          1           0       -3.718342    2.595851    0.594724
     16          1           0       -2.275294    2.633644   -0.427324
     17          1           0       -3.581222    0.054473    0.664976
     18          1           0       -3.828071    0.670241   -0.955119
     19          1           0       -1.478839    0.462706   -1.497714
     20          1           0       -0.326481    0.704778    0.626656
     21          1           0       -1.605199   -1.950680    1.458170
     22          1           0       -0.410525   -1.029870    2.408392
     23          1           0       -2.004010   -0.354341    2.105846
     24          1           0        1.711252   -2.627613   -0.148223
     25          1           0        0.831533   -2.305823    1.341298
     26          1           0        2.036693   -0.149898    1.624961
     27          1           0        3.328268   -1.248467    1.123979
     28          1           0        3.322484   -0.430013   -1.101955
     29          1           0        0.648627    0.623421   -1.545935
     30          1           0        1.347205   -0.870218   -2.157039
     31          1           0        1.010398    2.297868   -0.199540
     32          1           0        1.823398    1.912655    1.338328
     33          1           0        2.460914    3.201319    0.292658
     34          1           0       -1.455243   -1.881154   -1.187538
 ---------------------------------------------------------------------

 SCF Done:  E(UB3LYP) =  -599.094120063     A.U. after   27 cycles

 The electronic state is 2-A.
 Alpha  occ. eigenvalues --  -19.02828 -19.01047 -14.21452 -10.12452 -10.11625
 Alpha  occ. eigenvalues --  -10.11090 -10.10373 -10.09663 -10.09548 -10.06811
 Alpha  occ. eigenvalues --  -10.06666 -10.06335 -10.06180  -0.93884  -0.92044
 Alpha  occ. eigenvalues --   -0.83624  -0.70427  -0.67537  -0.64092  -0.63304
 Alpha  occ. eigenvalues --   -0.58380  -0.57618  -0.54403  -0.49138  -0.47488
 Alpha  occ. eigenvalues --   -0.44886  -0.41803  -0.41279  -0.39579  -0.38369
 Alpha  occ. eigenvalues --   -0.37463  -0.35760  -0.34922  -0.33821  -0.32489
 Alpha  occ. eigenvalues --   -0.32213  -0.29703  -0.28840  -0.28715  -0.28259
 Alpha  occ. eigenvalues --   -0.27120  -0.26879  -0.26657  -0.25945  -0.25464
 Alpha  occ. eigenvalues --   -0.24410  -0.23788  -0.21638  -0.21035  -0.17107
 Alpha  occ. eigenvalues --   -0.16596  -0.12823   0.04328
 Alpha virt. eigenvalues --    0.06236   0.07296   0.07452   0.08600   0.09122
 Alpha virt. eigenvalues --    0.09554   0.09642   0.10211   0.11019   0.11495
 Alpha virt. eigenvalues --    0.11975   0.12652   0.12967   0.13351   0.13995

  Beta  occ. eigenvalues --  -19.02823 -19.01043 -14.21454 -10.12443 -10.11620
  Beta  occ. eigenvalues --  -10.11049 -10.10364 -10.09651 -10.09523 -10.06802
  Beta  occ. eigenvalues --  -10.06638 -10.06297 -10.06151  -0.93867  -0.92034
  Beta  occ. eigenvalues --   -0.83613  -0.70401  -0.67508  -0.64055  -0.63261
  Beta  occ. eigenvalues --   -0.58324  -0.57567  -0.54343  -0.49084  -0.47430
  Beta  occ. eigenvalues --   -0.44847  -0.41780  -0.41240  -0.39550  -0.38342
  Beta  occ. eigenvalues --   -0.37432  -0.35729  -0.34888  -0.33786  -0.32464
  Beta  occ. eigenvalues --   -0.32181  -0.29674  -0.28809  -0.28680  -0.28226
  Beta  occ. eigenvalues --   -0.27076  -0.26844  -0.26610  -0.25916  -0.25439
  Beta  occ. eigenvalues --   -0.24378  -0.23762  -0.21620  -0.21004  -0.17090
  Beta  occ. eigenvalues --   -0.16580  -0.12811
  Beta virt. eigenvalues --    0.06591   0.07187   0.07948   0.08087   0.09086
  Beta virt. eigenvalues --    0.09641   0.09871   0.10001   0.10608   0.11595
  Beta virt. eigenvalues --    0.11899   0.12123   0.12904   0.13496   0.13654

 Mulliken charges and spin densities:
               1          2
     1  C    0.350117  -0.974555
     2  C   -0.537765   0.373497
     3  C    0.784978  -0.627345
     4  C   -1.955348   1.060590
     5  C    0.493064  -1.090243
     6  N    0.212663   0.047789
     7  C    0.219769  -0.484055
     8  C    0.927487  -1.038147
     9  C   -1.396372   0.893404
    10  C    0.697857  -0.887165
    11  O   -0.075710   0.003450
    12  C    0.528776  -0.877363
    13  O   -0.182740   0.001082
    14  H   -0.405669   0.565981
    15  H   -0.405226   0.554978
    16  H   -0.092088   0.228354
    17  H    0.114502   0.037508
    18  H    0.092367   0.076760
    19  H    0.073391   0.100753
    20  H    1.277426  -1.106216
    21  H   -0.006584   0.200412
    22  H   -0.308468   0.459952
    23  H    0.053256   0.099729
    24  H   -0.254307   0.405773
    25  H   -0.071965   0.244917
    26  H    0.120353   0.037573
    27  H   -0.497621   0.689365
    28  H   -0.241927   0.459893
    29  H   -0.008065   0.143408
    30  H   -0.049725   0.225130
    31  H    0.001127   0.134824
    32  H   -0.411494   0.540512
    33  H   -0.341396   0.506775
    34  H    0.295337  -0.007321
 Sum of Mulliken charges =  -1.00000   1.00000

 Dipole moment (field-independent basis, Debye):
    X=             -1.5843    Y=             -1.6076    Z=             -2.4119  Tot=              3.3033
 Quadrupole moment (field-independent basis, Debye-Ang):
   XX=           -148.4540   YY=           -135.6398   ZZ=           -122.2540
   XY=              5.6969   XZ=             -2.2227   YZ=             -3.2002

 Summary of Natural Population Analysis:

                                       Natural Population
                Natural  -----------------------------------------------
    Atom  No    Charge         Core      Valence    Rydberg      Total
 -----------------------------------------------------------------------
      C    1   -0.28843      0.99966     2.28352    0.00524     3.28843
      C    2   -0.19730      0.99962     2.18800    0.00968     3.19730
      C    3    0.06571      0.99953     1.92088    0.01389     2.93429
      C    4   -0.02106      0.99956     2.00777    0.01373     3.02106
      C    5   -0.29800      0.99964     2.29072    0.00764     3.29800
      N    6   -0.29758      0.99973     2.78369    0.01416     3.79758
      C    7   -0.08465      0.99962     2.07327    0.01177     3.08465
      C    8   -0.21548      0.99961     2.20753    0.00834     3.21548
      C    9    0.06290      0.99953     1.92257    0.01499     2.93710
      C   10   -0.10251      0.99960     2.09215    0.01077     3.10251
      O   11   -0.29814      0.99988     3.28806    0.01020     4.29814
      C   12   -0.10063      0.99960     2.09155    0.00949     3.10063
      O   13   -0.38119      0.99989     3.37534    0.00595     4.38119
      H   14    0.09917      0.00000     0.39936    0.00147     0.40083
      H   15    0.09962      0.00000     0.39947    0.00091     0.40038
      H   16    0.09761      0.00000     0.40101    0.00138     0.40239
      H   17    0.09776      0.00000     0.40106    0.00117     0.40224
      H   18    0.09947      0.00000     0.39948    0.00105     0.40053
      H   19    0.07399      0.00000     0.42403    0.00198     0.42601
      H   20    0.09248      0.00000     0.40382    0.00370     0.40752
      H   21    0.10428      0.00000     0.39450    0.00121     0.39572
      H   22    0.10306      0.00000     0.39584    0.00110     0.39694
      H   23    0.10547      0.00000     0.39367    0.00086     0.39453
      H   24    0.09331      0.00000     0.40524    0.00144     0.40669
      H   25    0.10397      0.00000     0.39480    0.00123     0.39603
      H   26    0.10099      0.00000     0.39724    0.00177     0.39901
      H   27    0.10563      0.00000     0.39264    0.00172     0.39437
      H   28    0.09211      0.00000     0.40621    0.00169     0.40789
      H   29    0.10229      0.00000     0.39634    0.00137     0.39771
      H   30    0.09736      0.00000     0.40150    0.00114     0.40264
      H   31    0.07769      0.00000     0.42056    0.00175     0.42231
      H   32    0.08071      0.00000     0.41754    0.00175     0.41929
      H   33    0.09194      0.00000     0.40693    0.00113     0.40806
      H   34    0.23744      0.00000     0.25949    0.00306     0.26256
 =======================================================================
   * Total *    0.00000     12.99546    38.83578    0.16875    52.00000

 Normal termination of Gaussian 16 at Wed Dec  9 23:02:32 2020.
