 Gaussian 16, Revision A.03,

 -----------------------------------------------------------
 # opt freq B3LYP/6-31G(d) empiricaldispersion=gd3bj scf=xqc
 -----------------------------------------------------------

 -------------------------------
 CID_131227910_JID_1432_neutraal
 -------------------------------
 Symbolic Z-matrix:
 Charge =  0 Multiplicity = 1

 SCF Done:  E(RB3LYP) =  -589.671463443     A.U. after   15 cycles
 SCF Done:  E(RB3LYP) =  -589.675932628     A.U. after   14 cycles
 SCF Done:  E(RB3LYP) =  -589.676853360     A.U. after   14 cycles
 SCF Done:  E(RB3LYP) =  -589.677279299     A.U. after   13 cycles
 SCF Done:  E(RB3LYP) =  -589.678670657     A.U. after   13 cycles
 SCF Done:  E(RB3LYP) =  -589.678881309     A.U. after   13 cycles
 SCF Done:  E(RB3LYP) =  -589.679057999     A.U. after   12 cycles
 SCF Done:  E(RB3LYP) =  -589.679191132     A.U. after   12 cycles
 SCF Done:  E(RB3LYP) =  -589.679252375     A.U. after   12 cycles
 SCF Done:  E(RB3LYP) =  -589.679288288     A.U. after   11 cycles
 SCF Done:  E(RB3LYP) =  -589.679434015     A.U. after    7 cycles
 SCF Done:  E(RB3LYP) =  -589.679434043     A.U. after    7 cycles
 SCF Done:  E(RB3LYP) =  -589.679434077     A.U. after    6 cycles
 SCF Done:  E(RB3LYP) =  -589.679434112     A.U. after    6 cycles
 SCF Done:  E(RB3LYP) =  -589.679434135     A.U. after    7 cycles
 Optimization completed.
    -- Stationary point found.
 Normal termination of Gaussian 16 at Tue Dec  8 20:04:20 2020.

 --------------------------------------------------------------------
 #N Geom=AllCheck Guess=TCheck SCRF=Check GenChk RB3LYP/6-31G(d) Freq
 --------------------------------------------------------------------

 Structure from the checkpoint file:  "JID_1432.chk"
 -------------------------------
 CID_131227910_JID_1432_neutraal
 -------------------------------
 Charge =  0 Multiplicity = 1

 SCF Done:  E(RB3LYP) =  -589.679434135     A.U. after    1 cycles

  Exact polarizability:  77.952  -3.058  93.720  -4.572   5.591  69.704
 Approx polarizability:  97.901  -8.459 157.295 -10.043  24.104 113.155

                      1                      2                      3
                      A                      A                      A
 Frequencies --     47.1663                48.9685                62.4057
 Red. masses --      3.1890                 3.2651                 2.0438
 Frc consts  --      0.0042                 0.0046                 0.0047
 IR Inten    --      1.5166                 0.1441                 3.7742

                      4                      5                      6
                      A                      A                      A
 Frequencies --     89.1283                92.9535               111.8127
 Red. masses --      1.3777                 1.3999                 4.9449
 Frc consts  --      0.0064                 0.0071                 0.0364
 IR Inten    --      0.2516                 0.6796                 1.6095

                      7                      8                      9
                      A                      A                      A
 Frequencies --    174.5354               217.2030               242.3842
 Red. masses --      6.4244                 5.4339                 3.1780
 Frc consts  --      0.1153                 0.1510                 0.1100
 IR Inten    --      0.8526                 1.2182                16.3494

                     10                     11                     12
                      A                      A                      A
 Frequencies --    298.7464               306.1106               373.6715
 Red. masses --      5.5183                 2.9490                 4.2660
 Frc consts  --      0.2902                 0.1628                 0.3510
 IR Inten    --      7.0515                 3.3542                 1.7191

                     13                     14                     15
                      A                      A                      A
 Frequencies --    417.2273               459.5339               532.2151
 Red. masses --      1.9745                 3.5561                 4.6883
 Frc consts  --      0.2025                 0.4424                 0.7824
 IR Inten    --     30.0927                38.1359                10.1676

                     16                     17                     18
                      A                      A                      A
 Frequencies --    544.6654               571.3897               602.5874
 Red. masses --      1.9325                 4.2066                 2.9024
 Frc consts  --      0.3378                 0.8092                 0.6209
 IR Inten    --     64.8685                25.7928                17.9110

                     19                     20                     21
                      A                      A                      A
 Frequencies --    647.6106               721.1542               772.7320
 Red. masses --      4.2861                 5.0860                 3.2802
 Frc consts  --      1.0591                 1.5584                 1.1540
 IR Inten    --     19.5173                22.7286                 1.8108

                     22                     23                     24
                      A                      A                      A
 Frequencies --    869.3327               974.0651               996.7704
 Red. masses --      3.9534                 3.0870                 2.2293
 Frc consts  --      1.7603                 1.7257                 1.3050
 IR Inten    --     10.9639                33.7211                17.7767

                     25                     26                     27
                      A                      A                      A
 Frequencies --   1023.8405              1058.3284              1067.2435
 Red. masses --      2.3952                 2.8195                 1.6413
 Frc consts  --      1.4793                 1.8607                 1.1014
 IR Inten    --     10.8739               123.2624                 2.2793

                     28                     29                     30
                      A                      A                      A
 Frequencies --   1076.9997              1093.7859              1131.6181
 Red. masses --      1.7607                 3.9649                 2.9687
 Frc consts  --      1.2033                 2.7948                 2.2399
 IR Inten    --      8.5575                82.6915                46.1434

                     31                     32                     33
                      A                      A                      A
 Frequencies --   1277.8092              1294.3913              1339.3612
 Red. masses --      2.1439                 1.5655                 2.5837
 Frc consts  --      2.0624                 1.5454                 2.7307
 IR Inten    --    130.4127               156.4691                 6.2756

                     34                     35                     36
                      A                      A                      A
 Frequencies --   1395.6684              1412.8414              1423.5928
 Red. masses --      1.3645                 1.3780                 1.2863
 Frc consts  --      1.5660                 1.6206                 1.5359
 IR Inten    --      9.9027               111.0573                13.6873

                     37                     38                     39
                      A                      A                      A
 Frequencies --   1425.9680              1494.8766              1500.2260
 Red. masses --      1.4094                 1.0892                 1.0637
 Frc consts  --      1.6886                 1.4341                 1.4105
 IR Inten    --     66.4305                13.4936                13.7140

                     40                     41                     42
                      A                      A                      A
 Frequencies --   1504.4956              1506.5989              1513.8227
 Red. masses --      1.0509                 1.0872                 1.0521
 Frc consts  --      1.4014                 1.4539                 1.4206
 IR Inten    --      7.4185                21.1450                 9.6776

                     43                     44                     45
                      A                      A                      A
 Frequencies --   1710.4984              1791.8951              1823.6922
 Red. masses --      7.0857                12.0553                10.7993
 Frc consts  --     12.2146                22.8063                21.1616
 IR Inten    --     10.1988               132.3453               191.6935

                     46                     47                     48
                      A                      A                      A
 Frequencies --   3066.9908              3072.6578              3095.7362
 Red. masses --      1.0381                 1.0381                 1.0566
 Frc consts  --      5.7532                 5.7748                 5.9658
 IR Inten    --      5.0175                 1.6302                13.0156

                     49                     50                     51
                      A                      A                      A
 Frequencies --   3124.1312              3138.4872              3152.8235
 Red. masses --      1.0994                 1.0987                 1.1094
 Frc consts  --      6.3224                 6.3765                 6.4974
 IR Inten    --      7.6037                 5.6908                 7.2342

                     52                     53                     54
                      A                      A                      A
 Frequencies --   3181.6857              3186.5827              3745.5984
 Red. masses --      1.1012                 1.1039                 1.0676
 Frc consts  --      6.5680                 6.6044                 8.8251
 IR Inten    --      1.5090                 5.5556                77.0225

 - Thermochemistry -
 -------------------
 Temperature   298.150 Kelvin.  Pressure   1.00000 Atm.
 Atom     1 has atomic number  6 and mass  12.00000

 Molecular mass:   159.05316 amu.
 Principal axes and moments of inertia in atomic units:
                           1         2         3
     Eigenvalues --  1289.394621968.041712530.01864
           X            0.99940  -0.02996  -0.01721
           Y            0.02952   0.99925  -0.02524
           Z            0.01795   0.02472   0.99953
 This molecule is an asymmetric top.
 Rotational symmetry number  1.
 Warning -- assumption of classical behavior for rotation
           may cause significant error
 Rotational temperatures (Kelvin)      0.06717     0.04401     0.03423
 Rotational constants (GHZ):           1.39968     0.91702     0.71333
 Zero-point vibrational energy     405573.6 (Joules/Mol)
                                   96.93443 (Kcal/Mol)
 Warning -- explicit consideration of  18 degrees of freedom as
           vibrations may cause significant error
 Vibrational temperatures:     67.86    70.45    89.79   128.24   133.74
          (Kelvin)            160.87   251.12   312.51   348.74   429.83
                              440.42   537.63   600.30   661.17   765.74
                              783.65   822.10   866.99   931.77  1037.58
                             1111.79  1250.78  1401.46  1434.13  1473.08
                             1522.70  1535.53  1549.56  1573.71  1628.15
                             1838.48  1862.34  1927.04  2008.06  2032.76
                             2048.23  2051.65  2150.79  2158.49  2164.63
                             2167.66  2178.05  2461.03  2578.14  2623.89
                             4412.72  4420.87  4454.07  4494.93  4515.58
                             4536.21  4577.74  4584.78  5389.08

 Zero-point correction=                           0.154475 (Hartree/Particle)
 Thermal correction to Energy=                    0.166814
 Thermal correction to Enthalpy=                  0.167758
 Thermal correction to Gibbs Free Energy=         0.114693
 Sum of electronic and zero-point Energies=           -589.524959
 Sum of electronic and thermal Energies=              -589.512620
 Sum of electronic and thermal Enthalpies=            -589.511676
 Sum of electronic and thermal Free Energies=         -589.564741

                     E (Thermal)             CV                S
                      KCal/Mol        Cal/Mol-Kelvin    Cal/Mol-Kelvin
 Total                  104.677             42.157            111.684
 Electronic               0.000              0.000              0.000
 Translational            0.889              2.981             41.101
 Rotational               0.889              2.981             30.241
 Vibrational            102.900             36.196             40.342
 Vibration     1          0.595              1.979              4.933
 Vibration     2          0.595              1.978              4.859
 Vibration     3          0.597              1.972              4.380
 Vibration     4          0.602              1.957              3.679
 Vibration     5          0.602              1.954              3.597
 Vibration     6          0.607              1.940              3.237
 Vibration     7          0.627              1.874              2.386
 Vibration     8          0.646              1.815              1.982
 Vibration     9          0.659              1.775              1.785
 Vibration    10          0.692              1.676              1.424
 Vibration    11          0.696              1.662              1.383
 Vibration    12          0.745              1.526              1.065
 Vibration    13          0.780              1.433              0.901
 Vibration    14          0.817              1.340              0.767
 Vibration    15          0.887              1.179              0.582
 Vibration    16          0.900              1.151              0.555
 Vibration    17          0.928              1.093              0.502
 Vibration    18          0.961              1.026              0.445

 Optimization completed.
    -- Stationary point found.
 Normal termination of Gaussian 16 at Tue Dec  8 20:08:08 2020.

 ----------------------------------------------------------------------
 # B3LYP/6-311++G(d,p) empiricaldispersion=gd3bj scf=xqc pop=npa geom=c
 heck
 ----------------------------------------------------------------------

 ---------------------------------------
 CID_131227910_JID_1432_Energie_neutraal
 ---------------------------------------
 Structure from the checkpoint file:  "JID_1432.chk"
 Charge =  0 Multiplicity = 1

 SCF Done:  E(RB3LYP) =  -589.864815628     A.U. after   15 cycles
 Normal termination of Gaussian 16 at Tue Dec  8 20:09:45 2020.

 ----------------------------------------------------------------------
 # B3LYP/6-311++G(d,p) empiricaldispersion=gd3bj scf=xqc pop=npa geom=c
 heck
 ----------------------------------------------------------------------

 -------------------------------------
 CID_131227910_JID_1432_Energie_kation
 -------------------------------------
 Structure from the checkpoint file:  "JID_1432.chk"
 Charge =  1 Multiplicity = 2

 SCF Done:  E(UB3LYP) =  -589.514958287     A.U. after   33 cycles
 SCF Done:  E(UB3LYP) =  -589.515406855     a.u. after    8 cycles
 Normal termination of Gaussian 16 at Tue Dec  8 20:51:14 2020.
 Gaussian 16:  ES64L-G16RevA.03 25-Dec-2016

 ----------------------------------------------------------------------
 # B3LYP/6-311++G(d,p) empiricaldispersion=gd3bj scf=xqc pop=npa geom=c
 heck
 ----------------------------------------------------------------------

 ------------------------------------
 CID_131227910_JID_1432_Energie_anion
 ------------------------------------
 Structure from the checkpoint file:  "JID_1432.chk"
 Charge = -1 Multiplicity = 2

                         Standard orientation:
 ---------------------------------------------------------------------
 Center     Atomic      Atomic             Coordinates (Angstroms)
 Number     Number       Type             X           Y           Z
 ---------------------------------------------------------------------
      1          6           0       -2.379908   -0.092137    1.124116
      2          6           0       -1.352000   -0.065654    0.035441
      3          7           0       -1.040898   -1.052458   -0.728617
      4          8           0       -1.785239   -2.190864   -0.420016
      5          6           0       -0.647860    1.220460   -0.269449
      6          8           0       -1.126604    2.282563    0.082407
      7          6           0        0.619249    1.228307   -1.129286
      8          8           0        1.539426    0.147067   -0.927184
      9          6           0        1.873744   -0.095476    0.359210
     10          8           0        1.421513    0.533753    1.292104
     11          6           0        2.829749   -1.254856    0.458666
     12          1           0       -2.039735   -0.735778    1.943177
     13          1           0       -3.319707   -0.511231    0.751166
     14          1           0       -2.544570    0.918449    1.498464
     15          1           0       -1.477405   -2.828754   -1.083747
     16          1           0        0.341069    1.159253   -2.183890
     17          1           0        1.113980    2.184443   -0.941426
     18          1           0        2.300292   -2.175508    0.189183
     19          1           0        3.659374   -1.133530   -0.243395
     20          1           0        3.202396   -1.334158    1.480098
 ---------------------------------------------------------------------

 SCF Done:  E(UB3LYP) =  -589.870545320     A.U. after   31 cycles

 The electronic state is 2-A.
 Alpha  occ. eigenvalues --  -19.03580 -19.01785 -18.98459 -18.92480 -14.18567
 Alpha  occ. eigenvalues --  -10.17639 -10.08796 -10.07040 -10.06639 -10.03943
 Alpha  occ. eigenvalues --  -10.02385  -0.97947  -0.93916  -0.89239  -0.86846
 Alpha  occ. eigenvalues --   -0.71367  -0.65072  -0.58579  -0.57635  -0.48714
 Alpha  occ. eigenvalues --   -0.44337  -0.38285  -0.36682  -0.35681  -0.35660
 Alpha  occ. eigenvalues --   -0.34215  -0.32177  -0.30968  -0.29833  -0.28769
 Alpha  occ. eigenvalues --   -0.27735  -0.27007  -0.25108  -0.24479  -0.23847
 Alpha  occ. eigenvalues --   -0.22844  -0.21381  -0.18157  -0.15312  -0.12971
 Alpha  occ. eigenvalues --   -0.11528  -0.08845   0.05190
 Alpha virt. eigenvalues --    0.07615   0.09029   0.10357   0.10819   0.11517
 Alpha virt. eigenvalues --    0.11972   0.12540   0.13757   0.14117   0.14903
 Alpha virt. eigenvalues --    0.15771   0.16934   0.18336   0.18589   0.18836

  Beta  occ. eigenvalues --  -19.03555 -19.01680 -18.98452 -18.91967 -14.17969
  Beta  occ. eigenvalues --  -10.17613 -10.08818 -10.06694 -10.06616 -10.03917
  Beta  occ. eigenvalues --  -10.02387  -0.97901  -0.93465  -0.89209  -0.85923
  Beta  occ. eigenvalues --   -0.70790  -0.65000  -0.58435  -0.57335  -0.47984
  Beta  occ. eigenvalues --   -0.44173  -0.38121  -0.36538  -0.35601  -0.35290
  Beta  occ. eigenvalues --   -0.33900  -0.32014  -0.30731  -0.29261  -0.28574
  Beta  occ. eigenvalues --   -0.27423  -0.26857  -0.24916  -0.23732  -0.23524
  Beta  occ. eigenvalues --   -0.22536  -0.19411  -0.18018  -0.14990  -0.12376
  Beta  occ. eigenvalues --   -0.09731  -0.08373
  Beta virt. eigenvalues --    0.07789   0.09259   0.10436   0.10860   0.11507
  Beta virt. eigenvalues --    0.12088   0.12243   0.12920   0.13868   0.14264
  Beta virt. eigenvalues --    0.14806   0.15806   0.16834   0.18240   0.18485

 Mulliken charges and spin densities:
               1          2
     1  C   -0.516346  -0.105552
     2  C    0.328561   0.019686
     3  N   -0.390925   0.257787
     4  O   -0.064163   0.016522
     5  C   -0.059732   0.218309
     6  O   -0.394184   0.175543
     7  C   -0.170062  -0.199240
     8  O    0.019865   0.020037
     9  C   -0.710518   0.655096
    10  O   -0.206364   0.001248
    11  C    0.649971  -1.111539
    12  H    0.147790   0.005253
    13  H    0.091525   0.047964
    14  H    0.174852   0.001964
    15  H    0.102231   0.152349
    16  H   -0.040063   0.225559
    17  H    0.195174  -0.017728
    18  H   -0.143609   0.321394
    19  H   -0.045556   0.197689
    20  H    0.031552   0.117658
 Sum of Mulliken charges =  -1.00000   1.00000

 Dipole moment (field-independent basis, Debye):
    X=              1.9102    Y=             -1.5067    Z=             -0.4171  Tot=              2.4684
 Quadrupole moment (field-independent basis, Debye-Ang):
   XX=            -87.2038   YY=            -92.2119   ZZ=            -79.3066
   XY=              4.8039   XZ=             -0.6814   YZ=             -2.6893

 Summary of Natural Population Analysis:

                                       Natural Population
                Natural  -----------------------------------------------
    Atom  No    Charge         Core      Valence    Rydberg      Total
 -----------------------------------------------------------------------
      C    1   -0.31429      0.99963     2.30917    0.00549     3.31429
      C    2    0.05783      0.99958     1.92464    0.01795     2.94217
      N    3   -0.00616      0.99959     2.49135    0.01522     3.50616
      O    4   -0.29000      0.99990     3.28248    0.00763     4.29000
      C    5    0.29348      0.99962     1.68300    0.02390     2.70652
      O    6   -0.25409      0.99987     3.24819    0.00602     4.25409
      C    7   -0.05403      0.99952     2.04043    0.01409     3.05403
      O    8   -0.27525      0.99986     3.26618    0.00921     4.27525
      C    9    0.40781      0.99972     1.56652    0.02595     2.59219
      O   10   -0.30018      0.99987     3.29479    0.00552     4.30018
      C   11   -0.33262      0.99962     2.32777    0.00524     3.33262
      H   12    0.10302      0.00000     0.39592    0.00107     0.39698
      H   13    0.10237      0.00000     0.39639    0.00124     0.39763
      H   14    0.11237      0.00000     0.38661    0.00102     0.38763
      H   15    0.22739      0.00000     0.26836    0.00425     0.27261
      H   16    0.10053      0.00000     0.39766    0.00181     0.39947
      H   17    0.09250      0.00000     0.40617    0.00133     0.40750
      H   18    0.11676      0.00000     0.38156    0.00168     0.38324
      H   19    0.10701      0.00000     0.39190    0.00109     0.39299
      H   20    0.10557      0.00000     0.39357    0.00086     0.39443
 =======================================================================
   * Total *   -0.00000     10.99679    30.85266    0.15055    42.00000

 Normal termination of Gaussian 16 at Tue Dec  8 20:58:15 2020.
