 Gaussian 16, Revision A.03,

 -----------------------------------------------------------
 # opt freq B3LYP/6-31G(d) empiricaldispersion=gd3bj scf=xqc
 -----------------------------------------------------------

 -------------------------------
 CID_116862636_JID_9073_neutraal
 -------------------------------
 Symbolic Z-matrix:
 Charge =  0 Multiplicity = 1

 SCF Done:  E(RB3LYP) =  -800.316003395     A.U. after   15 cycles
 SCF Done:  E(RB3LYP) =  -800.321722346     A.U. after   13 cycles
 SCF Done:  E(RB3LYP) =  -800.324537935     A.U. after   13 cycles
 SCF Done:  E(RB3LYP) =  -800.325724058     A.U. after   13 cycles
 SCF Done:  E(RB3LYP) =  -800.325903100     A.U. after   12 cycles
 SCF Done:  E(RB3LYP) =  -800.326023268     A.U. after   11 cycles
 SCF Done:  E(RB3LYP) =  -800.326042352     A.U. after   10 cycles
 SCF Done:  E(RB3LYP) =  -800.326047710     A.U. after    9 cycles
 SCF Done:  E(RB3LYP) =  -800.326051257     A.U. after    9 cycles
 SCF Done:  E(RB3LYP) =  -800.326051924     A.U. after    8 cycles
 SCF Done:  E(RB3LYP) =  -800.326052070     A.U. after    8 cycles
 SCF Done:  E(RB3LYP) =  -800.326052124     A.U. after    7 cycles
 SCF Done:  E(RB3LYP) =  -800.326052141     A.U. after    6 cycles
 Optimization completed.
    -- Stationary point found.
 Normal termination of Gaussian 16 at Sun Dec 13 20:09:55 2020.

 --------------------------------------------------------------------
 #N Geom=AllCheck Guess=TCheck SCRF=Check GenChk RB3LYP/6-31G(d) Freq
 --------------------------------------------------------------------

 Structure from the checkpoint file:  "JID_9073.chk"
 -------------------------------
 CID_116862636_JID_9073_neutraal
 -------------------------------
 Charge =  0 Multiplicity = 1

 SCF Done:  E(RB3LYP) =  -800.326052141     A.U. after    1 cycles

  Exact polarizability: 296.754  -3.021 194.908  14.828   5.412  90.456
 Approx polarizability: 384.158  -5.818 349.086  29.196  16.066 136.982

                      1                      2                      3
                      A                      A                      A
 Frequencies --     23.6313                36.2366                52.0541
 Red. masses --      3.7336                 4.5337                 2.9734
 Frc consts  --      0.0012                 0.0035                 0.0047
 IR Inten    --      0.9211                 0.6737                 0.4610

                      4                      5                      6
                      A                      A                      A
 Frequencies --     56.9885                93.7208                99.0802
 Red. masses --      3.8177                 5.5037                 5.4763
 Frc consts  --      0.0073                 0.0285                 0.0317
 IR Inten    --      0.5260                 1.7608                 0.8546

                      7                      8                      9
                      A                      A                      A
 Frequencies --    130.4414               157.7340               188.3801
 Red. masses --      5.9453                 5.1099                 5.0790
 Frc consts  --      0.0596                 0.0749                 0.1062
 IR Inten    --      3.1508                 2.1705                 0.9856

                     10                     11                     12
                      A                      A                      A
 Frequencies --    209.5448               231.4615               243.8945
 Red. masses --      5.9214                 1.1945                 2.0567
 Frc consts  --      0.1532                 0.0377                 0.0721
 IR Inten    --      4.2326                 0.0322                 1.1751

                     13                     14                     15
                      A                      A                      A
 Frequencies --    257.2006               306.4717               320.9272
 Red. masses --      1.3836                 2.8871                 3.7542
 Frc consts  --      0.0539                 0.1598                 0.2278
 IR Inten    --      0.1129                 0.8295                 0.6638

                     16                     17                     18
                      A                      A                      A
 Frequencies --    339.0353               358.9413               381.6111
 Red. masses --      1.2463                 3.0523                 2.9443
 Frc consts  --      0.0844                 0.2317                 0.2526
 IR Inten    --    321.4313                 0.7309                 1.5102

                     19                     20                     21
                      A                      A                      A
 Frequencies --    395.8867               419.1344               424.1060
 Red. masses --      4.6030                 3.0517                 2.5071
 Frc consts  --      0.4250                 0.3159                 0.2657
 IR Inten    --      5.6634                 0.0519                 1.8854

                     22                     23                     24
                      A                      A                      A
 Frequencies --    427.0544               454.0993               490.9590
 Red. masses --      2.7531                 4.3861                 2.6943
 Frc consts  --      0.2958                 0.5329                 0.3826
 IR Inten    --      0.7306                 3.9191                18.2027

                     25                     26                     27
                      A                      A                      A
 Frequencies --    493.8458               537.1005               573.3619
 Red. masses --      1.7007                 2.8807                 6.8154
 Frc consts  --      0.2444                 0.4896                 1.3201
 IR Inten    --     18.3824                 9.3819                 5.3703

                     28                     29                     30
                      A                      A                      A
 Frequencies --    629.6036               648.6856               659.2405
 Red. masses --      5.9297                 4.9860                 6.7325
 Frc consts  --      1.3849                 1.2361                 1.7239
 IR Inten    --      0.9876                 3.2714                 1.3602

                     31                     32                     33
                      A                      A                      A
 Frequencies --    686.9716               692.8954               752.1254
 Red. masses --      8.0642                 3.8414                 3.7977
 Frc consts  --      2.2423                 1.0866                 1.2657
 IR Inten    --      7.1275                 1.8415                 0.8520

                     34                     35                     36
                      A                      A                      A
 Frequencies --    793.1645               825.1849               836.9452
 Red. masses --      2.4645                 2.9950                 3.6142
 Frc consts  --      0.9135                 1.2016                 1.4916
 IR Inten    --     20.9644                 3.4952                 1.6325

                     37                     38                     39
                      A                      A                      A
 Frequencies --    846.9439               865.0552               882.5742
 Red. masses --      2.0745                 1.2546                 1.8643
 Frc consts  --      0.8767                 0.5531                 0.8556
 IR Inten    --     40.0093                 0.0647                12.3708

                     40                     41                     42
                      A                      A                      A
 Frequencies --    901.8777               906.3676               944.1350
 Red. masses --      2.8830                 2.1400                 1.1937
 Frc consts  --      1.3816                 1.0358                 0.6269
 IR Inten    --     11.2947                 4.7215                 2.6694

                     43                     44                     45
                      A                      A                      A
 Frequencies --    965.5986               980.0871               984.3639
 Red. masses --      1.9895                 1.4891                 1.3352
 Frc consts  --      1.0929                 0.8428                 0.7623
 IR Inten    --      0.4684                 0.0467                 0.0629

                     46                     47                     48
                      A                      A                      A
 Frequencies --    995.0794               995.4810              1021.1904
 Red. masses --      1.3810                 5.9627                 5.1561
 Frc consts  --      0.8057                 3.4815                 3.1680
 IR Inten    --      0.2696                 0.3847                16.7380

                     49                     50                     51
                      A                      A                      A
 Frequencies --   1043.5054              1075.5352              1107.9565
 Red. masses --      2.8272                 1.6611                 1.4649
 Frc consts  --      1.8138                 1.1321                 1.0595
 IR Inten    --     10.9507                 5.9512                 5.7805

                     52                     53                     54
                      A                      A                      A
 Frequencies --   1147.8875              1156.3811              1180.1496
 Red. masses --      2.0291                 1.3811                 2.3779
 Frc consts  --      1.5753                 1.0881                 1.9513
 IR Inten    --      1.6819                 8.0077                10.9347

                     55                     56                     57
                      A                      A                      A
 Frequencies --   1204.9567              1205.6467              1223.0181
 Red. masses --      1.7269                 1.5407                 1.5097
 Frc consts  --      1.4773                 1.3195                 1.3304
 IR Inten    --     24.5082                21.0147                19.1682

                     58                     59                     60
                      A                      A                      A
 Frequencies --   1241.9525              1260.0403              1307.9545
 Red. masses --      2.6083                 1.5199                 6.9506
 Frc consts  --      2.3704                 1.4218                 7.0058
 IR Inten    --      1.3519                 2.4016                43.8113

                     61                     62                     63
                      A                      A                      A
 Frequencies --   1329.8991              1343.7510              1367.1399
 Red. masses --      1.3467                 1.5251                 3.0651
 Frc consts  --      1.4033                 1.6225                 3.3753
 IR Inten    --      5.8418                 0.1257                 2.6543

                     64                     65                     66
                      A                      A                      A
 Frequencies --   1387.1204              1390.0433              1424.2306
 Red. masses --      1.4688                 1.4798                 5.1296
 Frc consts  --      1.6651                 1.6847                 6.1305
 IR Inten    --      0.8348                 7.0947               230.5050

                     67                     68                     69
                      A                      A                      A
 Frequencies --   1430.5108              1439.6937              1449.2886
 Red. masses --      1.2887                 3.9764                 1.2373
 Frc consts  --      1.5538                 4.8560                 1.5312
 IR Inten    --      3.4765               225.3994                 4.2558

                     70                     71                     72
                      A                      A                      A
 Frequencies --   1463.7446              1493.6784              1513.4165
 Red. masses --      3.4463                 4.0205                 1.0866
 Frc consts  --      4.3505                 5.2849                 1.4664
 IR Inten    --     28.0194                 2.0358                 1.6645

                     73                     74                     75
                      A                      A                      A
 Frequencies --   1519.7080              1526.3724              1534.5611
 Red. masses --      1.0455                 1.0695                 1.0521
 Frc consts  --      1.4226                 1.4681                 1.4598
 IR Inten    --      1.4462                 1.6367                 3.7520

                     76                     77                     78
                      A                      A                      A
 Frequencies --   1540.8539              1563.8852              1599.2349
 Red. masses --      1.0513                 2.7090                 7.8502
 Frc consts  --      1.4706                 3.9037                11.8292
 IR Inten    --      9.6961                12.2311               435.6473

                     79                     80                     81
                      A                      A                      A
 Frequencies --   1617.6326              1634.8930              1672.2840
 Red. masses --      3.8579                 5.0682                 3.6832
 Frc consts  --      5.9479                 7.9815                 6.0686
 IR Inten    --    189.5040                59.3645               142.9047

                     82                     83                     84
                      A                      A                      A
 Frequencies --   1677.7588              2366.0572              3019.5218
 Red. masses --      1.9236                12.6892                 1.0823
 Frc consts  --      3.1903                41.8537                 5.8140
 IR Inten    --    331.8888                 0.6441                 6.8310

                     85                     86                     87
                      A                      A                      A
 Frequencies --   3033.0096              3037.6679              3043.9069
 Red. masses --      1.0566                 1.0374                 1.0405
 Frc consts  --      5.7269                 5.6399                 5.6803
 IR Inten    --     22.0493                41.7841                42.8317

                     88                     89                     90
                      A                      A                      A
 Frequencies --   3074.1079              3100.8758              3106.6492
 Red. masses --      1.1038                 1.1007                 1.1006
 Frc consts  --      6.1460                 6.2357                 6.2586
 IR Inten    --     18.2253                10.2302                53.3545

                     91                     92                     93
                      A                      A                      A
 Frequencies --   3112.1382              3128.4750              3179.0970
 Red. masses --      1.1019                 1.1009                 1.0893
 Frc consts  --      6.2881                 6.3485                 6.4865
 IR Inten    --     49.1070                38.0759                20.4518

                     94                     95                     96
                      A                      A                      A
 Frequencies --   3186.6321              3230.0772              3232.1469
 Red. masses --      1.0896                 1.0932                 1.0914
 Frc consts  --      6.5190                 6.7203                 6.7177
 IR Inten    --     19.1710                 1.2198                 3.8262

                     97                     98                     99
                      A                      A                      A
 Frequencies --   3234.9724              3594.7129              3714.4043
 Red. masses --      1.0920                 1.0460                 1.1032
 Frc consts  --      6.7333                 7.9639                 8.9677
 IR Inten    --      1.3694                75.7435                36.8892

 - Thermochemistry -
 -------------------
 Temperature   298.150 Kelvin.  Pressure   1.00000 Atm.
 Atom     1 has atomic number  6 and mass  12.00000

 Molecular mass:   252.13750 amu.
 Principal axes and moments of inertia in atomic units:
                           1         2         3
     Eigenvalues --  2073.53990********************
           X            0.99991   0.01320  -0.00376
           Y           -0.01322   0.99990  -0.00400
           Z            0.00371   0.00405   0.99998
 This molecule is an asymmetric top.
 Rotational symmetry number  1.
 Warning -- assumption of classical behavior for rotation
           may cause significant error
 Rotational temperatures (Kelvin)      0.04177     0.00727     0.00646
 Rotational constants (GHZ):           0.87037     0.15139     0.13451
 Zero-point vibrational energy     753561.3 (Joules/Mol)
                                  180.10547 (Kcal/Mol)
 Warning -- explicit consideration of  27 degrees of freedom as
           vibrations may cause significant error
 Vibrational temperatures:     34.00    52.14    74.89    81.99   134.84
          (Kelvin)            142.55   187.68   226.94   271.04   301.49
                              333.02   350.91   370.05   440.94   461.74
                              487.80   516.44   549.05   569.59   603.04
                              610.19   614.44   653.35   706.38   710.53
                              772.77   824.94   905.86   933.31   948.50
                              988.40   996.92  1082.14  1141.19  1187.26
                             1204.18  1218.56  1244.62  1269.83  1297.60
                             1304.06  1358.40  1389.28  1410.13  1416.28
                             1431.70  1432.28  1469.27  1501.37  1547.46
                             1594.10  1651.55  1663.77  1697.97  1733.66
                             1734.66  1759.65  1786.89  1812.92  1881.85
                             1913.43  1933.36  1967.01  1995.76  1999.96
                             2049.15  2058.19  2071.40  2085.20  2106.00
                             2149.07  2177.47  2186.52  2196.11  2207.89
                             2216.95  2250.08  2300.94  2327.41  2352.25
                             2406.04  2413.92  3404.23  4344.42  4363.82
                             4370.53  4379.50  4422.96  4461.47  4469.78
                             4477.67  4501.18  4574.01  4584.85  4647.36
                             4650.34  4654.40  5171.99  5344.20

 Zero-point correction=                           0.287016 (Hartree/Particle)
 Thermal correction to Energy=                    0.304655
 Thermal correction to Enthalpy=                  0.305599
 Thermal correction to Gibbs Free Energy=         0.240186
 Sum of electronic and zero-point Energies=           -800.039036
 Sum of electronic and thermal Energies=              -800.021397
 Sum of electronic and thermal Enthalpies=            -800.020453
 Sum of electronic and thermal Free Energies=         -800.085866

                     E (Thermal)             CV                S
                      KCal/Mol        Cal/Mol-Kelvin    Cal/Mol-Kelvin
 Total                  191.174             67.409            137.674
 Electronic               0.000              0.000              0.000
 Translational            0.889              2.981             42.475
 Rotational               0.889              2.981             34.160
 Vibrational            189.396             61.448             61.039
 Vibration     1          0.593              1.985              6.303
 Vibration     2          0.594              1.982              5.455
 Vibration     3          0.596              1.977              4.738
 Vibration     4          0.596              1.975              4.559
 Vibration     5          0.603              1.954              3.581
 Vibration     6          0.604              1.950              3.472
 Vibration     7          0.612              1.923              2.940
 Vibration     8          0.621              1.894              2.577
 Vibration     9          0.633              1.856              2.244
 Vibration    10          0.642              1.826              2.048
 Vibration    11          0.653              1.793              1.868
 Vibration    12          0.659              1.773              1.774
 Vibration    13          0.667              1.751              1.681
 Vibration    14          0.697              1.661              1.381
 Vibration    15          0.706              1.633              1.305
 Vibration    16          0.719              1.598              1.217
 Vibration    17          0.734              1.557              1.127
 Vibration    18          0.751              1.509              1.033
 Vibration    19          0.763              1.479              0.978
 Vibration    20          0.782              1.429              0.895
 Vibration    21          0.786              1.418              0.878
 Vibration    22          0.789              1.411              0.868
 Vibration    23          0.813              1.352              0.783
 Vibration    24          0.847              1.270              0.681
 Vibration    25          0.849              1.264              0.674
 Vibration    26          0.892              1.168              0.572
 Vibration    27          0.930              1.089              0.498

 Optimization completed.
    -- Stationary point found.
 Normal termination of Gaussian 16 at Sun Dec 13 20:24:11 2020.

 ----------------------------------------------------------------------
 # B3LYP/6-311++G(d,p) empiricaldispersion=gd3bj scf=xqc pop=npa geom=c
 heck
 ----------------------------------------------------------------------

 ---------------------------------------
 CID_116862636_JID_9073_Energie_neutraal
 ---------------------------------------
 Structure from the checkpoint file:  "JID_9073.chk"
 Charge =  0 Multiplicity = 1

 SCF Done:  E(RB3LYP) =  -800.538234325     A.U. after   16 cycles
 Normal termination of Gaussian 16 at Sun Dec 13 20:31:06 2020.

 ----------------------------------------------------------------------
 # B3LYP/6-311++G(d,p) empiricaldispersion=gd3bj scf=xqc pop=npa geom=c
 heck
 ----------------------------------------------------------------------

 -------------------------------------
 CID_116862636_JID_9073_Energie_kation
 -------------------------------------
 Structure from the checkpoint file:  "JID_9073.chk"
 Charge =  1 Multiplicity = 2

 SCF Done:  E(UB3LYP) =  -800.239437250     A.U. after   27 cycles
 Normal termination of Gaussian 16 at Sun Dec 13 20:47:41 2020.
 Gaussian 16:  ES64L-G16RevA.03 25-Dec-2016

 ----------------------------------------------------------------------
 # B3LYP/6-311++G(d,p) empiricaldispersion=gd3bj scf=xqc pop=npa geom=c
 heck
 ----------------------------------------------------------------------

 ------------------------------------
 CID_116862636_JID_9073_Energie_anion
 ------------------------------------
 Structure from the checkpoint file:  "JID_9073.chk"
 Charge = -1 Multiplicity = 2

                         Standard orientation:
 ---------------------------------------------------------------------
 Center     Atomic      Atomic             Coordinates (Angstroms)
 Number     Number       Type             X           Y           Z
 ---------------------------------------------------------------------
      1          6           0        4.533310    0.974260   -1.505538
      2          6           0        4.872046   -0.124256   -0.492595
      3          6           0        6.380292   -0.184306   -0.227659
      4          6           0        4.102814    0.066582    0.836166
      5          6           0        2.604008   -0.002457    0.679562
      6          6           0        1.816371    1.155735    0.669979
      7          6           0        0.439346    1.089156    0.484711
      8          6           0       -0.190463   -0.150308    0.303859
      9          6           0        0.590312   -1.316076    0.314478
     10          6           0        1.964967   -1.237979    0.500077
     11          6           0       -1.653971   -0.224510    0.107806
     12          7           0       -2.331684    0.935921    0.100381
     13          6           0       -3.657798    0.834417   -0.081625
     14          6           0       -4.328940   -0.366852   -0.256759
     15          6           0       -3.520226   -1.523699   -0.228948
     16          7           0       -2.196735   -1.444535   -0.044224
     17          7           0       -4.041770   -2.768607   -0.420970
     18          6           0       -4.406316    2.070573   -0.089747
     19          7           0       -5.034778    3.047145   -0.100025
     20          1           0        4.821762    1.960324   -1.118136
     21          1           0        3.461794    1.001858   -1.726124
     22          1           0        5.071047    0.816578   -2.447301
     23          1           0        4.558099   -1.088770   -0.917776
     24          1           0        6.736634    0.758602    0.206675
     25          1           0        6.633061   -0.990597    0.470965
     26          1           0        6.937730   -0.353820   -1.155925
     27          1           0        4.432340   -0.706669    1.542642
     28          1           0        4.387012    1.033570    1.271748
     29          1           0        2.292504    2.122917    0.809196
     30          1           0       -0.164776    1.988966    0.478638
     31          1           0        0.101891   -2.274019    0.178463
     32          1           0        2.557837   -2.149692    0.509212
     33          1           0       -5.401121   -0.406107   -0.408329
     34          1           0       -5.033337   -2.917337   -0.310430
     35          1           0       -3.432214   -3.546933   -0.212256
 ---------------------------------------------------------------------

 SCF Done:  E(UB3LYP) =  -800.565946991     A.U. after   24 cycles

 The electronic state is 2-A.
 Alpha  occ. eigenvalues --  -14.21674 -14.16709 -14.16698 -14.14917 -10.12223
 Alpha  occ. eigenvalues --  -10.09043 -10.08722 -10.08430 -10.08402 -10.07476
 Alpha  occ. eigenvalues --  -10.07230 -10.06581 -10.05721 -10.05357 -10.05123
 Alpha  occ. eigenvalues --  -10.04600 -10.04355 -10.04289 -10.03022  -0.85427
 Alpha  occ. eigenvalues --   -0.80751  -0.76730  -0.74455  -0.72920  -0.71739
 Alpha  occ. eigenvalues --   -0.66498  -0.63540  -0.62429  -0.60424  -0.58123
 Alpha  occ. eigenvalues --   -0.54446  -0.52176  -0.48783  -0.48322  -0.46184
 Alpha  occ. eigenvalues --   -0.43353  -0.42675  -0.38916  -0.37192  -0.36845
 Alpha  occ. eigenvalues --   -0.35617  -0.34468  -0.33214  -0.33155  -0.31986
 Alpha  occ. eigenvalues --   -0.31747  -0.30737  -0.30684  -0.29897  -0.28518
 Alpha  occ. eigenvalues --   -0.28102  -0.26496  -0.25687  -0.24634  -0.24373
 Alpha  occ. eigenvalues --   -0.24031  -0.23218  -0.22119  -0.21780  -0.20782
 Alpha  occ. eigenvalues --   -0.19956  -0.16629  -0.16082  -0.13688  -0.12846
 Alpha  occ. eigenvalues --   -0.11594  -0.10422   0.02735
 Alpha virt. eigenvalues --    0.05813   0.07299   0.07822   0.08028   0.08425
 Alpha virt. eigenvalues --    0.08732   0.10078   0.10356   0.10797   0.11150
 Alpha virt. eigenvalues --    0.11161   0.11434   0.11977   0.12961   0.13578

  Beta  occ. eigenvalues --  -14.21681 -14.16838 -14.16472 -14.14470 -10.12295
  Beta  occ. eigenvalues --  -10.09026 -10.08487 -10.08400 -10.08125 -10.07489
  Beta  occ. eigenvalues --  -10.07230 -10.06602 -10.05556 -10.05409 -10.05142
  Beta  occ. eigenvalues --  -10.04582 -10.04292 -10.04182 -10.02696  -0.85092
  Beta  occ. eigenvalues --   -0.80658  -0.76361  -0.74319  -0.72464  -0.71643
  Beta  occ. eigenvalues --   -0.66108  -0.63177  -0.62310  -0.60419  -0.57971
  Beta  occ. eigenvalues --   -0.53815  -0.51912  -0.48726  -0.48184  -0.46052
  Beta  occ. eigenvalues --   -0.43213  -0.42561  -0.38852  -0.37093  -0.36739
  Beta  occ. eigenvalues --   -0.35570  -0.34309  -0.33096  -0.32940  -0.31902
  Beta  occ. eigenvalues --   -0.31499  -0.30726  -0.29867  -0.29642  -0.28430
  Beta  occ. eigenvalues --   -0.28063  -0.26283  -0.25594  -0.24351  -0.24128
  Beta  occ. eigenvalues --   -0.23368  -0.22858  -0.21982  -0.21731  -0.20074
  Beta  occ. eigenvalues --   -0.19818  -0.16373  -0.14518  -0.13316  -0.11794
  Beta  occ. eigenvalues --   -0.11330  -0.09290
  Beta virt. eigenvalues --    0.05792   0.07262   0.07797   0.07998   0.08414
  Beta virt. eigenvalues --    0.08706   0.09123   0.10053   0.10489   0.10859
  Beta virt. eigenvalues --    0.11126   0.11307   0.11467   0.11999   0.12944

 Mulliken charges and spin densities:
               1          2
     1  C   -0.718140   0.001280
     2  C    0.388812  -0.011083
     3  C   -0.619413   0.002584
     4  C   -0.475868  -0.021502
     5  C    0.930852   0.116716
     6  C   -0.807270  -0.009333
     7  C   -0.636992   0.047931
     8  C    0.694912  -0.018614
     9  C   -0.400757   0.133658
    10  C   -0.576627  -0.039374
    11  C   -0.626721   0.112048
    12  N    0.082021  -0.081852
    13  C    1.122000   0.212502
    14  C   -0.275132   0.302514
    15  C    0.182587  -0.051257
    16  N   -0.142999   0.225538
    17  N   -0.309505  -0.002986
    18  C   -0.938985  -0.038903
    19  N   -0.339766   0.124848
    20  H    0.131446   0.000223
    21  H    0.160374  -0.000156
    22  H    0.117571  -0.000284
    23  H    0.147379  -0.001839
    24  H    0.120291   0.001533
    25  H    0.119791   0.002228
    26  H    0.126250  -0.000270
    27  H    0.128502   0.012031
    28  H    0.151053   0.002449
    29  H    0.109915   0.002689
    30  H    0.223572  -0.000825
    31  H    0.182871  -0.008934
    32  H    0.119784   0.006062
    33  H    0.154794  -0.021155
    34  H    0.230521   0.002827
    35  H    0.242876  -0.001292
 Sum of Mulliken charges =  -1.00000   1.00000

 Dipole moment (field-independent basis, Debye):
    X=              9.1372    Y=             -5.9210    Z=             -0.0931  Tot=             10.8883
 Quadrupole moment (field-independent basis, Debye-Ang):
   XX=           -179.4009   YY=           -136.4364   ZZ=           -124.7803
   XY=             33.9672   XZ=             -2.4243   YZ=             -0.1602

 Summary of Natural Population Analysis:

                                       Natural Population
                Natural  -----------------------------------------------
    Atom  No    Charge         Core      Valence    Rydberg      Total
 -----------------------------------------------------------------------
      C    1   -0.28771      0.99965     2.28299    0.00507     3.28771
      C    2   -0.10701      0.99962     2.10107    0.00633     3.10701
      C    3   -0.28296      0.99966     2.27853    0.00478     3.28296
      C    4   -0.19384      0.99959     2.18518    0.00906     3.19384
      C    5    0.00485      0.99951     1.98655    0.00909     2.99515
      C    6   -0.11901      0.99953     2.11061    0.00887     3.11901
      C    7   -0.06364      0.99945     2.05577    0.00842     3.06364
      C    8   -0.03680      0.99939     2.02677    0.01064     3.03680
      C    9   -0.05757      0.99945     2.04947    0.00865     3.05757
      C   10   -0.12583      0.99953     2.11730    0.00899     3.12583
      C   11    0.24531      0.99957     1.73936    0.01576     2.75469
      N   12   -0.27522      0.99967     2.76545    0.01010     3.77522
      C   13    0.09516      0.99944     1.89228    0.01312     2.90484
      C   14   -0.09191      0.99949     2.08364    0.00879     3.09191
      C   15    0.19838      0.99957     1.78833    0.01373     2.80162
      N   16   -0.22310      0.99963     2.70923    0.01424     3.72310
      N   17   -0.39915      0.99970     2.89062    0.00883     3.89915
      C   18    0.14827      0.99964     1.83357    0.01852     2.85173
      N   19   -0.16756      0.99979     2.65633    0.01145     3.66756
      H   20    0.09261      0.00000     0.40649    0.00089     0.40739
      H   21    0.11100      0.00000     0.38834    0.00066     0.38900
      H   22    0.09331      0.00000     0.40591    0.00078     0.40669
      H   23    0.09175      0.00000     0.40629    0.00196     0.40825
      H   24    0.09365      0.00000     0.40543    0.00092     0.40635
      H   25    0.09616      0.00000     0.40303    0.00081     0.40384
      H   26    0.09494      0.00000     0.40423    0.00083     0.40506
      H   27    0.09833      0.00000     0.40062    0.00105     0.40167
      H   28    0.09466      0.00000     0.40420    0.00114     0.40534
      H   29    0.09177      0.00000     0.40683    0.00140     0.40823
      H   30    0.11104      0.00000     0.38792    0.00104     0.38896
      H   31    0.10806      0.00000     0.39083    0.00111     0.39194
      H   32    0.09045      0.00000     0.40807    0.00148     0.40955
      H   33    0.09585      0.00000     0.40330    0.00085     0.40415
      H   34    0.18487      0.00000     0.31396    0.00116     0.31513
      H   35    0.19090      0.00000     0.30756    0.00154     0.30910
 =======================================================================
   * Total *    0.00000     18.99188    47.79605    0.21207    67.00000

 Normal termination of Gaussian 16 at Sun Dec 13 21:02:07 2020.
