 Gaussian 16, Revision A.03,

 -----------------------------------------------------------
 # opt freq B3LYP/6-31G(d) empiricaldispersion=gd3bj scf=xqc
 -----------------------------------------------------------

 ------------------------------
 CID_147078367_JID_852_neutraal
 ------------------------------
 Symbolic Z-matrix:
 Charge =  0 Multiplicity = 1

 SCF Done:  E(RB3LYP) =  -455.039556425     A.U. after   16 cycles
 SCF Done:  E(RB3LYP) =  -455.056917903     A.U. after   15 cycles
 SCF Done:  E(RB3LYP) =  -455.058581724     A.U. after   13 cycles
 SCF Done:  E(RB3LYP) =  -455.058758028     A.U. after   13 cycles
 SCF Done:  E(RB3LYP) =  -455.059475925     A.U. after   12 cycles
 SCF Done:  E(RB3LYP) =  -455.059692309     A.U. after   12 cycles
 SCF Done:  E(RB3LYP) =  -455.059729157     A.U. after   11 cycles
 SCF Done:  E(RB3LYP) =  -455.059732619     A.U. after    9 cycles
 SCF Done:  E(RB3LYP) =  -455.059734059     A.U. after    9 cycles
 SCF Done:  E(RB3LYP) =  -455.059735255     A.U. after    9 cycles
 SCF Done:  E(RB3LYP) =  -455.059745072     A.U. after   10 cycles
 SCF Done:  E(RB3LYP) =  -455.059749356     A.U. after    9 cycles
 SCF Done:  E(RB3LYP) =  -455.059750018     A.U. after   10 cycles
 SCF Done:  E(RB3LYP) =  -455.059750109     A.U. after    8 cycles
 SCF Done:  E(RB3LYP) =  -455.059750156     A.U. after    7 cycles
 SCF Done:  E(RB3LYP) =  -455.059750190     A.U. after    7 cycles
 Optimization completed.
    -- Stationary point found.
 Normal termination of Gaussian 16 at Tue Dec  8 12:42:33 2020.

 --------------------------------------------------------------------
 #N Geom=AllCheck Guess=TCheck SCRF=Check GenChk RB3LYP/6-31G(d) Freq
 --------------------------------------------------------------------

 Structure from the checkpoint file:  "JID_852.chk"
 ------------------------------
 CID_147078367_JID_852_neutraal
 ------------------------------
 Charge =  0 Multiplicity = 1

 SCF Done:  E(RB3LYP) =  -455.059750190     A.U. after    1 cycles

  Exact polarizability: 170.951   0.804  77.975  -0.716  -0.629  37.856
 Approx polarizability: 284.352  -8.113 129.682   1.145  -1.620  57.068

                      1                      2                      3
                      A                      A                      A
 Frequencies --     36.4878                80.6997                87.2386
 Red. masses --      3.5066                 7.2907                 5.6301
 Frc consts  --      0.0028                 0.0280                 0.0252
 IR Inten    --      0.0732                 2.8968                 0.6801

                      4                      5                      6
                      A                      A                      A
 Frequencies --    224.7627               256.7586               286.3470
 Red. masses --      6.8049                 3.8663                 2.8241
 Frc consts  --      0.2025                 0.1502                 0.1364
 IR Inten    --      4.8620                 1.8475                 0.9665

                      7                      8                      9
                      A                      A                      A
 Frequencies --    371.9093               412.9897               534.9453
 Red. masses --      5.6173                 3.1254                11.9011
 Frc consts  --      0.4578                 0.3141                 2.0066
 IR Inten    --      3.8139                 1.0158                22.7061

                     10                     11                     12
                      A                      A                      A
 Frequencies --    557.2982               596.6287               618.1456
 Red. masses --      3.8948                 2.2626                10.9988
 Frc consts  --      0.7127                 0.4745                 2.4762
 IR Inten    --     15.9209                22.1566                23.8875

                     13                     14                     15
                      A                      A                      A
 Frequencies --    629.3969               780.1443               800.1531
 Red. masses --      6.5976                 1.6365                 5.7255
 Frc consts  --      1.5399                 0.5868                 2.1598
 IR Inten    --     15.5085                 7.8572                 4.1191

                     16                     17                     18
                      A                      A                      A
 Frequencies --    856.8709               936.3572               940.9500
 Red. masses --      1.4611                 1.9307                 3.1318
 Frc consts  --      0.6321                 0.9973                 1.6337
 IR Inten    --     11.7184                 6.5452                14.3043

                     19                     20                     21
                      A                      A                      A
 Frequencies --    958.0747               985.4712               987.2592
 Red. masses --      2.4390                 1.3542                 1.9274
 Frc consts  --      1.3191                 0.7748                 1.1068
 IR Inten    --      9.2672                 1.6185                 0.7016

                     22                     23                     24
                      A                      A                      A
 Frequencies --   1016.1407              1047.9685              1229.9120
 Red. masses --      5.1067                 2.3119                 1.0922
 Frc consts  --      3.1067                 1.4960                 0.9734
 IR Inten    --     74.0807                 1.2934                 2.4992

                     25                     26                     27
                      A                      A                      A
 Frequencies --   1237.6655              1267.1038              1356.3767
 Red. masses --      1.2042                 2.0596                 1.9229
 Frc consts  --      1.0868                 1.9483                 2.0843
 IR Inten    --      1.9084                32.3265                 3.0670

                     28                     29                     30
                      A                      A                      A
 Frequencies --   1380.9215              1429.0888              1432.6573
 Red. masses --      1.2594                 1.5412                 1.5719
 Frc consts  --      1.4150                 1.8545                 1.9009
 IR Inten    --      3.9725                 6.2554                 9.6322

                     31                     32                     33
                      A                      A                      A
 Frequencies --   1488.0297              1519.1691              1628.2955
 Red. masses --      1.1337                 7.1402                 7.1855
 Frc consts  --      1.4790                 9.7089                11.2246
 IR Inten    --      3.7740                 9.5627                50.3977

                     34                     35                     36
                      A                      A                      A
 Frequencies --   1684.6761              1705.9382              2381.2808
 Red. masses --      7.2631                 6.1330                12.5450
 Frc consts  --     12.1451                10.5160                41.9125
 IR Inten    --     71.6513                95.5037              1940.5700

                     37                     38                     39
                      A                      A                      A
 Frequencies --   2983.1853              3043.0407              3161.2475
 Red. masses --      1.0733                 1.0868                 1.0893
 Frc consts  --      5.6278                 5.9297                 6.4137
 IR Inten    --     22.0814                16.5940                11.6145

                     40                     41                     42
                      A                      A                      A
 Frequencies --   3167.6206              3188.9835              3209.7673
 Red. masses --      1.0903                 1.0854                 1.0985
 Frc consts  --      6.4453                 6.5036                 6.6680
 IR Inten    --     16.0824                 4.4316                57.0620

 - Thermochemistry -
 -------------------
 Temperature   298.150 Kelvin.  Pressure   1.00000 Atm.
 Atom     1 has atomic number  6 and mass  12.00000

 Molecular mass:   134.04801 amu.
 Principal axes and moments of inertia in atomic units:
                           1         2         3
     Eigenvalues --   392.115642920.310843290.88151
           X            0.99998   0.00683  -0.00156
           Y           -0.00683   0.99998   0.00103
           Z            0.00157  -0.00102   1.00000
 This molecule is an asymmetric top.
 Rotational symmetry number  1.
 Rotational temperatures (Kelvin)      0.22089     0.02966     0.02632
 Rotational constants (GHZ):           4.60257     0.61800     0.54841
 Zero-point vibrational energy     314007.5 (Joules/Mol)
                                   75.04960 (Kcal/Mol)
 Warning -- explicit consideration of  12 degrees of freedom as
           vibrations may cause significant error
 Vibrational temperatures:     52.50   116.11   125.52   323.38   369.42
          (Kelvin)            411.99   535.09   594.20   769.67   801.83
                              858.42   889.37   905.56  1122.45  1151.24
                             1232.85  1347.21  1353.82  1378.46  1417.87
                             1420.45  1462.00  1507.79  1769.57  1780.72
                             1823.08  1951.52  1986.84  2056.14  2061.27
                             2140.94  2185.75  2342.75  2423.87  2454.46
                             3426.13  4292.14  4378.26  4548.33  4557.50
                             4588.24  4618.14

 Zero-point correction=                           0.119599 (Hartree/Particle)
 Thermal correction to Energy=                    0.128335
 Thermal correction to Enthalpy=                  0.129279
 Thermal correction to Gibbs Free Energy=         0.084457
 Sum of electronic and zero-point Energies=           -454.940151
 Sum of electronic and thermal Energies=              -454.931415
 Sum of electronic and thermal Enthalpies=            -454.930471
 Sum of electronic and thermal Free Energies=         -454.975293

                     E (Thermal)             CV                S
                      KCal/Mol        Cal/Mol-Kelvin    Cal/Mol-Kelvin
 Total                   80.531             31.314             94.335
 Electronic               0.000              0.000              0.000
 Translational            0.889              2.981             40.591
 Rotational               0.889              2.981             29.712
 Vibrational             78.754             25.352             24.032
 Vibration     1          0.594              1.982              5.441
 Vibration     2          0.600              1.962              3.874
 Vibration     3          0.601              1.958              3.721
 Vibration     4          0.649              1.803              1.920
 Vibration     5          0.666              1.751              1.684
 Vibration     6          0.684              1.699              1.495
 Vibration     7          0.744              1.530              1.072
 Vibration     8          0.777              1.442              0.916
 Vibration     9          0.890              1.173              0.576
 Vibration    10          0.913              1.124              0.529
 Vibration    11          0.954              1.039              0.455
 Vibration    12          0.978              0.994              0.419

 Optimization completed.
    -- Stationary point found.
 Normal termination of Gaussian 16 at Tue Dec  8 12:50:29 2020.

 ----------------------------------------------------------------------
 # B3LYP/6-311++G(d,p) empiricaldispersion=gd3bj scf=xqc pop=npa geom=c
 heck
 ----------------------------------------------------------------------

 --------------------------------------
 CID_147078367_JID_852_Energie_neutraal
 --------------------------------------
 Structure from the checkpoint file:  "JID_852.chk"
 Charge =  0 Multiplicity = 1

 SCF Done:  E(RB3LYP) =  -455.186616012     A.U. after   15 cycles
 Normal termination of Gaussian 16 at Tue Dec  8 12:51:21 2020.

 ----------------------------------------------------------------------
 # B3LYP/6-311++G(d,p) empiricaldispersion=gd3bj scf=xqc pop=npa geom=c
 heck
 ----------------------------------------------------------------------

 ------------------------------------
 CID_147078367_JID_852_Energie_kation
 ------------------------------------
 Structure from the checkpoint file:  "JID_852.chk"
 Charge =  1 Multiplicity = 2

 SCF Done:  E(UB3LYP) =  -454.888814050     A.U. after   21 cycles
 Normal termination of Gaussian 16 at Tue Dec  8 13:04:06 2020.
 Gaussian 16:  ES64L-G16RevA.03 25-Dec-2016

 ----------------------------------------------------------------------
 # B3LYP/6-311++G(d,p) empiricaldispersion=gd3bj scf=xqc pop=npa geom=c
 heck
 ----------------------------------------------------------------------

 -----------------------------------
 CID_147078367_JID_852_Energie_anion
 -----------------------------------
 Structure from the checkpoint file:  "JID_852.chk"
 Charge = -1 Multiplicity = 2

                         Standard orientation:
 ---------------------------------------------------------------------
 Center     Atomic      Atomic             Coordinates (Angstroms)
 Number     Number       Type             X           Y           Z
 ---------------------------------------------------------------------
      1          6           0        1.516620    1.368964    0.116674
      2          6           0        2.846008    0.709567   -0.133272
      3          6           0        2.972846   -0.624212   -0.149317
      4          7           0        1.912398   -1.532535    0.047382
      5          6           0        0.720977   -1.049333    0.147026
      6          6           0        0.376320    0.368886    0.082106
      7          6           0       -0.909007    0.776416    0.005964
      8          7           0       -1.977911   -0.105279    0.017500
      9          6           0       -3.187024   -0.087763   -0.043062
     10          8           0       -4.356898   -0.210016   -0.090886
     11          1           0        1.348920    2.177174   -0.608179
     12          1           0        1.549210    1.866585    1.100695
     13          1           0        3.714964    1.347263   -0.269185
     14          1           0        3.936587   -1.098199   -0.312359
     15          1           0       -0.098668   -1.756802    0.271635
     16          1           0       -1.157679    1.833647   -0.066414
 ---------------------------------------------------------------------

 SCF Done:  E(UB3LYP) =  -455.209823912     A.U. after   23 cycles

 The electronic state is 2-A.
 Alpha  occ. eigenvalues --  -19.03447 -14.20911 -14.11385 -10.16199 -10.04457
 Alpha  occ. eigenvalues --  -10.03182 -10.02639 -10.01707 -10.01466 -10.00354
 Alpha  occ. eigenvalues --   -0.97346  -0.82185  -0.75254  -0.65057  -0.61484
 Alpha  occ. eigenvalues --   -0.55152  -0.46972  -0.45662  -0.38986  -0.37216
 Alpha  occ. eigenvalues --   -0.35481  -0.33594  -0.33505  -0.30643  -0.28721
 Alpha  occ. eigenvalues --   -0.27828  -0.26310  -0.22582  -0.21645  -0.19690
 Alpha  occ. eigenvalues --   -0.19026  -0.16912  -0.11791  -0.08005  -0.05866
 Alpha  occ. eigenvalues --    0.04131
 Alpha virt. eigenvalues --    0.09270   0.10140   0.11508   0.12306   0.12647
 Alpha virt. eigenvalues --    0.13525   0.14791   0.15497   0.15679   0.16193
 Alpha virt. eigenvalues --    0.17148   0.17872   0.18497   0.18993   0.20550

  Beta  occ. eigenvalues --  -19.03353 -14.20998 -14.11007 -10.16056 -10.04041
  Beta  occ. eigenvalues --  -10.03223 -10.02660 -10.01437 -10.01400 -10.00083
  Beta  occ. eigenvalues --   -0.97160  -0.82048  -0.74546  -0.64584  -0.60983
  Beta  occ. eigenvalues --   -0.54703  -0.46321  -0.45308  -0.38655  -0.36986
  Beta  occ. eigenvalues --   -0.35279  -0.33337  -0.32917  -0.30390  -0.28163
  Beta  occ. eigenvalues --   -0.27512  -0.26106  -0.22318  -0.20788  -0.19087
  Beta  occ. eigenvalues --   -0.17722  -0.16896  -0.10457  -0.07529  -0.04031
  Beta virt. eigenvalues --    0.09240   0.10119   0.10357   0.11494   0.12475
  Beta virt. eigenvalues --    0.12640   0.13525   0.14902   0.15639   0.16025
  Beta virt. eigenvalues --    0.16777   0.17215   0.17882   0.18685   0.18999

 Mulliken charges and spin densities:
               1          2
     1  C   -0.984975  -0.031104
     2  C    0.138724   0.212516
     3  C   -0.426713  -0.020356
     4  N   -0.162126   0.185407
     5  C   -0.468193   0.160911
     6  C    1.065549   0.037361
     7  C   -0.751905   0.373157
     8  N   -0.049249  -0.043597
     9  C    0.312176   0.078461
    10  O   -0.350460   0.028383
    11  H    0.089888   0.024322
    12  H    0.096943   0.050550
    13  H    0.116255  -0.013130
    14  H    0.102351  -0.000042
    15  H    0.148812  -0.017162
    16  H    0.122924  -0.025678
 Sum of Mulliken charges =  -1.00000   1.00000

 Dipole moment (field-independent basis, Debye):
    X=             -0.9494    Y=              3.2039    Z=             -0.0487  Tot=              3.3419
 Quadrupole moment (field-independent basis, Debye-Ang):
   XX=           -100.9796   YY=            -70.5861   ZZ=            -65.4560
   XY=              4.3076   XZ=             -0.5669   YZ=             -0.1486

 Summary of Natural Population Analysis:

                                       Natural Population
                Natural  -----------------------------------------------
    Atom  No    Charge         Core      Valence    Rydberg      Total
 -----------------------------------------------------------------------
      C    1   -0.21298      0.99960     2.20554    0.00784     3.21298
      C    2   -0.06454      0.99955     2.05524    0.00975     3.06454
      C    3   -0.02448      0.99951     2.00872    0.01626     3.02448
      N    4   -0.20783      0.99969     2.69260    0.01554     3.70783
      C    5    0.09465      0.99959     1.89009    0.01567     2.90535
      C    6   -0.03689      0.99951     2.02841    0.00897     3.03689
      C    7    0.05877      0.99941     1.92980    0.01202     2.94123
      N    8   -0.27130      0.99950     2.76424    0.00756     3.77130
      C    9    0.42720      0.99961     1.55498    0.01821     2.57280
      O   10   -0.27694      0.99987     3.26991    0.00716     4.27694
      H   11    0.09985      0.00000     0.39870    0.00145     0.40015
      H   12    0.10147      0.00000     0.39658    0.00194     0.39853
      H   13    0.08169      0.00000     0.41684    0.00147     0.41831
      H   14    0.07841      0.00000     0.42017    0.00142     0.42159
      H   15    0.07719      0.00000     0.42099    0.00181     0.42281
      H   16    0.07572      0.00000     0.42236    0.00192     0.42428
 =======================================================================
   * Total *    0.00000      9.99583    24.87517    0.12900    35.00000

 Normal termination of Gaussian 16 at Tue Dec  8 13:08:24 2020.
