 Gaussian 16, Revision A.03,

 -----------------------------------------------------------
 # opt freq B3LYP/6-31G(d) empiricaldispersion=gd3bj scf=xqc
 -----------------------------------------------------------

 ------------------------------
 CID_62950898_JID_6294_neutraal
 ------------------------------
 Symbolic Z-matrix:
 Charge =  0 Multiplicity = 1

 SCF Done:  E(RB3LYP) =  -735.472107267     A.U. after   15 cycles
 SCF Done:  E(RB3LYP) =  -735.480337423     A.U. after   12 cycles
 SCF Done:  E(RB3LYP) =  -735.481078916     A.U. after   11 cycles
 SCF Done:  E(RB3LYP) =  -735.481194696     A.U. after   11 cycles
 SCF Done:  E(RB3LYP) =  -735.481261738     A.U. after   10 cycles
 SCF Done:  E(RB3LYP) =  -735.481272815     A.U. after    9 cycles
 SCF Done:  E(RB3LYP) =  -735.481274803     A.U. after    8 cycles
 SCF Done:  E(RB3LYP) =  -735.481275389     A.U. after    8 cycles
 SCF Done:  E(RB3LYP) =  -735.481275703     A.U. after    7 cycles
 SCF Done:  E(RB3LYP) =  -735.481276013     A.U. after    8 cycles
 SCF Done:  E(RB3LYP) =  -735.481283266     A.U. after   10 cycles
 SCF Done:  E(RB3LYP) =  -735.481285257     A.U. after    9 cycles
 SCF Done:  E(RB3LYP) =  -735.481286320     A.U. after   10 cycles
 SCF Done:  E(RB3LYP) =  -735.481286861     A.U. after   10 cycles
 SCF Done:  E(RB3LYP) =  -735.481286983     A.U. after    9 cycles
 SCF Done:  E(RB3LYP) =  -735.481287002     A.U. after    7 cycles
 Optimization completed.
    -- Stationary point found.
 Normal termination of Gaussian 16 at Thu Dec 10 22:03:26 2020.

 --------------------------------------------------------------------
 #N Geom=AllCheck Guess=TCheck SCRF=Check GenChk RB3LYP/6-31G(d) Freq
 --------------------------------------------------------------------

 Structure from the checkpoint file:  "JID_6294.chk"
 ------------------------------
 CID_62950898_JID_6294_neutraal
 ------------------------------
 Charge =  0 Multiplicity = 1

 SCF Done:  E(RB3LYP) =  -735.481287002     A.U. after    1 cycles

  Exact polarizability: 239.214  -6.436 128.050   5.141   5.061  60.411
 Approx polarizability: 323.596 -20.955 238.053   8.812  13.733  94.249

                      1                      2                      3
                      A                      A                      A
 Frequencies --     20.9061                34.2262                60.9041
 Red. masses --      3.4019                 5.0392                 7.6197
 Frc consts  --      0.0009                 0.0035                 0.0167
 IR Inten    --      2.1810                 0.1941                 1.0542

                      4                      5                      6
                      A                      A                      A
 Frequencies --     99.0409               132.4330               198.1279
 Red. masses --      4.0342                 5.5592                 4.6983
 Frc consts  --      0.0233                 0.0574                 0.1087
 IR Inten    --      1.2316                 1.6368                 4.2806

                      7                      8                      9
                      A                      A                      A
 Frequencies --    244.3948               257.4016               291.8967
 Red. masses --      1.6747                 6.2618                 2.1004
 Frc consts  --      0.0589                 0.2444                 0.1054
 IR Inten    --     44.4484                 0.6137                40.0016

                     10                     11                     12
                      A                      A                      A
 Frequencies --    330.9922               352.1203               405.3894
 Red. masses --      5.4067                 6.5889                 3.7249
 Frc consts  --      0.3490                 0.4813                 0.3607
 IR Inten    --      0.7447                 1.3749                 5.6927

                     13                     14                     15
                      A                      A                      A
 Frequencies --    432.0758               442.8851               569.9129
 Red. masses --      3.9027                 4.2355                 7.2031
 Frc consts  --      0.4293                 0.4895                 1.3784
 IR Inten    --      6.7142                 2.9286                 1.0648

                     16                     17                     18
                      A                      A                      A
 Frequencies --    584.4874               592.2674               636.6201
 Red. masses --      4.1132                 7.5711                 4.7610
 Frc consts  --      0.8279                 1.5648                 1.1369
 IR Inten    --      0.0469                 0.1019                 2.9671

                     19                     20                     21
                      A                      A                      A
 Frequencies --    638.2842               694.4321               701.2182
 Red. masses --      6.7741                 4.3732                 8.2841
 Frc consts  --      1.6260                 1.2425                 2.4000
 IR Inten    --      2.6323                18.4904                 1.5833

                     22                     23                     24
                      A                      A                      A
 Frequencies --    754.2524               764.4199               787.4247
 Red. masses --      3.1995                 1.5500                 5.4303
 Frc consts  --      1.0724                 0.5336                 1.9838
 IR Inten    --     15.4433                47.1802                53.6552

                     25                     26                     27
                      A                      A                      A
 Frequencies --    826.1092               848.7729               868.5896
 Red. masses --      5.4905                 1.3721                 1.3873
 Frc consts  --      2.2077                 0.5824                 0.6166
 IR Inten    --     10.3364                18.0330                 0.0569

                     28                     29                     30
                      A                      A                      A
 Frequencies --    876.2228               903.2285               936.7115
 Red. masses --      1.3736                 6.9984                 1.3539
 Frc consts  --      0.6213                 3.3639                 0.6999
 IR Inten    --     86.7407                 4.7604                 2.4600

                     31                     32                     33
                      A                      A                      A
 Frequencies --    940.9563               979.2584               995.9651
 Red. masses --     12.3135                 1.2445                 3.2782
 Frc consts  --      6.4235                 0.7031                 1.9159
 IR Inten    --      8.1399                 0.0180                30.4664

                     34                     35                     36
                      A                      A                      A
 Frequencies --   1017.9987              1027.4154              1035.1647
 Red. masses --      6.7713                 2.7074                 2.0231
 Frc consts  --      4.1344                 1.6838                 1.2773
 IR Inten    --    148.5624                30.6810                16.4892

                     37                     38                     39
                      A                      A                      A
 Frequencies --   1071.6890              1111.5191              1137.9155
 Red. masses --      2.6285                 3.5601                 1.7164
 Frc consts  --      1.7787                 2.5915                 1.3094
 IR Inten    --      9.1480                15.0562                10.3675

                     40                     41                     42
                      A                      A                      A
 Frequencies --   1181.9927              1186.6434              1209.7672
 Red. masses --      1.2270                 1.2847                 3.2154
 Frc consts  --      1.0100                 1.0658                 2.7726
 IR Inten    --      4.9125                 0.7763                 8.1064

                     43                     44                     45
                      A                      A                      A
 Frequencies --   1247.5898              1273.0623              1319.8768
 Red. masses --      2.1419                 3.6663                 1.5952
 Frc consts  --      1.9643                 3.5009                 1.6373
 IR Inten    --    101.3120                47.2332                 2.4334

                     46                     47                     48
                      A                      A                      A
 Frequencies --   1322.8727              1340.2645              1370.4642
 Red. masses --      1.4740                 4.9121                 2.4095
 Frc consts  --      1.5198                 5.1988                 2.6663
 IR Inten    --     10.4915                22.6425               174.9552

                     49                     50                     51
                      A                      A                      A
 Frequencies --   1395.7411              1429.7272              1440.9242
 Red. masses --      5.7573                 9.0059                 1.8136
 Frc consts  --      6.6081                10.8464                 2.2186
 IR Inten    --      3.4669                50.1660                13.2293

                     52                     53                     54
                      A                      A                      A
 Frequencies --   1496.9782              1505.8664              1525.3383
 Red. masses --      2.5324                 3.7281                 2.6501
 Frc consts  --      3.3436                 4.9809                 3.6328
 IR Inten    --     44.0397                83.5912                 2.5460

                     55                     56                     57
                      A                      A                      A
 Frequencies --   1528.3376              1578.7951              1638.5374
 Red. masses --      1.1442                 6.9920                 7.6900
 Frc consts  --      1.5747                10.2685                12.1644
 IR Inten    --      3.2528                82.5679               156.6713

                     58                     59                     60
                      A                      A                      A
 Frequencies --   1673.1475              1692.8143              1699.6178
 Red. masses --      7.5201                 1.1697                 6.4149
 Frc consts  --     12.4034                 1.9749                10.9181
 IR Inten    --     22.5395                55.6442               266.8046

                     61                     62                     63
                      A                      A                      A
 Frequencies --   2996.4019              3115.4809              3198.2919
 Red. masses --      1.0718                 1.0911                 1.0868
 Frc consts  --      5.6699                 6.2397                 6.5497
 IR Inten    --     59.3972                14.7367                 3.5170

                     64                     65                     66
                      A                      A                      A
 Frequencies --   3212.5687              3228.8722              3232.2312
 Red. masses --      1.0913                 1.0940                 1.0956
 Frc consts  --      6.6360                 6.7199                 6.7436
 IR Inten    --     14.2903                 8.6884                 6.5406

                     67                     68                     69
                      A                      A                      A
 Frequencies --   3297.7796              3464.5711              3553.5312
 Red. masses --      1.0987                 1.0495                 1.0929
 Frc consts  --      7.0398                 7.4224                 8.1310
 IR Inten    --      0.9593                 2.8175                 0.9063

 - Thermochemistry -
 -------------------
 Temperature   298.150 Kelvin.  Pressure   1.00000 Atm.
 Atom     1 has atomic number  6 and mass  12.00000

 Molecular mass:   215.08071 amu.
 Principal axes and moments of inertia in atomic units:
                           1         2         3
     Eigenvalues --   893.236737505.745048227.71872
           X            0.99997   0.00743   0.00019
           Y           -0.00743   0.99997  -0.00020
           Z           -0.00019   0.00019   1.00000
 This molecule is an asymmetric top.
 Rotational symmetry number  1.
 Warning -- assumption of classical behavior for rotation
           may cause significant error
 Rotational temperatures (Kelvin)      0.09697     0.01154     0.01053
 Rotational constants (GHZ):           2.02045     0.24045     0.21935
 Zero-point vibrational energy     502202.6 (Joules/Mol)
                                  120.02930 (Kcal/Mol)
 Warning -- explicit consideration of  17 degrees of freedom as
           vibrations may cause significant error
 Vibrational temperatures:     30.08    49.24    87.63   142.50   190.54
          (Kelvin)            285.06   351.63   370.34   419.97   476.22
                              506.62   583.26   621.66   637.21   819.98
                              840.95   852.14   915.95   918.35   999.13
                             1008.90  1085.20  1099.83  1132.93  1188.59
                             1221.19  1249.71  1260.69  1299.54  1347.72
                             1353.83  1408.93  1432.97  1464.67  1478.22
                             1489.37  1541.92  1599.23  1637.21  1700.62
                             1707.32  1740.59  1795.00  1831.65  1899.01
                             1903.32  1928.34  1971.79  2008.16  2057.06
                             2073.17  2153.82  2166.61  2194.62  2198.94
                             2271.53  2357.49  2407.29  2435.58  2445.37
                             4311.15  4482.48  4601.63  4622.17  4645.63
                             4650.46  4744.77  4984.75  5112.74

 Zero-point correction=                           0.191279 (Hartree/Particle)
 Thermal correction to Energy=                    0.203764
 Thermal correction to Enthalpy=                  0.204708
 Thermal correction to Gibbs Free Energy=         0.150056
 Sum of electronic and zero-point Energies=           -735.290008
 Sum of electronic and thermal Energies=              -735.277523
 Sum of electronic and thermal Enthalpies=            -735.276579
 Sum of electronic and thermal Free Energies=         -735.331231

                     E (Thermal)             CV                S
                      KCal/Mol        Cal/Mol-Kelvin    Cal/Mol-Kelvin
 Total                  127.864             47.737            115.026
 Electronic               0.000              0.000              0.000
 Translational            0.889              2.981             42.001
 Rotational               0.889              2.981             32.378
 Vibrational            126.086             41.775             40.647
 Vibration     1          0.593              1.986              6.546
 Vibration     2          0.594              1.983              5.568
 Vibration     3          0.597              1.973              4.428
 Vibration     4          0.604              1.950              3.473
 Vibration     5          0.613              1.921              2.910
 Vibration     6          0.637              1.842              2.150
 Vibration     7          0.660              1.772              1.771
 Vibration     8          0.667              1.750              1.679
 Vibration     9          0.687              1.689              1.463
 Vibration    10          0.713              1.614              1.255
 Vibration    11          0.729              1.571              1.157
 Vibration    12          0.770              1.458              0.943
 Vibration    13          0.793              1.400              0.852
 Vibration    14          0.803              1.377              0.818
 Vibration    15          0.926              1.096              0.504
 Vibration    16          0.941              1.065              0.477
 Vibration    17          0.950              1.048              0.463

 Optimization completed.
    -- Stationary point found.
 Normal termination of Gaussian 16 at Thu Dec 10 22:09:32 2020.

 ----------------------------------------------------------------------
 # B3LYP/6-311++G(d,p) empiricaldispersion=gd3bj scf=xqc pop=npa geom=c
 heck
 ----------------------------------------------------------------------

 --------------------------------------
 CID_62950898_JID_6294_Energie_neutraal
 --------------------------------------
 Structure from the checkpoint file:  "JID_6294.chk"
 Charge =  0 Multiplicity = 1

 SCF Done:  E(RB3LYP) =  -735.680036510     A.U. after   15 cycles
 Normal termination of Gaussian 16 at Thu Dec 10 22:11:55 2020.

 ----------------------------------------------------------------------
 # B3LYP/6-311++G(d,p) empiricaldispersion=gd3bj scf=xqc pop=npa geom=c
 heck
 ----------------------------------------------------------------------

 ------------------------------------
 CID_62950898_JID_6294_Energie_kation
 ------------------------------------
 Structure from the checkpoint file:  "JID_6294.chk"
 Charge =  1 Multiplicity = 2

 SCF Done:  E(UB3LYP) =  -735.373449064     A.U. after   28 cycles
 Normal termination of Gaussian 16 at Thu Dec 10 22:18:27 2020.
 Gaussian 16:  ES64L-G16RevA.03 25-Dec-2016

 ----------------------------------------------------------------------
 # B3LYP/6-311++G(d,p) empiricaldispersion=gd3bj scf=xqc pop=npa geom=c
 heck
 ----------------------------------------------------------------------

 -----------------------------------
 CID_62950898_JID_6294_Energie_anion
 -----------------------------------
 Structure from the checkpoint file:  "JID_6294.chk"
 Charge = -1 Multiplicity = 2

                         Standard orientation:
 ---------------------------------------------------------------------
 Center     Atomic      Atomic             Coordinates (Angstroms)
 Number     Number       Type             X           Y           Z
 ---------------------------------------------------------------------
      1          6           0        4.533354   -0.995103    0.026811
      2          6           0        4.653651    0.394904    0.194749
      3          6           0        3.531263    1.229314    0.228041
      4          6           0        2.313299    0.590658    0.085153
      5          6           0        2.162023   -0.793382   -0.083783
      6          6           0        3.290017   -1.613182   -0.115084
      7          7           0        0.798190   -1.097170   -0.195620
      8          6           0        0.230099    0.055088   -0.094607
      9          8           0        1.043771    1.145291    0.077534
     10          7           0       -1.119757    0.358169   -0.133819
     11          6           0       -1.719977    1.586580   -0.026166
     12          7           0       -3.020236    1.455999   -0.118702
     13          6           0       -3.193722    0.099229   -0.289937
     14          7           0       -2.075104   -0.605520   -0.308932
     15          6           0       -4.534772   -0.560064   -0.387283
     16          7           0       -4.968070   -0.990296    0.950487
     17          1           0        5.433115   -1.602398    0.007296
     18          1           0        5.640374    0.834590    0.301545
     19          1           0        3.610048    2.302860    0.357074
     20          1           0        3.193342   -2.685523   -0.244816
     21          1           0       -1.158463    2.498936    0.109460
     22          1           0       -5.248946    0.180667   -0.757695
     23          1           0       -4.467807   -1.371620   -1.129651
     24          1           0       -5.899418   -1.398162    0.885119
     25          1           0       -4.348985   -1.734209    1.270139
 ---------------------------------------------------------------------

 SCF Done:  E(UB3LYP) =  -735.692702017     A.U. after   25 cycles

 The electronic state is 2-A.
 Alpha  occ. eigenvalues --  -19.06423 -14.27167 -14.19129 -14.18974 -14.16754
 Alpha  occ. eigenvalues --  -14.16614 -10.14712 -10.10823 -10.08947 -10.08625
 Alpha  occ. eigenvalues --  -10.08339 -10.07470 -10.05711 -10.05653 -10.05113
 Alpha  occ. eigenvalues --  -10.04617  -1.00600  -0.94013  -0.80044  -0.78281
 Alpha  occ. eigenvalues --   -0.76604  -0.73062  -0.70818  -0.63204  -0.62055
 Alpha  occ. eigenvalues --   -0.58077  -0.53140  -0.50580  -0.48505  -0.46353
 Alpha  occ. eigenvalues --   -0.44613  -0.42058  -0.38724  -0.38219  -0.37711
 Alpha  occ. eigenvalues --   -0.36982  -0.35340  -0.33966  -0.32689  -0.31649
 Alpha  occ. eigenvalues --   -0.31295  -0.29318  -0.27663  -0.26219  -0.25427
 Alpha  occ. eigenvalues --   -0.24077  -0.23574  -0.21318  -0.19807  -0.17377
 Alpha  occ. eigenvalues --   -0.16343  -0.14847  -0.14403  -0.14012  -0.13006
 Alpha  occ. eigenvalues --   -0.10265   0.04125
 Alpha virt. eigenvalues --    0.07196   0.07875   0.09364   0.10204   0.10385
 Alpha virt. eigenvalues --    0.10598   0.11255   0.11819   0.12142   0.12669
 Alpha virt. eigenvalues --    0.13752   0.14440   0.14830   0.15749   0.16979

  Beta  occ. eigenvalues --  -19.06324 -14.27247 -14.18946 -14.18838 -14.16739
  Beta  occ. eigenvalues --  -14.16506 -10.14270 -10.10852 -10.08631 -10.08589
  Beta  occ. eigenvalues --  -10.08256 -10.07443 -10.05712 -10.05610 -10.04959
  Beta  occ. eigenvalues --  -10.04426  -1.00332  -0.93779  -0.79709  -0.78168
  Beta  occ. eigenvalues --   -0.76414  -0.72792  -0.70397  -0.62964  -0.61742
  Beta  occ. eigenvalues --   -0.57922  -0.52647  -0.50505  -0.48245  -0.46131
  Beta  occ. eigenvalues --   -0.44356  -0.41871  -0.38560  -0.38099  -0.37505
  Beta  occ. eigenvalues --   -0.36167  -0.35099  -0.33727  -0.32568  -0.31458
  Beta  occ. eigenvalues --   -0.30811  -0.29222  -0.27576  -0.26144  -0.25331
  Beta  occ. eigenvalues --   -0.23479  -0.23359  -0.20307  -0.19497  -0.16660
  Beta  occ. eigenvalues --   -0.16189  -0.14221  -0.14169  -0.13113  -0.12202
  Beta  occ. eigenvalues --   -0.09284
  Beta virt. eigenvalues --    0.07200   0.07847   0.09329   0.09537   0.10187
  Beta virt. eigenvalues --    0.10465   0.11188   0.11322   0.11802   0.12567
  Beta virt. eigenvalues --    0.12911   0.13772   0.14452   0.15080   0.15884

 Mulliken charges and spin densities:
               1          2
     1  C   -0.361666  -0.038122
     2  C   -0.215439   0.122273
     3  C   -0.718216   0.055586
     4  C    0.794463  -0.005012
     5  C    0.430306   0.013064
     6  C   -0.658476   0.146721
     7  N   -0.119004   0.051415
     8  C    0.049244   0.214950
     9  O   -0.096933   0.019483
    10  N   -0.339258  -0.060669
    11  C    0.184061   0.258200
    12  N   -0.128489   0.000659
    13  C   -0.212694   0.059456
    14  N    0.021646   0.151911
    15  C   -0.538092  -0.090745
    16  N   -0.339960  -0.009898
    17  H    0.117187   0.003110
    18  H    0.117837  -0.009773
    19  H    0.129509  -0.006746
    20  H    0.140277  -0.010642
    21  H    0.193967  -0.019376
    22  H    0.151161   0.001883
    23  H    0.068569   0.056290
    24  H    0.124769   0.089791
    25  H    0.205229   0.006193
 Sum of Mulliken charges =  -1.00000   1.00000

 Dipole moment (field-independent basis, Debye):
    X=              2.0719    Y=              0.3244    Z=             -0.3359  Tot=              2.1239
 Quadrupole moment (field-independent basis, Debye-Ang):
   XX=           -145.6043   YY=           -104.6764   ZZ=           -103.2090
   XY=              9.6064   XZ=              4.6840   YZ=             -1.3570

 Summary of Natural Population Analysis:

                                       Natural Population
                Natural  -----------------------------------------------
    Atom  No    Charge         Core      Valence    Rydberg      Total
 -----------------------------------------------------------------------
      C    1   -0.12671      0.99959     2.11805    0.00907     3.12671
      C    2   -0.08713      0.99960     2.07806    0.00947     3.08713
      C    3   -0.11547      0.99952     2.10720    0.00875     3.11547
      C    4    0.13113      0.99934     1.85759    0.01195     2.86887
      C    5    0.04870      0.99944     1.93902    0.01284     2.95130
      C    6   -0.07478      0.99953     2.06613    0.00912     3.07478
      N    7   -0.24420      0.99966     2.73600    0.00853     3.74420
      C    8    0.42583      0.99957     1.55615    0.01845     2.57417
      O    9   -0.24595      0.99986     3.23865    0.00745     4.24595
      N   10   -0.14250      0.99961     2.62918    0.01371     3.64250
      C   11    0.17539      0.99966     1.80973    0.01522     2.82461
      N   12   -0.26896      0.99970     2.75906    0.01019     3.76896
      C   13    0.17415      0.99966     1.80626    0.01993     2.82585
      N   14   -0.11628      0.99968     2.60707    0.00953     3.61628
      C   15   -0.10776      0.99959     2.09657    0.01160     3.10776
      N   16   -0.41473      0.99977     2.90474    0.01021     3.91473
      H   17    0.09245      0.00000     0.40655    0.00101     0.40755
      H   18    0.09041      0.00000     0.40858    0.00101     0.40959
      H   19    0.09897      0.00000     0.39953    0.00150     0.40103
      H   20    0.09709      0.00000     0.40106    0.00185     0.40291
      H   21    0.09276      0.00000     0.40628    0.00096     0.40724
      H   22    0.09503      0.00000     0.40240    0.00256     0.40497
      H   23    0.08305      0.00000     0.41421    0.00273     0.41695
      H   24    0.16575      0.00000     0.33181    0.00244     0.33425
      H   25    0.17376      0.00000     0.32421    0.00203     0.32624
 =======================================================================
   * Total *    0.00000     15.99379    39.80409    0.20212    56.00000

 Normal termination of Gaussian 16 at Thu Dec 10 22:24:21 2020.
