 Gaussian 16, Revision A.03,

 -----------------------------------------------------------
 # opt freq B3LYP/6-31G(d) empiricaldispersion=gd3bj scf=xqc
 -----------------------------------------------------------

 -------------------------------
 CID_123854255_JID_5335_neutraal
 -------------------------------
 Symbolic Z-matrix:
 Charge =  0 Multiplicity = 1

 SCF Done:  E(RB3LYP) =  -830.946443807     A.U. after   15 cycles
 SCF Done:  E(RB3LYP) =  -830.951096524     A.U. after   13 cycles
 SCF Done:  E(RB3LYP) =  -830.951404739     A.U. after   13 cycles
 SCF Done:  E(RB3LYP) =  -830.952101102     A.U. after   12 cycles
 SCF Done:  E(RB3LYP) =  -830.952501162     A.U. after   12 cycles
 SCF Done:  E(RB3LYP) =  -830.953135703     A.U. after   13 cycles
 SCF Done:  E(RB3LYP) =  -830.953752042     A.U. after   12 cycles
 SCF Done:  E(RB3LYP) =  -830.954025817     A.U. after   12 cycles
 SCF Done:  E(RB3LYP) =  -830.954448057     A.U. after   12 cycles
 SCF Done:  E(RB3LYP) =  -830.954829287     A.U. after   12 cycles
 SCF Done:  E(RB3LYP) =  -830.956452247     A.U. after    8 cycles
 SCF Done:  E(RB3LYP) =  -830.956452444     A.U. after    7 cycles
 SCF Done:  E(RB3LYP) =  -830.956452509     A.U. after    7 cycles
 SCF Done:  E(RB3LYP) =  -830.956452531     A.U. after    6 cycles
 Optimization completed.
    -- Stationary point found.
 Normal termination of Gaussian 16 at Thu Dec 10 15:42:10 2020.

 --------------------------------------------------------------------
 #N Geom=AllCheck Guess=TCheck SCRF=Check GenChk RB3LYP/6-31G(d) Freq
 --------------------------------------------------------------------

 Structure from the checkpoint file:  "JID_5335.chk"
 -------------------------------
 CID_123854255_JID_5335_neutraal
 -------------------------------
 Charge =  0 Multiplicity = 1

 SCF Done:  E(RB3LYP) =  -830.956452531     A.U. after    1 cycles

  Exact polarizability: 134.314  11.573  87.928   6.377  -9.798  88.104
 Approx polarizability: 175.323  13.664 131.953  18.075 -23.819 148.357

                      1                      2                      3
                      A                      A                      A
 Frequencies --     36.3496                47.8746                63.2807
 Red. masses --      6.8043                 6.3968                 3.7838
 Frc consts  --      0.0053                 0.0086                 0.0089
 IR Inten    --      1.0257                 1.8033                 0.9494

                      4                      5                      6
                      A                      A                      A
 Frequencies --     67.5116                77.3465               123.1230
 Red. masses --      6.9420                 6.6400                 8.7967
 Frc consts  --      0.0186                 0.0234                 0.0786
 IR Inten    --      0.9538                 3.1307                 2.1426

                      7                      8                      9
                      A                      A                      A
 Frequencies --    135.2699               141.5600               149.6905
 Red. masses --      5.8074                 1.5310                 2.1799
 Frc consts  --      0.0626                 0.0181                 0.0288
 IR Inten    --      3.0560                 0.5375                 0.2371

                     10                     11                     12
                      A                      A                      A
 Frequencies --    172.5576               205.2996               239.6272
 Red. masses --      5.8062                 6.1481                 3.7578
 Frc consts  --      0.1019                 0.1527                 0.1271
 IR Inten    --      5.9853                 2.0603                 2.1082

                     13                     14                     15
                      A                      A                      A
 Frequencies --    247.5197               258.2359               275.2987
 Red. masses --      1.0892                 2.8257                 1.3455
 Frc consts  --      0.0393                 0.1110                 0.0601
 IR Inten    --     10.7054                25.3393               114.5799

                     16                     17                     18
                      A                      A                      A
 Frequencies --    340.9725               345.6794               392.7947
 Red. masses --      4.4608                 5.1206                 3.1846
 Frc consts  --      0.3056                 0.3605                 0.2895
 IR Inten    --     32.8729                22.7287                 5.4349

                     19                     20                     21
                      A                      A                      A
 Frequencies --    408.9647               479.9191               516.0223
 Red. masses --     10.3594                 3.6618                 2.8943
 Frc consts  --      1.0208                 0.4969                 0.4541
 IR Inten    --      3.0608                 9.9796                12.7778

                     22                     23                     24
                      A                      A                      A
 Frequencies --    530.8209               536.0560               617.6703
 Red. masses --      1.4799                 3.7526                 2.4013
 Frc consts  --      0.2457                 0.6353                 0.5398
 IR Inten    --     41.7153                12.2691               102.7326

                     25                     26                     27
                      A                      A                      A
 Frequencies --    627.4827               643.6958               693.9344
 Red. masses --      3.0806                 3.4080                 2.9781
 Frc consts  --      0.7146                 0.8320                 0.8449
 IR Inten    --     42.0263                 2.0575                 5.2119

                     28                     29                     30
                      A                      A                      A
 Frequencies --    701.0694               772.7852               809.9533
 Red. masses --      1.8141                 9.3717                 4.4134
 Frc consts  --      0.5253                 3.2975                 1.7059
 IR Inten    --     54.1995                43.1613                19.0685

                     31                     32                     33
                      A                      A                      A
 Frequencies --    857.7493               879.6973               890.2313
 Red. masses --      4.5372                 5.4292                 6.7659
 Frc consts  --      1.9668                 2.4755                 3.1592
 IR Inten    --      3.2498                43.0524                 7.7517

                     34                     35                     36
                      A                      A                      A
 Frequencies --    910.9696               950.5876               994.6884
 Red. masses --      4.0306                 3.8617                 4.5964
 Frc consts  --      1.9707                 2.0560                 2.6794
 IR Inten    --     13.7066                 7.5363                 3.0793

                     37                     38                     39
                      A                      A                      A
 Frequencies --   1037.7624              1041.3860              1063.3815
 Red. masses --      1.6209                 2.7540                 1.7341
 Frc consts  --      1.0285                 1.7597                 1.1553
 IR Inten    --      9.7735                65.7395                 5.7492

                     40                     41                     42
                      A                      A                      A
 Frequencies --   1136.3883              1178.1976              1230.3385
 Red. masses --      3.2811                 2.9096                 2.3460
 Frc consts  --      2.4965                 2.3797                 2.0923
 IR Inten    --     23.1386                37.6202                34.7074

                     43                     44                     45
                      A                      A                      A
 Frequencies --   1272.4491              1281.9377              1298.6946
 Red. masses --      1.6464                 1.4498                 1.4082
 Frc consts  --      1.5706                 1.4038                 1.3994
 IR Inten    --     16.2106                34.4180               107.7052

                     46                     47                     48
                      A                      A                      A
 Frequencies --   1314.7774              1345.1537              1352.0270
 Red. masses --      1.4424                 1.4802                 1.6994
 Frc consts  --      1.4691                 1.5780                 1.8303
 IR Inten    --    350.5665               123.6259               223.2409

                     49                     50                     51
                      A                      A                      A
 Frequencies --   1369.0928              1404.9055              1421.3749
 Red. masses --      2.0635                 1.1836                 1.2161
 Frc consts  --      2.2788                 1.3764                 1.4476
 IR Inten    --     18.6585                 2.0673                36.0699

                     52                     53                     54
                      A                      A                      A
 Frequencies --   1423.7804              1428.7779              1486.9824
 Red. masses --      1.5914                 1.5282                 1.5003
 Frc consts  --      1.9007                 1.8381                 1.9546
 IR Inten    --    146.1038                52.3595                 5.2392

                     55                     56                     57
                      A                      A                      A
 Frequencies --   1497.2339              1501.0643              1510.4373
 Red. masses --      1.7122                 1.0728                 1.1006
 Frc consts  --      2.2614                 1.4243                 1.4795
 IR Inten    --    160.2525                 5.2149                 5.6255

                     58                     59                     60
                      A                      A                      A
 Frequencies --   1517.9276              1684.6205              1691.6124
 Red. masses --      1.0516                 1.0711                 1.0986
 Frc consts  --      1.4276                 1.7909                 1.8523
 IR Inten    --     14.0186                46.0316                45.5968

                     61                     62                     63
                      A                      A                      A
 Frequencies --   1798.1513              1807.1854              1818.9390
 Red. masses --      7.6911                 8.6408                 9.3439
 Frc consts  --     14.6518                16.6269                18.2144
 IR Inten    --    348.8690               473.7234                94.1746

                     64                     65                     66
                      A                      A                      A
 Frequencies --   3057.4376              3104.5467              3110.7738
 Red. masses --      1.0406                 1.0720                 1.0820
 Frc consts  --      5.7313                 6.0877                 6.1688
 IR Inten    --      6.0359                17.0042                16.3499

                     67                     68                     69
                      A                      A                      A
 Frequencies --   3118.4798              3183.0469              3187.4011
 Red. masses --      1.0969                 1.0996                 1.1009
 Frc consts  --      6.2850                 6.5641                 6.5897
 IR Inten    --     13.1258                 6.8740                 1.4000

                     70                     71                     72
                      A                      A                      A
 Frequencies --   3376.2152              3382.8455              3477.9385
 Red. masses --      1.0476                 1.0467                 1.0947
 Frc consts  --      7.0355                 7.0573                 7.8017
 IR Inten    --     14.8935                 5.6884                16.9982

                     73                     74                     75
                      A                      A                      A
 Frequencies --   3488.1180              3590.8960              3610.9257
 Red. masses --      1.0953                 1.0756                 1.0760
 Frc consts  --      7.8519                 8.1719                 8.2664
 IR Inten    --      6.7002                31.1661                48.0958

 - Thermochemistry -
 -------------------
 Temperature   298.150 Kelvin.  Pressure   1.00000 Atm.
 Atom     1 has atomic number  6 and mass  12.00000

 Molecular mass:   220.08077 amu.
 Principal axes and moments of inertia in atomic units:
                           1         2         3
     Eigenvalues --  1692.935774940.686095395.48338
           X            0.99968   0.02337  -0.00953
           Y           -0.02371   0.99899  -0.03816
           Z            0.00863   0.03838   0.99923
 This molecule is an asymmetric top.
 Rotational symmetry number  1.
 Warning -- assumption of classical behavior for rotation
           may cause significant error
 Rotational temperatures (Kelvin)      0.05116     0.01753     0.01605
 Rotational constants (GHZ):           1.06604     0.36528     0.33449
 Zero-point vibrational energy     560722.6 (Joules/Mol)
                                  134.01591 (Kcal/Mol)
 Warning -- explicit consideration of  24 degrees of freedom as
           vibrations may cause significant error
 Vibrational temperatures:     52.30    68.88    91.05    97.13   111.28
          (Kelvin)            177.15   194.62   203.67   215.37   248.27
                              295.38   344.77   356.13   371.54   396.09
                              490.58   497.36   565.14   588.41   690.50
                              742.44   763.73   771.27   888.69   902.81
                              926.13   998.42  1008.68  1111.87  1165.34
                             1234.11  1265.69  1280.84  1310.68  1367.68
                             1431.13  1493.11  1498.32  1529.97  1635.01
                             1695.16  1770.18  1830.77  1844.42  1868.53
                             1891.67  1935.38  1945.27  1969.82  2021.35
                             2045.04  2048.50  2055.69  2139.44  2154.19
                             2159.70  2173.18  2183.96  2423.79  2433.85
                             2587.14  2600.14  2617.05  4398.97  4466.75
                             4475.71  4486.80  4579.69  4585.96  4857.62
                             4867.16  5003.98  5018.62  5166.50  5195.32

 Zero-point correction=                           0.213568 (Hartree/Particle)
 Thermal correction to Energy=                    0.229849
 Thermal correction to Enthalpy=                  0.230793
 Thermal correction to Gibbs Free Energy=         0.168862
 Sum of electronic and zero-point Energies=           -830.742885
 Sum of electronic and thermal Energies=              -830.726603
 Sum of electronic and thermal Enthalpies=            -830.725659
 Sum of electronic and thermal Free Energies=         -830.787591

                     E (Thermal)             CV                S
                      KCal/Mol        Cal/Mol-Kelvin    Cal/Mol-Kelvin
 Total                  144.232             57.539            130.346
 Electronic               0.000              0.000              0.000
 Translational            0.889              2.981             42.069
 Rotational               0.889              2.981             32.179
 Vibrational            142.455             51.578             56.098
 Vibration     1          0.594              1.982              5.449
 Vibration     2          0.595              1.978              4.903
 Vibration     3          0.597              1.972              4.352
 Vibration     4          0.598              1.970              4.225
 Vibration     5          0.599              1.964              3.957
 Vibration     6          0.610              1.930              3.051
 Vibration     7          0.613              1.918              2.870
 Vibration     8          0.615              1.912              2.783
 Vibration     9          0.618              1.903              2.676
 Vibration    10          0.626              1.876              2.407
 Vibration    11          0.640              1.832              2.085
 Vibration    12          0.657              1.780              1.806
 Vibration    13          0.661              1.767              1.748
 Vibration    14          0.667              1.749              1.674
 Vibration    15          0.677              1.719              1.563
 Vibration    16          0.720              1.594              1.208
 Vibration    17          0.724              1.584              1.186
 Vibration    18          0.760              1.486              0.990
 Vibration    19          0.773              1.451              0.930
 Vibration    20          0.836              1.295              0.710
 Vibration    21          0.871              1.215              0.619
 Vibration    22          0.886              1.182              0.585
 Vibration    23          0.891              1.170              0.574
 Vibration    24          0.977              0.995              0.420

                           ! Non-Optimized Parameters !
 Normal termination of Gaussian 16 at Thu Dec 10 15:50:18 2020.

 ----------------------------------------------------------------------
 # B3LYP/6-311++G(d,p) empiricaldispersion=gd3bj scf=xqc pop=npa geom=c
 heck
 ----------------------------------------------------------------------

 ---------------------------------------
 CID_123854255_JID_5335_Energie_neutraal
 ---------------------------------------
 Structure from the checkpoint file:  "JID_5335.chk"
 Charge =  0 Multiplicity = 1

 SCF Done:  E(RB3LYP) =  -831.224693855     A.U. after   15 cycles
 Normal termination of Gaussian 16 at Thu Dec 10 15:53:08 2020.

 ----------------------------------------------------------------------
 # B3LYP/6-311++G(d,p) empiricaldispersion=gd3bj scf=xqc pop=npa geom=c
 heck
 ----------------------------------------------------------------------

 -------------------------------------
 CID_123854255_JID_5335_Energie_kation
 -------------------------------------
 Structure from the checkpoint file:  "JID_5335.chk"
 Charge =  1 Multiplicity = 2

 SCF Done:  E(UB3LYP) =  -830.882937486     A.U. after   33 cycles
 SCF Done:  E(UB3LYP) =  -830.882937486     a.u. after    1 cycles
 Normal termination of Gaussian 16 at Thu Dec 10 16:01:47 2020.
 Gaussian 16:  ES64L-G16RevA.03 25-Dec-2016

 ----------------------------------------------------------------------
 # B3LYP/6-311++G(d,p) empiricaldispersion=gd3bj scf=xqc pop=npa geom=c
 heck
 ----------------------------------------------------------------------

 ------------------------------------
 CID_123854255_JID_5335_Energie_anion
 ------------------------------------
 Structure from the checkpoint file:  "JID_5335.chk"
 Charge = -1 Multiplicity = 2

                         Standard orientation:
 ---------------------------------------------------------------------
 Center     Atomic      Atomic             Coordinates (Angstroms)
 Number     Number       Type             X           Y           Z
 ---------------------------------------------------------------------
      1          6           0       -3.777820   -1.038979    0.793167
      2          6           0       -3.329586   -0.016272   -0.238284
      3          8           0       -4.103982    0.508020   -1.022444
      4          7           0       -1.990573    0.312783   -0.250000
      5          6           0       -0.958729   -0.184025    0.638534
      6          6           0       -0.266701   -1.472459    0.088658
      7          7           0        0.614105   -1.184907   -1.038253
      8          6           0        1.906406   -0.770309   -0.845387
      9          8           0        2.503769    0.029134   -1.552578
     10          8           0        2.460467   -1.393297    0.227235
     11          7           0        3.707444   -0.818912    0.671341
     12          6           0        0.149614    0.840964    0.855571
     13          8           0        0.964503    0.784535    1.752751
     14          8           0        0.187663    1.735371   -0.149508
     15          7           0        1.347340    2.609270   -0.178683
     16          1           0       -4.827647   -1.263912    0.605201
     17          1           0       -3.679686   -0.638245    1.809404
     18          1           0       -3.196002   -1.965697    0.743526
     19          1           0       -1.749335    1.065615   -0.882156
     20          1           0       -1.380073   -0.417125    1.620079
     21          1           0        0.325085   -1.941701    0.873221
     22          1           0       -1.044470   -2.169598   -0.232918
     23          1           0        0.182402   -0.724346   -1.831287
     24          1           0        4.079031   -0.367879   -0.171302
     25          1           0        3.390311   -0.058723    1.281635
     26          1           0        1.744592    2.506327    0.761421
     27          1           0        1.969116    2.084019   -0.804863
 ---------------------------------------------------------------------

 SCF Done:  E(UB3LYP) =  -831.221737304     A.U. after   33 cycles
 SCF Done:  E(UB3LYP) =  -831.221737305     a.u. after    1 cycles

 The electronic state is 2-A.
 Alpha  occ. eigenvalues --  -19.10008 -19.09063 -19.02272 -19.00668 -18.98739
 Alpha  occ. eigenvalues --  -14.27647 -14.26709 -14.25245 -14.23637 -10.23663
 Alpha  occ. eigenvalues --  -10.18265 -10.17513 -10.13232 -10.11500 -10.06973
 Alpha  occ. eigenvalues --   -1.04482  -1.02896  -0.94762  -0.94000  -0.92988
 Alpha  occ. eigenvalues --   -0.85650  -0.82670  -0.75039  -0.74837  -0.66574
 Alpha  occ. eigenvalues --   -0.63785  -0.57775  -0.53025  -0.50285  -0.48576
 Alpha  occ. eigenvalues --   -0.46399  -0.44811  -0.43111  -0.41275  -0.41185
 Alpha  occ. eigenvalues --   -0.39338  -0.38424  -0.37542  -0.37093  -0.35262
 Alpha  occ. eigenvalues --   -0.34428  -0.32720  -0.31868  -0.31241  -0.30246
 Alpha  occ. eigenvalues --   -0.29899  -0.28915  -0.28371  -0.26765  -0.24738
 Alpha  occ. eigenvalues --   -0.23697  -0.21718  -0.19927  -0.19619  -0.18358
 Alpha  occ. eigenvalues --   -0.18183  -0.15810  -0.15109   0.04542
 Alpha virt. eigenvalues --    0.06760   0.07404   0.08418   0.09324   0.09787
 Alpha virt. eigenvalues --    0.09917   0.10542   0.11155   0.11923   0.12241
 Alpha virt. eigenvalues --    0.12502   0.13017   0.13591   0.13933   0.15042

  Beta  occ. eigenvalues --  -19.10003 -19.08960 -19.02251 -19.00456 -18.98724
  Beta  occ. eigenvalues --  -14.27645 -14.26697 -14.25238 -14.23632 -10.23636
  Beta  occ. eigenvalues --  -10.17912 -10.17498 -10.13252 -10.11412 -10.06908
  Beta  occ. eigenvalues --   -1.04452  -1.02614  -0.94729  -0.93970  -0.92620
  Beta  occ. eigenvalues --   -0.85601  -0.82636  -0.74928  -0.74808  -0.66431
  Beta  occ. eigenvalues --   -0.63695  -0.57576  -0.52985  -0.50061  -0.48486
  Beta  occ. eigenvalues --   -0.46344  -0.44646  -0.42989  -0.41133  -0.41010
  Beta  occ. eigenvalues --   -0.39199  -0.38239  -0.37403  -0.36836  -0.35163
  Beta  occ. eigenvalues --   -0.34109  -0.32642  -0.31712  -0.31117  -0.30002
  Beta  occ. eigenvalues --   -0.29805  -0.28821  -0.28099  -0.26690  -0.24496
  Beta  occ. eigenvalues --   -0.23123  -0.21667  -0.19865  -0.19461  -0.18282
  Beta  occ. eigenvalues --   -0.17971  -0.15757  -0.14997
  Beta virt. eigenvalues --    0.06719   0.07768   0.08751   0.09283   0.09729
  Beta virt. eigenvalues --    0.10268   0.10563   0.10947   0.11667   0.12420
  Beta virt. eigenvalues --    0.12628   0.12718   0.13072   0.13866   0.14138

 Mulliken charges and spin densities:
               1          2
     1  C    1.112794  -1.524183
     2  C   -0.243490   0.344530
     3  O   -0.361440   0.010822
     4  N   -0.147965  -0.039869
     5  C   -0.242075   1.051226
     6  C    2.010247  -2.709586
     7  N   -0.223939   0.277818
     8  C   -0.041696  -0.113888
     9  O   -0.358913   0.024763
    10  O    0.050768   0.006948
    11  N   -0.427115   0.010511
    12  C   -1.418320   0.418255
    13  O   -0.299854   0.074711
    14  O    0.164073   0.013237
    15  N   -0.460799   0.013993
    16  H   -0.049727   0.246129
    17  H   -0.305187   0.461255
    18  H   -0.488020   0.653528
    19  H    0.307006   0.019871
    20  H   -0.188220   0.451281
    21  H    0.137781   0.104435
    22  H   -0.801302   1.038696
    23  H    0.226510   0.079805
    24  H    0.245188   0.015232
    25  H    0.293429   0.008438
    26  H    0.226983   0.043174
    27  H    0.283282   0.018868
 Sum of Mulliken charges =  -1.00000   1.00000

 Dipole moment (field-independent basis, Debye):
    X=              6.0512    Y=              4.2091    Z=             -0.9357  Tot=              7.4302
 Quadrupole moment (field-independent basis, Debye-Ang):
   XX=           -148.9520   YY=           -132.6606   ZZ=           -117.8910
   XY=             -2.6346   XZ=             -1.2799   YZ=              6.3131

 Summary of Natural Population Analysis:

                                       Natural Population
                Natural  -----------------------------------------------
    Atom  No    Charge         Core      Valence    Rydberg      Total
 -----------------------------------------------------------------------
      C    1   -0.33670      0.99963     2.33192    0.00515     3.33670
      C    2    0.34769      0.99970     1.63019    0.02241     2.65231
      O    3   -0.32244      0.99987     3.31637    0.00619     4.32244
      N    4   -0.33183      0.99966     2.82203    0.01014     3.83183
      C    5   -0.06155      0.99954     2.04828    0.01373     3.06155
      C    6   -0.08547      0.99958     2.07306    0.01283     3.08547
      N    7   -0.32404      0.99967     2.81265    0.01173     3.82404
      C    8    0.45825      0.99971     1.51263    0.02942     2.54175
      O    9   -0.34644      0.99986     3.34084    0.00574     4.34644
      O   10   -0.21188      0.99985     3.20350    0.00853     4.21188
      N   11   -0.24160      0.99977     2.73162    0.01021     3.74160
      C   12    0.44288      0.99968     1.53032    0.02711     2.55712
      O   13   -0.30860      0.99987     3.30228    0.00645     4.30860
      O   14   -0.21349      0.99984     3.20501    0.00864     4.21349
      N   15   -0.24846      0.99977     2.73859    0.01010     3.74846
      H   16    0.11326      0.00000     0.38583    0.00090     0.38674
      H   17    0.11007      0.00000     0.38885    0.00108     0.38993
      H   18    0.11453      0.00000     0.38177    0.00370     0.38547
      H   19    0.20440      0.00000     0.29313    0.00247     0.29560
      H   20    0.11925      0.00000     0.37885    0.00190     0.38075
      H   21    0.11389      0.00000     0.38420    0.00191     0.38611
      H   22    0.10868      0.00000     0.38653    0.00479     0.39132
      H   23    0.19670      0.00000     0.30123    0.00207     0.30330
      H   24    0.17467      0.00000     0.32321    0.00212     0.32533
      H   25    0.17451      0.00000     0.32342    0.00207     0.32549
      H   26    0.17388      0.00000     0.32371    0.00241     0.32612
      H   27    0.17985      0.00000     0.31793    0.00222     0.32015
 =======================================================================
   * Total *    0.00000     14.99600    42.78797    0.21603    58.00000

 Normal termination of Gaussian 16 at Thu Dec 10 16:10:23 2020.
