 Gaussian 16, Revision A.03,

 -----------------------------------------------------------
 # opt freq B3LYP/6-31G(d) empiricaldispersion=gd3bj scf=xqc
 -----------------------------------------------------------

 -------------------------------
 CID_151580417_JID_2211_neutraal
 -------------------------------
 Symbolic Z-matrix:
 Charge =  0 Multiplicity = 1

 SCF Done:  E(RB3LYP) =  -927.001913601     A.U. after   18 cycles
 SCF Done:  E(RB3LYP) =  -927.014068399     A.U. after   16 cycles
 SCF Done:  E(RB3LYP) =  -927.016106261     A.U. after   16 cycles
 SCF Done:  E(RB3LYP) =  -927.020479974     A.U. after   15 cycles
 SCF Done:  E(RB3LYP) =  -927.024265610     A.U. after   16 cycles
 SCF Done:  E(RB3LYP) =  -927.027105112     A.U. after   16 cycles
 SCF Done:  E(RB3LYP) =  -927.026099157     A.U. after   14 cycles
 SCF Done:  E(RB3LYP) =  -927.027748260     A.U. after   14 cycles
 SCF Done:  E(RB3LYP) =  -927.028040544     A.U. after   13 cycles
 SCF Done:  E(RB3LYP) =  -927.028044951     A.U. after   12 cycles
 SCF Done:  E(RB3LYP) =  -927.032244067     A.U. after   10 cycles
 SCF Done:  E(RB3LYP) =  -927.032246370     A.U. after    9 cycles
 SCF Done:  E(RB3LYP) =  -927.032247249     A.U. after    9 cycles
 SCF Done:  E(RB3LYP) =  -927.032247437     A.U. after    8 cycles
 SCF Done:  E(RB3LYP) =  -927.032247464     A.U. after    8 cycles
 Optimization completed.
    -- Stationary point found.
 Normal termination of Gaussian 16 at Wed Dec  9 17:56:17 2020.

 --------------------------------------------------------------------
 #N Geom=AllCheck Guess=TCheck SCRF=Check GenChk RB3LYP/6-31G(d) Freq
 --------------------------------------------------------------------

 Structure from the checkpoint file:  "JID_2211.chk"
 -------------------------------
 CID_151580417_JID_2211_neutraal
 -------------------------------
 Charge =  0 Multiplicity = 1

 SCF Done:  E(RB3LYP) =  -927.032247464     A.U. after    1 cycles

  Exact polarizability: 134.312   2.015 109.975  -9.731  -4.622  86.114
 Approx polarizability: 222.146   3.510 192.432 -32.181 -12.137 128.051

                      1                      2                      3
                      A                      A                      A
 Frequencies --     31.2895                57.2740                75.2251
 Red. masses --      8.3732                 8.1148                 2.3733
 Frc consts  --      0.0048                 0.0157                 0.0079
 IR Inten    --      0.1845                 3.1898                 0.1267

                      4                      5                      6
                      A                      A                      A
 Frequencies --     93.0863               121.1003               156.9577
 Red. masses --      6.8300                 7.1270                 7.3456
 Frc consts  --      0.0349                 0.0616                 0.1066
 IR Inten    --      0.4503                 0.2163                 1.3709

                      7                      8                      9
                      A                      A                      A
 Frequencies --    175.0812               204.7086               233.5152
 Red. masses --      3.5901                 4.0315                 2.1698
 Frc consts  --      0.0648                 0.0995                 0.0697
 IR Inten    --      1.1157                 1.5139                 5.2128

                     10                     11                     12
                      A                      A                      A
 Frequencies --    252.4791               272.8143               282.5190
 Red. masses --      2.9177                 1.3016                 1.6415
 Frc consts  --      0.1096                 0.0571                 0.0772
 IR Inten    --      1.7547                 5.7739                33.6311

                     13                     14                     15
                      A                      A                      A
 Frequencies --    320.1170               377.7707               394.8667
 Red. masses --      2.2055                 7.0626                 3.4490
 Frc consts  --      0.1332                 0.5938                 0.3168
 IR Inten    --     21.3664                 5.9963                 5.4001

                     16                     17                     18
                      A                      A                      A
 Frequencies --    460.4323               538.2406               560.5497
 Red. masses --      7.2033                 6.6647                 6.3059
 Frc consts  --      0.8997                 1.1376                 1.1674
 IR Inten    --      4.5656                 4.0948                27.6499

                     19                     20                     21
                      A                      A                      A
 Frequencies --    575.6545               661.2521               702.5233
 Red. masses --      7.1881                 2.6253                 5.4562
 Frc consts  --      1.4034                 0.6763                 1.5866
 IR Inten    --      3.7728                15.1564                 7.6089

                     22                     23                     24
                      A                      A                      A
 Frequencies --    767.9928               799.3875               815.9800
 Red. masses --      4.3964                 2.9608                 1.6207
 Frc consts  --      1.5278                 1.1147                 0.6358
 IR Inten    --      7.7417                14.1747                19.4254

                     25                     26                     27
                      A                      A                      A
 Frequencies --    894.4113               928.2995               947.7902
 Red. masses --      1.5018                 2.3555                 1.8182
 Frc consts  --      0.7078                 1.1960                 0.9623
 IR Inten    --     81.9791                22.0386                36.3791

                     28                     29                     30
                      A                      A                      A
 Frequencies --   1021.8549              1090.2421              1102.2693
 Red. masses --      1.9454                 2.5463                 2.4142
 Frc consts  --      1.1968                 1.7832                 1.7282
 IR Inten    --     16.0015                25.3306                29.5268

                     31                     32                     33
                      A                      A                      A
 Frequencies --   1113.7781              1122.3461              1184.0209
 Red. masses --      2.3272                 2.4121                 2.8172
 Frc consts  --      1.7009                 1.7902                 2.3269
 IR Inten    --     59.6378                19.2163               142.3186

                     34                     35                     36
                      A                      A                      A
 Frequencies --   1209.6448              1245.7075              1273.7275
 Red. masses --      1.9488                 2.4025                 1.9825
 Frc consts  --      1.6801                 2.1965                 1.8951
 IR Inten    --     35.7489                33.5165               139.2860

                     37                     38                     39
                      A                      A                      A
 Frequencies --   1284.9068              1319.6471              1349.7150
 Red. masses --      2.7873                 1.1904                 1.4099
 Frc consts  --      2.7113                 1.2214                 1.5133
 IR Inten    --    274.9492                 9.1488                22.1256

                     40                     41                     42
                      A                      A                      A
 Frequencies --   1373.2406              1381.3594              1438.7010
 Red. masses --      1.4555                 1.3791                 1.2264
 Frc consts  --      1.6172                 1.5505                 1.4957
 IR Inten    --      1.6463                 4.2261                 2.1330

                     43                     44                     45
                      A                      A                      A
 Frequencies --   1442.1365              1474.9769              1528.0908
 Red. masses --      1.3275                 1.0866                 1.0637
 Frc consts  --      1.6266                 1.3928                 1.4634
 IR Inten    --     17.5854                11.4934                 8.6280

                     46                     47                     48
                      A                      A                      A
 Frequencies --   1530.0414              1539.9392              1690.7322
 Red. masses --      1.0626                 1.0452                 1.0881
 Frc consts  --      1.4656                 1.4603                 1.8326
 IR Inten    --      4.5042                 9.2098                38.3407

                     49                     50                     51
                      A                      A                      A
 Frequencies --   1802.3688              2291.9904              2987.9474
 Red. masses --     11.3884                13.9643                 1.0723
 Frc consts  --     21.7972                43.2211                 5.6404
 IR Inten    --    201.0441               459.4776                64.0752

                     52                     53                     54
                      A                      A                      A
 Frequencies --   3054.5663              3067.7024              3086.2848
 Red. masses --      1.0616                 1.0371                 1.0880
 Frc consts  --      5.8361                 5.7503                 6.1059
 IR Inten    --      8.1736                22.1002                11.6383

                     55                     56                     57
                      A                      A                      A
 Frequencies --   3091.2445              3114.9828              3131.0467
 Red. masses --      1.0863                 1.1001                 1.0998
 Frc consts  --      6.1163                 6.2894                 6.3522
 IR Inten    --     11.6903                 5.4857                31.2237

                     58                     59                     60
                      A                      A                      A
 Frequencies --   3153.9304              3491.9705              3578.1006
 Red. masses --      1.1027                 1.0500                 1.0926
 Frc consts  --      6.4625                 7.5433                 8.2414
 IR Inten    --     23.5644                 1.4139                 2.8976

 - Thermochemistry -
 -------------------
 Temperature   298.150 Kelvin.  Pressure   1.00000 Atm.
 Atom     1 has atomic number  6 and mass  12.00000

 Molecular mass:   186.05753 amu.
 Principal axes and moments of inertia in atomic units:
                           1         2         3
     Eigenvalues --  1661.505682860.518573335.56699
           X            0.99963  -0.02223   0.01565
           Y            0.02126   0.99799   0.05975
           Z           -0.01695  -0.05939   0.99809
 This molecule is an asymmetric top.
 Rotational symmetry number  1.
 Warning -- assumption of classical behavior for rotation
           may cause significant error
 Rotational temperatures (Kelvin)      0.05213     0.03028     0.02597
 Rotational constants (GHZ):           1.08621     0.63091     0.54106
 Zero-point vibrational energy     450217.8 (Joules/Mol)
                                  107.60463 (Kcal/Mol)
 Warning -- explicit consideration of  19 degrees of freedom as
           vibrations may cause significant error
 Vibrational temperatures:     45.02    82.40   108.23   133.93   174.24
          (Kelvin)            225.83   251.90   294.53   335.98   363.26
                              392.52   406.48   460.58   543.53   568.13
                              662.46   774.41   806.51   828.24   951.39
                             1010.77  1104.97  1150.14  1174.01  1286.86
                             1335.62  1363.66  1470.22  1568.62  1585.92
                             1602.48  1614.81  1703.54  1740.41  1792.30
                             1832.61  1848.69  1898.68  1941.94  1975.79
                             1987.47  2069.97  2074.91  2122.16  2198.58
                             2201.39  2215.63  2432.59  2593.21  3297.66
                             4298.99  4394.84  4413.74  4440.48  4447.61
                             4481.77  4504.88  4537.80  5024.17  5148.09

 Zero-point correction=                           0.171479 (Hartree/Particle)
 Thermal correction to Energy=                    0.184663
 Thermal correction to Enthalpy=                  0.185607
 Thermal correction to Gibbs Free Energy=         0.130751
 Sum of electronic and zero-point Energies=           -926.860769
 Sum of electronic and thermal Energies=              -926.847584
 Sum of electronic and thermal Enthalpies=            -926.846640
 Sum of electronic and thermal Free Energies=         -926.901496

                     E (Thermal)             CV                S
                      KCal/Mol        Cal/Mol-Kelvin    Cal/Mol-Kelvin
 Total                  115.878             46.192            115.454
 Electronic               0.000              0.000              0.000
 Translational            0.889              2.981             41.569
 Rotational               0.889              2.981             31.139
 Vibrational            114.100             40.230             42.746
 Vibration     1          0.594              1.983              5.746
 Vibration     2          0.596              1.975              4.549
 Vibration     3          0.599              1.966              4.012
 Vibration     4          0.602              1.954              3.594
 Vibration     5          0.609              1.932              3.083
 Vibration     6          0.621              1.895              2.586
 Vibration     7          0.627              1.873              2.380
 Vibration     8          0.640              1.833              2.090
 Vibration     9          0.654              1.790              1.852
 Vibration    10          0.664              1.759              1.713
 Vibration    11          0.676              1.723              1.578
 Vibration    12          0.682              1.706              1.518
 Vibration    13          0.706              1.635              1.310
 Vibration    14          0.748              1.518              1.048
 Vibration    15          0.762              1.481              0.982
 Vibration    16          0.818              1.338              0.765
 Vibration    17          0.893              1.165              0.569
 Vibration    18          0.916              1.117              0.523
 Vibration    19          0.932              1.084              0.493

                           ! Non-Optimized Parameters !
 Normal termination of Gaussian 16 at Wed Dec  9 18:02:02 2020.

 ----------------------------------------------------------------------
 # B3LYP/6-311++G(d,p) empiricaldispersion=gd3bj scf=xqc pop=npa geom=c
 heck
 ----------------------------------------------------------------------

 ---------------------------------------
 CID_151580417_JID_2211_Energie_neutraal
 ---------------------------------------
 Structure from the checkpoint file:  "JID_2211.chk"
 Charge =  0 Multiplicity = 1

 SCF Done:  E(RB3LYP) =  -927.216851314     A.U. after   19 cycles
 Normal termination of Gaussian 16 at Wed Dec  9 18:05:51 2020.

 ----------------------------------------------------------------------
 # B3LYP/6-311++G(d,p) empiricaldispersion=gd3bj scf=xqc pop=npa geom=c
 heck
 ----------------------------------------------------------------------

 -------------------------------------
 CID_151580417_JID_2211_Energie_kation
 -------------------------------------
 Structure from the checkpoint file:  "JID_2211.chk"
 Charge =  1 Multiplicity = 2

 SCF Done:  E(UB3LYP) =  -926.897488934     A.U. after   33 cycles
 SCF Done:  E(UB3LYP) =  -926.897488934     a.u. after    1 cycles
 Normal termination of Gaussian 16 at Wed Dec  9 18:13:51 2020.
 Gaussian 16:  ES64L-G16RevA.03 25-Dec-2016

 ----------------------------------------------------------------------
 # B3LYP/6-311++G(d,p) empiricaldispersion=gd3bj scf=xqc pop=npa geom=c
 heck
 ----------------------------------------------------------------------

 ------------------------------------
 CID_151580417_JID_2211_Energie_anion
 ------------------------------------
 Structure from the checkpoint file:  "JID_2211.chk"
 Charge = -1 Multiplicity = 2

                         Standard orientation:
 ---------------------------------------------------------------------
 Center     Atomic      Atomic             Coordinates (Angstroms)
 Number     Number       Type             X           Y           Z
 ---------------------------------------------------------------------
      1          6           0        0.844997    0.384944    2.209611
      2          6           0        2.060725    0.283095    1.282740
      3          6           0        1.852613    0.556803   -0.195860
      4          8           0        2.638657    1.234439   -0.825195
      5          6           0        0.704809   -0.145083   -0.986595
      6          6           0        0.950573   -1.663686   -1.132134
      7          7           0        0.966672   -2.390182    0.138366
      8          6           0       -0.673987    0.274243   -0.524611
      9         16           0       -1.167223    1.843903   -0.483037
     10          7           0       -1.479980   -0.820436   -0.169775
     11          7           0       -2.646854   -0.560774    0.204324
     12          7           0       -3.716798   -0.452545    0.552976
     13          1           0        0.385645    1.376631    2.175212
     14          1           0        1.159940    0.189869    3.240141
     15          1           0        0.086253   -0.359531    1.956323
     16          1           0        2.856681    0.962083    1.602767
     17          1           0        2.439488   -0.745972    1.335901
     18          1           0        0.812007    0.285676   -1.986963
     19          1           0        0.215920   -2.050034   -1.857547
     20          1           0        1.938049   -1.773261   -1.593557
     21          1           0        0.012284   -2.520641    0.463918
     22          1           0        1.360380   -3.317127   -0.006190
 ---------------------------------------------------------------------

 SCF Done:  E(UB3LYP) =  -927.259693877     A.U. after   25 cycles

 The electronic state is 2-A.
 Alpha  occ. eigenvalues --  -88.62619 -18.98302 -14.31795 -14.23083 -14.22066
 Alpha  occ. eigenvalues --  -14.18724 -10.12962 -10.08672 -10.06843 -10.05077
 Alpha  occ. eigenvalues --  -10.05056 -10.03879  -7.71450  -5.67760  -5.67437
 Alpha  occ. eigenvalues --   -5.67010  -0.99361  -0.91748  -0.83835  -0.77836
 Alpha  occ. eigenvalues --   -0.67387  -0.64658  -0.58977  -0.52930  -0.50465
 Alpha  occ. eigenvalues --   -0.49761  -0.40511  -0.38969  -0.36968  -0.36507
 Alpha  occ. eigenvalues --   -0.35565  -0.34284  -0.32487  -0.31560  -0.30704
 Alpha  occ. eigenvalues --   -0.29920  -0.27145  -0.26756  -0.25674  -0.24434
 Alpha  occ. eigenvalues --   -0.23746  -0.22440  -0.21800  -0.18193  -0.16065
 Alpha  occ. eigenvalues --   -0.14156  -0.11976  -0.09141  -0.05536   0.02447
 Alpha virt. eigenvalues --    0.07581   0.09157   0.10305   0.10532   0.10881
 Alpha virt. eigenvalues --    0.11632   0.12562   0.13156   0.13287   0.14234
 Alpha virt. eigenvalues --    0.15019   0.15806   0.16770   0.17330   0.17682

  Beta  occ. eigenvalues --  -88.62507 -18.98302 -14.31473 -14.22503 -14.22324
  Beta  occ. eigenvalues --  -14.18725 -10.12896 -10.08668 -10.06062 -10.05137
  Beta  occ. eigenvalues --  -10.05053 -10.03875  -7.71350  -5.67724  -5.67065
  Beta  occ. eigenvalues --   -5.66948  -0.98684  -0.91725  -0.83504  -0.77825
  Beta  occ. eigenvalues --   -0.66923  -0.64408  -0.58427  -0.52884  -0.49976
  Beta  occ. eigenvalues --   -0.49636  -0.40309  -0.38839  -0.36367  -0.35578
  Beta  occ. eigenvalues --   -0.35016  -0.33891  -0.32401  -0.31042  -0.30436
  Beta  occ. eigenvalues --   -0.29483  -0.26951  -0.26448  -0.25573  -0.24141
  Beta  occ. eigenvalues --   -0.23175  -0.22254  -0.21624  -0.16491  -0.15828
  Beta  occ. eigenvalues --   -0.14128  -0.11859  -0.07329  -0.05298
  Beta virt. eigenvalues --    0.07583   0.09159   0.10041   0.10377   0.10820
  Beta virt. eigenvalues --    0.11260   0.11944   0.12611   0.13183   0.13323
  Beta virt. eigenvalues --    0.14348   0.15110   0.16402   0.16800   0.17490

 Mulliken charges and spin densities:
               1          2
     1  C   -0.532999   0.002020
     2  C   -0.037152   0.010491
     3  C   -0.520787  -0.006865
     4  O   -0.269608   0.003660
     5  C    0.991648  -0.091135
     6  C   -0.743942  -0.000341
     7  N   -0.499779  -0.000399
     8  C   -0.418649   0.432032
     9  S   -0.693066   0.293873
    10  N    0.577406  -0.179242
    11  N    0.426224   0.125082
    12  N   -0.956114   0.330216
    13  H    0.135395   0.005211
    14  H    0.121208   0.001000
    15  H    0.123652   0.004131
    16  H    0.158718   0.005011
    17  H    0.174319  -0.000010
    18  H    0.186802   0.065093
    19  H    0.163144   0.000316
    20  H    0.166029  -0.001921
    21  H    0.227425   0.002138
    22  H    0.220125  -0.000362
 Sum of Mulliken charges =  -1.00000   1.00000

 Dipole moment (field-independent basis, Debye):
    X=              3.7086    Y=             -6.5478    Z=              1.3960  Tot=              7.6535
 Quadrupole moment (field-independent basis, Debye-Ang):
   XX=           -118.7053   YY=            -94.9507   ZZ=            -88.7957
   XY=             -1.8110   XZ=              3.9408   YZ=              6.3107

 Summary of Natural Population Analysis:

                                       Natural Population
                Natural  -----------------------------------------------
    Atom  No    Charge         Core      Valence    Rydberg      Total
 -----------------------------------------------------------------------
      C    1   -0.28535      0.99966     2.28114    0.00455     3.28535
      C    2   -0.23837      0.99958     2.23200    0.00679     3.23837
      C    3    0.32498      0.99963     1.65205    0.02333     2.67502
      O    4   -0.29851      0.99987     3.29041    0.00823     4.29851
      C    5   -0.18944      0.99947     2.17244    0.01754     3.18944
      C    6   -0.08481      0.99962     2.07541    0.00978     3.08481
      N    7   -0.43017      0.99977     2.92071    0.00969     3.93017
      C    8    0.14803      0.99960     1.83081    0.02156     2.85197
      S    9   -0.06282      4.99949     3.04867    0.01466     8.06282
      N   10   -0.26607      0.99963     2.74993    0.01650     3.76607
      N   11    0.15958      0.99970     2.32335    0.01737     3.34042
      N   12    0.05917      0.99981     2.42849    0.01253     3.44083
      H   13    0.10779      0.00000     0.39123    0.00098     0.39221
      H   14    0.08789      0.00000     0.41111    0.00100     0.41211
      H   15    0.10576      0.00000     0.39286    0.00139     0.39424
      H   16    0.09649      0.00000     0.40133    0.00218     0.40351
      H   17    0.11628      0.00000     0.38244    0.00128     0.38372
      H   18    0.12506      0.00000     0.37348    0.00146     0.37494
      H   19    0.08552      0.00000     0.41304    0.00144     0.41448
      H   20    0.08741      0.00000     0.41138    0.00120     0.41259
      H   21    0.18458      0.00000     0.31383    0.00160     0.31542
      H   22    0.16698      0.00000     0.33142    0.00160     0.33302
 =======================================================================
   * Total *   -0.00000     15.99582    32.82751    0.17667    49.00000

 Normal termination of Gaussian 16 at Wed Dec  9 18:20:07 2020.
