 Gaussian 16, Revision A.03,

 -----------------------------------------------------------
 # opt freq B3LYP/6-31G(d) empiricaldispersion=gd3bj scf=xqc
 -----------------------------------------------------------

 ------------------------------
 CID_88510042_JID_1194_neutraal
 ------------------------------
 Symbolic Z-matrix:
 Charge =  0 Multiplicity = 1

 SCF Done:  E(RB3LYP) =  -1005.29322001     A.U. after   14 cycles
 SCF Done:  E(RB3LYP) =  -1005.29778303     A.U. after   14 cycles
 SCF Done:  E(RB3LYP) =  -1005.29670958     A.U. after   14 cycles
 SCF Done:  E(RB3LYP) =  -1005.29073111     A.U. after   13 cycles
 SCF Done:  E(RB3LYP) =  -1005.28251468     A.U. after   13 cycles
 SCF Done:  E(RB3LYP) =  -1005.29780192     A.U. after   10 cycles
 SCF Done:  E(RB3LYP) =  -1005.29939604     A.U. after   12 cycles
 SCF Done:  E(RB3LYP) =  -1005.30002349     A.U. after   12 cycles
 SCF Done:  E(RB3LYP) =  -1005.30023399     A.U. after   11 cycles
 SCF Done:  E(RB3LYP) =  -1005.30029379     A.U. after   12 cycles
 SCF Done:  E(RB3LYP) =  -1005.30051806     A.U. after    8 cycles
 SCF Done:  E(RB3LYP) =  -1005.30051859     A.U. after    8 cycles
 SCF Done:  E(RB3LYP) =  -1005.30051951     A.U. after    9 cycles
 SCF Done:  E(RB3LYP) =  -1005.30051984     A.U. after    9 cycles
 SCF Done:  E(RB3LYP) =  -1005.30051992     A.U. after    7 cycles
 SCF Done:  E(RB3LYP) =  -1005.30051996     A.U. after    7 cycles
 Optimization completed.
    -- Stationary point found.
 Normal termination of Gaussian 16 at Tue Dec  8 19:21:30 2020.

 --------------------------------------------------------------------
 #N Geom=AllCheck Guess=TCheck SCRF=Check GenChk RB3LYP/6-31G(d) Freq
 --------------------------------------------------------------------

 Structure from the checkpoint file:  "JID_1194.chk"
 ------------------------------
 CID_88510042_JID_1194_neutraal
 ------------------------------
 Charge =  0 Multiplicity = 1

 SCF Done:  E(RB3LYP) =  -1005.30051996     A.U. after    1 cycles

  Exact polarizability:  95.365   1.460  70.550  -1.930  -2.201  71.990
 Approx polarizability: 121.763  -1.470 100.936  -5.369  -1.990 112.258

                      1                      2                      3
                      A                      A                      A
 Frequencies --     20.8119                43.9004                65.9866
 Red. masses --      5.8530                 4.6689                 8.5277
 Frc consts  --      0.0015                 0.0053                 0.0219
 IR Inten    --      3.2090                 0.9954                 1.2318

                      4                      5                      6
                      A                      A                      A
 Frequencies --     71.7425                90.3307               139.6776
 Red. masses --      3.7940                 6.9346                 3.4056
 Frc consts  --      0.0115                 0.0333                 0.0391
 IR Inten    --      5.5049                 1.0609                 8.4273

                      7                      8                      9
                      A                      A                      A
 Frequencies --    146.6802               181.9982               251.4120
 Red. masses --      3.0437                 4.5764                 1.2952
 Frc consts  --      0.0386                 0.0893                 0.0482
 IR Inten    --      2.3813                 7.2429                76.1981

                     10                     11                     12
                      A                      A                      A
 Frequencies --    253.5509               280.0881               328.8955
 Red. masses --      1.2512                 3.1296                 1.1500
 Frc consts  --      0.0474                 0.1447                 0.0733
 IR Inten    --     20.1889                 2.8175                26.2851

                     13                     14                     15
                      A                      A                      A
 Frequencies --    330.7449               355.1019               392.7714
 Red. masses --      2.6497                 9.1807                 2.8316
 Frc consts  --      0.1708                 0.6821                 0.2574
 IR Inten    --      7.5184                 2.0642                12.2488

                     16                     17                     18
                      A                      A                      A
 Frequencies --    412.3452               496.5558               513.9217
 Red. masses --      2.7450                 5.4296                 6.2971
 Frc consts  --      0.2750                 0.7888                 0.9799
 IR Inten    --     32.1732                22.9111                24.8983

                     19                     20                     21
                      A                      A                      A
 Frequencies --    517.8879               522.8520               616.8349
 Red. masses --      3.6420                 7.1526                 1.2504
 Frc consts  --      0.5755                 1.1520                 0.2803
 IR Inten    --      5.8165                51.6328               196.8471

                     22                     23                     24
                      A                      A                      A
 Frequencies --    735.7053               764.5365               769.1067
 Red. masses --      2.5185                 3.1290                 7.0982
 Frc consts  --      0.8032                 1.0776                 2.4739
 IR Inten    --     11.6726                24.6846                50.3282

                     25                     26                     27
                      A                      A                      A
 Frequencies --    827.9313               874.6145               897.5797
 Red. masses --      1.4956                 1.3700                 2.6461
 Frc consts  --      0.6040                 0.6175                 1.2561
 IR Inten    --    245.2563                53.3783                93.4284

                     28                     29                     30
                      A                      A                      A
 Frequencies --    905.2368               934.8513               958.8967
 Red. masses --      2.5599                 1.6143                 2.1143
 Frc consts  --      1.2360                 0.8312                 1.1454
 IR Inten    --    209.0113                39.6317                82.7788

                     31                     32                     33
                      A                      A                      A
 Frequencies --    977.3371              1063.1288              1098.8486
 Red. masses --      1.6250                 2.3381                 2.0829
 Frc consts  --      0.9145                 1.5570                 1.4818
 IR Inten    --     41.3238                38.7909                17.6495

                     34                     35                     36
                      A                      A                      A
 Frequencies --   1126.4408              1171.2847              1174.4001
 Red. masses --      2.1764                 1.3664                 4.0074
 Frc consts  --      1.6270                 1.1045                 3.2564
 IR Inten    --      1.8673                60.4944               197.8091

                     37                     38                     39
                      A                      A                      A
 Frequencies --   1194.0210              1230.8560              1279.5503
 Red. masses --      1.4742                 1.2067                 1.4121
 Frc consts  --      1.2383                 1.0772                 1.3622
 IR Inten    --     38.6789                32.6904                18.0274

                     40                     41                     42
                      A                      A                      A
 Frequencies --   1352.0450              1361.4331              1371.5608
 Red. masses --      1.3425                 1.4369                 2.1901
 Frc consts  --      1.4459                 1.5691                 2.4274
 IR Inten    --     11.6351                41.1728               113.3506

                     43                     44                     45
                      A                      A                      A
 Frequencies --   1394.0375              1418.1056              1429.1754
 Red. masses --      1.3368                 1.2804                 1.3093
 Frc consts  --      1.5306                 1.5171                 1.5756
 IR Inten    --      4.4662                 6.7827                 6.3917

                     46                     47                     48
                      A                      A                      A
 Frequencies --   1463.3257              1483.3115              1517.5907
 Red. masses --      1.3938                 1.3362                 1.0902
 Frc consts  --      1.7584                 1.7322                 1.4793
 IR Inten    --      2.0015               257.5342                 8.5444

                     49                     50                     51
                      A                      A                      A
 Frequencies --   1533.9667              1692.9785              1718.7083
 Red. masses --      1.0822                 1.0886                 1.0813
 Frc consts  --      1.5003                 1.8383                 1.8819
 IR Inten    --      1.8472                26.0108                29.8909

                     52                     53                     54
                      A                      A                      A
 Frequencies --   2884.2136              3024.6533              3037.8466
 Red. masses --      1.0744                 1.0726                 1.0677
 Frc consts  --      5.2661                 5.7816                 5.8056
 IR Inten    --   2222.2657                15.8956                66.1066

                     55                     56                     57
                      A                      A                      A
 Frequencies --   3106.6438              3113.9561              3141.1460
 Red. masses --      1.0973                 1.0895                 1.0917
 Frc consts  --      6.2394                 6.2242                 6.3466
 IR Inten    --     20.8507                24.2089                 9.2555

                     58                     59                     60
                      A                      A                      A
 Frequencies --   3496.4393              3497.9809              3578.0969
 Red. masses --      1.0505                 1.0494                 1.0928
 Frc consts  --      7.5669                 7.5653                 8.2432
 IR Inten    --      5.2256                 4.0155                 3.1191

                     61                     62                     63
                      A                      A                      A
 Frequencies --   3583.4908              3586.8313              3704.8264
 Red. masses --      1.0706                 1.0871                 1.0658
 Frc consts  --      8.1003                 8.2406                 8.6194
 IR Inten    --     66.4953                45.4108                94.8957

 - Thermochemistry -
 -------------------
 Temperature   298.150 Kelvin.  Pressure   1.00000 Atm.
 Atom     1 has atomic number  6 and mass  12.00000

 Molecular mass:   188.04669 amu.
 Principal axes and moments of inertia in atomic units:
                           1         2         3
     Eigenvalues --   912.521603905.846554132.71169
           X            0.99997   0.00705  -0.00410
           Y           -0.00717   0.99953  -0.02977
           Z            0.00389   0.02980   0.99955
 This molecule is an asymmetric top.
 Rotational symmetry number  1.
 Warning -- assumption of classical behavior for rotation
           may cause significant error
 Rotational temperatures (Kelvin)      0.09492     0.02218     0.02096
 Rotational constants (GHZ):           1.97775     0.46206     0.43670
 Zero-point vibrational energy     487542.7 (Joules/Mol)
                                  116.52551 (Kcal/Mol)
 Warning -- explicit consideration of  21 degrees of freedom as
           vibrations may cause significant error
 Vibrational temperatures:     29.94    63.16    94.94   103.22   129.97
          (Kelvin)            200.96   211.04   261.85   361.73   364.80
                              402.98   473.21   475.87   510.91   565.11
                              593.27   714.43   739.42   745.13   752.27
                              887.49  1058.52  1100.00  1106.57  1191.21
                             1258.38  1291.42  1302.43  1345.04  1379.64
                             1406.17  1529.61  1581.00  1620.70  1685.22
                             1689.70  1717.93  1770.93  1840.99  1945.29
                             1958.80  1973.37  2005.71  2040.34  2056.26
                             2105.40  2134.15  2183.47  2207.04  2435.82
                             2472.84  4149.74  4351.80  4370.78  4469.77
                             4480.29  4519.41  5030.60  5032.81  5148.08
                             5155.84  5160.65  5330.42

 Zero-point correction=                           0.185695 (Hartree/Particle)
 Thermal correction to Energy=                    0.199552
 Thermal correction to Enthalpy=                  0.200496
 Thermal correction to Gibbs Free Energy=         0.143540
 Sum of electronic and zero-point Energies=          -1005.114825
 Sum of electronic and thermal Energies=             -1005.100968
 Sum of electronic and thermal Enthalpies=           -1005.100024
 Sum of electronic and thermal Free Energies=        -1005.156979

                     E (Thermal)             CV                S
                      KCal/Mol        Cal/Mol-Kelvin    Cal/Mol-Kelvin
 Total                  125.221             48.827            119.874
 Electronic               0.000              0.000              0.000
 Translational            0.889              2.981             41.600
 Rotational               0.889              2.981             31.066
 Vibrational            123.443             42.866             47.207
 Vibration     1          0.593              1.986              6.555
 Vibration     2          0.595              1.980              5.075
 Vibration     3          0.597              1.970              4.270
 Vibration     4          0.598              1.967              4.105
 Vibration     5          0.602              1.956              3.653
 Vibration     6          0.615              1.914              2.808
 Vibration     7          0.617              1.906              2.715
 Vibration     8          0.630              1.864              2.308
 Vibration     9          0.663              1.760              1.721
 Vibration    10          0.665              1.757              1.706
 Vibration    11          0.680              1.710              1.533
 Vibration    12          0.712              1.618              1.266
 Vibration    13          0.713              1.614              1.256
 Vibration    14          0.731              1.565              1.143
 Vibration    15          0.760              1.486              0.990
 Vibration    16          0.776              1.443              0.918
 Vibration    17          0.852              1.258              0.667
 Vibration    18          0.869              1.219              0.624
 Vibration    19          0.873              1.210              0.615
 Vibration    20          0.878              1.199              0.603
 Vibration    21          0.977              0.996              0.422

 Optimization completed.
    -- Stationary point found.
 Normal termination of Gaussian 16 at Tue Dec  8 19:25:58 2020.

 ----------------------------------------------------------------------
 # B3LYP/6-311++G(d,p) empiricaldispersion=gd3bj scf=xqc pop=npa geom=c
 heck
 ----------------------------------------------------------------------

 --------------------------------------
 CID_88510042_JID_1194_Energie_neutraal
 --------------------------------------
 Structure from the checkpoint file:  "JID_1194.chk"
 Charge =  0 Multiplicity = 1

 SCF Done:  E(RB3LYP) =  -1005.55061549     A.U. after   13 cycles
 Normal termination of Gaussian 16 at Tue Dec  8 19:27:52 2020.

 ----------------------------------------------------------------------
 # B3LYP/6-311++G(d,p) empiricaldispersion=gd3bj scf=xqc pop=npa geom=c
 heck
 ----------------------------------------------------------------------

 ------------------------------------
 CID_88510042_JID_1194_Energie_kation
 ------------------------------------
 Structure from the checkpoint file:  "JID_1194.chk"
 Charge =  1 Multiplicity = 2

 SCF Done:  E(UB3LYP) =  -1005.21404819     A.U. after   25 cycles
 Normal termination of Gaussian 16 at Tue Dec  8 19:33:01 2020.
 Gaussian 16:  ES64L-G16RevA.03 25-Dec-2016

 ----------------------------------------------------------------------
 # B3LYP/6-311++G(d,p) empiricaldispersion=gd3bj scf=xqc pop=npa geom=c
 heck
 ----------------------------------------------------------------------

 -----------------------------------
 CID_88510042_JID_1194_Energie_anion
 -----------------------------------
 Structure from the checkpoint file:  "JID_1194.chk"
 Charge = -1 Multiplicity = 2

                         Standard orientation:
 ---------------------------------------------------------------------
 Center     Atomic      Atomic             Coordinates (Angstroms)
 Number     Number       Type             X           Y           Z
 ---------------------------------------------------------------------
      1          6           0       -1.403419    1.080382    0.817731
      2          6           0       -1.718680   -0.430140    0.657272
      3          6           0       -3.214771   -0.746192    0.547090
      4          7           0       -3.720536   -0.233132   -0.743213
      5          8           0       -1.107899   -0.981579   -0.525555
      6          7           0       -1.357606    1.882433   -0.404043
      7          8           0        1.435588   -1.007177   -1.022116
      8         16           0        2.209195   -0.179055    0.088126
      9          8           0        1.567206   -0.350313    1.378822
     10          8           0        3.628272   -0.382634   -0.123112
     11          8           0        1.860698    1.371573   -0.345052
     12          1           0       -0.432966    1.183079    1.307472
     13          1           0       -2.148603    1.506334    1.505331
     14          1           0       -1.291552   -0.977597    1.501723
     15          1           0       -3.337322   -1.833634    0.548491
     16          1           0       -3.751027   -0.346210    1.418900
     17          1           0       -4.492541   -0.802230   -1.079705
     18          1           0       -4.087647    0.709601   -0.632794
     19          1           0       -1.709338   -0.712796   -1.251167
     20          1           0       -0.470512    1.721618   -0.873750
     21          1           0       -2.094850    1.617015   -1.051884
     22          1           0        0.438638   -1.010936   -0.805080
     23          1           0        2.527908    1.642259   -1.003220
 ---------------------------------------------------------------------

 SCF Done:  E(UB3LYP) =  -1005.54970282     A.U. after   24 cycles

 The electronic state is 2-A.
 Alpha  occ. eigenvalues --  -89.01819 -19.08407 -19.07251 -19.04439 -19.04211
 Alpha  occ. eigenvalues --  -19.04088 -14.20358 -14.18328 -10.12476 -10.09907
 Alpha  occ. eigenvalues --  -10.08712  -8.07516  -6.03856  -6.03771  -6.03662
 Alpha  occ. eigenvalues --   -1.08968  -0.96195  -0.95094  -0.94194  -0.94034
 Alpha  occ. eigenvalues --   -0.79046  -0.77168  -0.64605  -0.58268  -0.55957
 Alpha  occ. eigenvalues --   -0.51036  -0.49580  -0.43317  -0.43027  -0.41001
 Alpha  occ. eigenvalues --   -0.39923  -0.38292  -0.37958  -0.36946  -0.35015
 Alpha  occ. eigenvalues --   -0.33996  -0.32280  -0.30483  -0.29794  -0.29120
 Alpha  occ. eigenvalues --   -0.27881  -0.27625  -0.26233  -0.24385  -0.23590
 Alpha  occ. eigenvalues --   -0.23168  -0.22325  -0.20656  -0.16608  -0.13537
 Alpha  occ. eigenvalues --    0.03740
 Alpha virt. eigenvalues --    0.05726   0.08135   0.08587   0.10071   0.11209
 Alpha virt. eigenvalues --    0.11615   0.11722   0.12611   0.13275   0.14297
 Alpha virt. eigenvalues --    0.14896   0.15527   0.15635   0.15969   0.17100

  Beta  occ. eigenvalues --  -89.01807 -19.08326 -19.07218 -19.04411 -19.04187
  Beta  occ. eigenvalues --  -19.04060 -14.20260 -14.18297 -10.12471 -10.09875
  Beta  occ. eigenvalues --  -10.08700  -8.07499  -6.03841  -6.03758  -6.03652
  Beta  occ. eigenvalues --   -1.08878  -0.96069  -0.94976  -0.94118  -0.93963
  Beta  occ. eigenvalues --   -0.78917  -0.77102  -0.64514  -0.58181  -0.55848
  Beta  occ. eigenvalues --   -0.50956  -0.49521  -0.43282  -0.42960  -0.40961
  Beta  occ. eigenvalues --   -0.39855  -0.38220  -0.37891  -0.36890  -0.34960
  Beta  occ. eigenvalues --   -0.33942  -0.32200  -0.30429  -0.29737  -0.29072
  Beta  occ. eigenvalues --   -0.27827  -0.27541  -0.26188  -0.24347  -0.23548
  Beta  occ. eigenvalues --   -0.23129  -0.22295  -0.20617  -0.16521  -0.13501
  Beta virt. eigenvalues --    0.06493   0.07366   0.08566   0.09318   0.10681
  Beta virt. eigenvalues --    0.11575   0.11859   0.12017   0.13050   0.13555
  Beta virt. eigenvalues --    0.14464   0.15013   0.15654   0.15943   0.16231

 Mulliken charges and spin densities:
               1          2
     1  C    0.095271  -0.760684
     2  C   -0.740678   0.928342
     3  C    1.352329  -2.028850
     4  N   -0.402772  -0.059906
     5  O   -0.351221   0.003063
     6  N   -0.406290   0.029196
     7  O   -0.392719   0.015091
     8  S    0.646689  -0.317781
     9  O   -0.262382  -0.017479
    10  O   -0.202823   0.007875
    11  O   -0.254047  -0.046281
    12  H    0.081123   0.130389
    13  H   -0.020842   0.177660
    14  H    0.269252  -0.057236
    15  H   -0.380470   0.576182
    16  H   -0.184003   0.325020
    17  H   -0.479230   0.758693
    18  H   -0.169647   0.415084
    19  H    0.282120   0.029772
    20  H    0.192855   0.102384
    21  H    0.141754   0.102972
    22  H    0.364316   0.200573
    23  H   -0.178587   0.485921
 Sum of Mulliken charges =  -1.00000   1.00000

 Dipole moment (field-independent basis, Debye):
    X=              4.5923    Y=             -0.5189    Z=              1.9065  Tot=              4.9993
 Quadrupole moment (field-independent basis, Debye-Ang):
   XX=           -160.2536   YY=           -106.4660   ZZ=            -96.7799
   XY=             -2.2983   XZ=             -8.0313   YZ=             -1.0270

 Summary of Natural Population Analysis:

                                       Natural Population
                Natural  -----------------------------------------------
    Atom  No    Charge         Core      Valence    Rydberg      Total
 -----------------------------------------------------------------------
      C    1   -0.10815      0.99961     2.09693    0.01160     3.10815
      C    2    0.05310      0.99957     1.93363    0.01370     2.94690
      C    3   -0.10139      0.99961     2.08905    0.01273     3.10139
      N    4   -0.44406      0.99977     2.93219    0.01210     3.94406
      O    5   -0.39572      0.99988     3.38657    0.00927     4.39572
      N    6   -0.42531      0.99978     2.91455    0.01099     3.92531
      O    7   -0.44344      0.99989     3.43773    0.00583     4.44344
      S    8    1.22466      4.99956     1.66500    0.11078     6.77534
      O    9   -0.44799      0.99989     3.44166    0.00644     4.44799
      O   10   -0.44833      0.99989     3.44252    0.00591     4.44833
      O   11   -0.43474      0.99991     3.42742    0.00741     4.43474
      H   12    0.10442      0.00000     0.39391    0.00167     0.39558
      H   13    0.08760      0.00000     0.41114    0.00126     0.41240
      H   14    0.09564      0.00000     0.40316    0.00121     0.40436
      H   15    0.09700      0.00000     0.40170    0.00129     0.40300
      H   16    0.08927      0.00000     0.40919    0.00155     0.41073
      H   17    0.19176      0.00000     0.29612    0.01212     0.30824
      H   18    0.18342      0.00000     0.31148    0.00510     0.31658
      H   19    0.25229      0.00000     0.24342    0.00428     0.24771
      H   20    0.18060      0.00000     0.31652    0.00288     0.31940
      H   21    0.17469      0.00000     0.32243    0.00288     0.32531
      H   22    0.26221      0.00000     0.23335    0.00444     0.23779
      H   23    0.25248      0.00000     0.23680    0.01072     0.24752
 =======================================================================
   * Total *   -0.00000     14.99736    34.74648    0.25616    50.00000

 Normal termination of Gaussian 16 at Tue Dec  8 19:37:58 2020.
