 Gaussian 16, Revision A.03,

 -----------------------------------------------------------
 # opt freq B3LYP/6-31G(d) empiricaldispersion=gd3bj scf=xqc
 -----------------------------------------------------------

 -------------------------------
 CID_134382186_JID_2972_neutraal
 -------------------------------
 Symbolic Z-matrix:
 Charge =  0 Multiplicity = 1

 SCF Done:  E(RB3LYP) =  -558.435749985     A.U. after   13 cycles
 SCF Done:  E(RB3LYP) =  -558.441590480     A.U. after   11 cycles
 SCF Done:  E(RB3LYP) =  -558.442975963     A.U. after   10 cycles
 SCF Done:  E(RB3LYP) =  -558.443333590     A.U. after   11 cycles
 SCF Done:  E(RB3LYP) =  -558.443427774     A.U. after    9 cycles
 SCF Done:  E(RB3LYP) =  -558.443480051     A.U. after   10 cycles
 SCF Done:  E(RB3LYP) =  -558.443512998     A.U. after   10 cycles
 SCF Done:  E(RB3LYP) =  -558.443554417     A.U. after   10 cycles
 SCF Done:  E(RB3LYP) =  -558.443567787     A.U. after   10 cycles
 SCF Done:  E(RB3LYP) =  -558.443566833     A.U. after    9 cycles
 SCF Done:  E(RB3LYP) =  -558.443566717     A.U. after    7 cycles
 SCF Done:  E(RB3LYP) =  -558.443567792     A.U. after    8 cycles
 SCF Done:  E(RB3LYP) =  -558.443566862     A.U. after    8 cycles
 Optimization completed.
    -- Stationary point found.
 Normal termination of Gaussian 16 at Wed Dec  9 18:25:23 2020.

 --------------------------------------------------------------------
 #N Geom=AllCheck Guess=TCheck SCRF=Check GenChk RB3LYP/6-31G(d) Freq
 --------------------------------------------------------------------

 Structure from the checkpoint file:  "JID_2972.chk"
 -------------------------------
 CID_134382186_JID_2972_neutraal
 -------------------------------
 Charge =  0 Multiplicity = 1

 SCF Done:  E(RB3LYP) =  -558.443566862     A.U. after    1 cycles

  Exact polarizability: 117.616   0.151  97.019   1.429  -1.769  92.069
 Approx polarizability: 145.034   4.285 141.957   3.193   1.256 138.464

                      1                      2                      3
                      A                      A                      A
 Frequencies --     43.9550                90.1662               150.3111
 Red. masses --      5.1878                 3.4425                 2.9887
 Frc consts  --      0.0059                 0.0165                 0.0398
 IR Inten    --      0.2697                 0.9496                 2.1988

                      4                      5                      6
                      A                      A                      A
 Frequencies --    170.5890               202.2407               225.0545
 Red. masses --      2.8018                 2.5084                 1.2247
 Frc consts  --      0.0480                 0.0604                 0.0365
 IR Inten    --      0.1942                 1.1867                 0.2666

                      7                      8                      9
                      A                      A                      A
 Frequencies --    284.6303               330.9659               362.2084
 Red. masses --      2.2671                 1.9286                 2.1988
 Frc consts  --      0.1082                 0.1245                 0.1700
 IR Inten    --      1.2649                35.8200                 5.0798

                     10                     11                     12
                      A                      A                      A
 Frequencies --    379.7529               392.3125               426.3801
 Red. masses --      1.9007                 1.8230                 1.9268
 Frc consts  --      0.1615                 0.1653                 0.2064
 IR Inten    --      0.6005                17.5729                17.4278

                     13                     14                     15
                      A                      A                      A
 Frequencies --    445.8100               491.6840               500.0879
 Red. masses --      2.4411                 2.8444                 3.0173
 Frc consts  --      0.2859                 0.4051                 0.4446
 IR Inten    --      1.2432                 8.6948                12.1675

                     16                     17                     18
                      A                      A                      A
 Frequencies --    543.3177               613.9681               643.3277
 Red. masses --      3.7666                 3.0813                 2.0665
 Frc consts  --      0.6551                 0.6843                 0.5039
 IR Inten    --      4.6034                31.0632                24.8394

                     19                     20                     21
                      A                      A                      A
 Frequencies --    674.6129               766.3380               781.6015
 Red. masses --      2.3400                 3.2235                 2.6401
 Frc consts  --      0.6274                 1.1154                 0.9502
 IR Inten    --     16.7833                 3.3952                 1.5546

                     22                     23                     24
                      A                      A                      A
 Frequencies --    797.9959               872.7245               888.5899
 Red. masses --      1.8105                 2.3863                 2.5267
 Frc consts  --      0.6793                 1.0708                 1.1755
 IR Inten    --      2.6087               152.9937                10.9199

                     25                     26                     27
                      A                      A                      A
 Frequencies --    911.4848               961.0268               969.0860
 Red. masses --      2.2596                 1.9366                 2.5228
 Frc consts  --      1.1061                 1.0538                 1.3959
 IR Inten    --     23.8312                 3.5093                25.9321

                     28                     29                     30
                      A                      A                      A
 Frequencies --    974.7724               991.1040               998.8861
 Red. masses --      1.6447                 1.8935                 1.9201
 Frc consts  --      0.9208                 1.0958                 1.1287
 IR Inten    --      1.5718                 1.1159                18.9111

                     31                     32                     33
                      A                      A                      A
 Frequencies --   1019.5642              1035.1939              1072.0832
 Red. masses --      1.7537                 1.8040                 1.8800
 Frc consts  --      1.0741                 1.1390                 1.2731
 IR Inten    --      2.4565                 4.1532                55.0456

                     34                     35                     36
                      A                      A                      A
 Frequencies --   1086.4319              1101.6577              1117.7858
 Red. masses --      2.0745                 3.4385                 1.2831
 Frc consts  --      1.4427                 2.4587                 0.9446
 IR Inten    --     74.3923                11.2593                 7.7516

                     37                     38                     39
                      A                      A                      A
 Frequencies --   1137.8270              1173.0003              1181.8220
 Red. masses --      3.4020                 2.0702                 2.2686
 Frc consts  --      2.5950                 1.6782                 1.8668
 IR Inten    --    263.6684                25.7642                 5.4522

                     40                     41                     42
                      A                      A                      A
 Frequencies --   1191.9544              1204.2648              1221.8736
 Red. masses --      2.3179                 1.2237                 1.2645
 Frc consts  --      1.9403                 1.0456                 1.1123
 IR Inten    --      7.5172                 4.2072                 5.4842

                     43                     44                     45
                      A                      A                      A
 Frequencies --   1269.1210              1291.9941              1313.5046
 Red. masses --      1.5343                 1.3319                 1.6096
 Frc consts  --      1.4560                 1.3099                 1.6362
 IR Inten    --     35.8476                 5.6260                13.0656

                     46                     47                     48
                      A                      A                      A
 Frequencies --   1327.0455              1345.7282              1368.4017
 Red. masses --      1.3166                 1.3740                 1.5772
 Frc consts  --      1.3661                 1.4660                 1.7400
 IR Inten    --     18.2071                38.4871                 1.4949

                     49                     50                     51
                      A                      A                      A
 Frequencies --   1375.1721              1382.9175              1396.6217
 Red. masses --      1.5605                 1.6653                 1.3821
 Frc consts  --      1.7387                 1.8764                 1.5884
 IR Inten    --      1.5609                 5.6339                 0.6045

                     52                     53                     54
                      A                      A                      A
 Frequencies --   1402.8116              1411.3750              1426.2866
 Red. masses --      1.3821                 1.4643                 1.4974
 Frc consts  --      1.6025                 1.7186                 1.7948
 IR Inten    --      2.6596                 2.0946                 8.7632

                     55                     56                     57
                      A                      A                      A
 Frequencies --   1441.0914              1443.2946              1485.4378
 Red. masses --      1.3897                 1.2794                 1.2955
 Frc consts  --      1.7004                 1.5702                 1.6842
 IR Inten    --      1.6798                 7.1793               145.7430

                     58                     59                     60
                      A                      A                      A
 Frequencies --   1503.9561              1513.4446              1516.0755
 Red. masses --      1.0838                 1.0794                 1.0830
 Frc consts  --      1.4443                 1.4567                 1.4666
 IR Inten    --      1.7577                 2.8700                 7.1156

                     61                     62                     63
                      A                      A                      A
 Frequencies --   1531.3298              1536.1205              1538.5753
 Red. masses --      1.0965                 1.0604                 1.0589
 Frc consts  --      1.5149                 1.4743                 1.4768
 IR Inten    --      0.6312                 9.7536                 1.3303

                     64                     65                     66
                      A                      A                      A
 Frequencies --   1547.8958              2976.9732              3025.2499
 Red. masses --      1.0988                 1.0724                 1.0816
 Frc consts  --      1.5512                 5.5995                 5.8325
 IR Inten    --      5.3845                62.1423                19.5405

                     67                     68                     69
                      A                      A                      A
 Frequencies --   3027.3293              3039.9071              3042.7030
 Red. masses --      1.0852                 1.0626                 1.0478
 Frc consts  --      5.8599                 5.7854                 5.7155
 IR Inten    --    102.4989                 5.7724                 8.6873

                     70                     71                     72
                      A                      A                      A
 Frequencies --   3045.9573              3047.0407              3055.9591
 Red. masses --      1.0570                 1.0621                 1.0613
 Frc consts  --      5.7779                 5.8099                 5.8393
 IR Inten    --     55.7437                56.1801                32.7451

                     73                     74                     75
                      A                      A                      A
 Frequencies --   3082.7317              3086.5377              3093.6876
 Red. masses --      1.1001                 1.0990                 1.1016
 Frc consts  --      6.1596                 6.1685                 6.2122
 IR Inten    --     33.1419                18.1529                 6.8721

                     76                     77                     78
                      A                      A                      A
 Frequencies --   3095.1773              3099.7924              3108.1697
 Red. masses --      1.0975                 1.0960                 1.1024
 Frc consts  --      6.1948                 6.2048                 6.2748
 IR Inten    --     23.5341                89.7516                37.1812

                     79                     80                     81
                      A                      A                      A
 Frequencies --   3114.6390              3547.9303              3702.0265
 Red. masses --      1.1003                 1.0757                 1.0642
 Frc consts  --      6.2890                 7.9777                 8.5935
 IR Inten    --     49.9757                 2.0131                10.6576

 - Thermochemistry -
 -------------------
 Temperature   298.150 Kelvin.  Pressure   1.00000 Atm.
 Atom     1 has atomic number  6 and mass  12.00000

 Molecular mass:   171.12593 amu.
 Principal axes and moments of inertia in atomic units:
                           1         2         3
     Eigenvalues --   932.777792987.520573144.40034
           X            0.99994  -0.01053  -0.00022
           Y            0.01050   0.99806  -0.06137
           Z            0.00087   0.06136   0.99812
 This molecule is an asymmetric top.
 Rotational symmetry number  1.
 Warning -- assumption of classical behavior for rotation
           may cause significant error
 Rotational temperatures (Kelvin)      0.09286     0.02899     0.02755
 Rotational constants (GHZ):           1.93480     0.60409     0.57395
 Zero-point vibrational energy     687783.7 (Joules/Mol)
                                  164.38425 (Kcal/Mol)
 Warning -- explicit consideration of  17 degrees of freedom as
           vibrations may cause significant error
 Vibrational temperatures:     63.24   129.73   216.26   245.44   290.98
          (Kelvin)            323.80   409.52   476.19   521.14   546.38
                              564.45   613.47   641.42   707.42   719.52
                              781.71   883.36   925.61   970.62  1102.59
                             1124.55  1148.14  1255.66  1278.48  1311.42
                             1382.70  1394.30  1402.48  1425.98  1437.17
                             1466.93  1489.41  1542.49  1563.13  1585.04
                             1608.24  1637.08  1687.69  1700.38  1714.96
                             1732.67  1758.00  1825.98  1858.89  1889.84
                             1909.32  1936.20  1968.82  1978.57  1989.71
                             2009.43  2018.33  2030.65  2052.11  2073.41
                             2076.58  2137.21  2163.86  2177.51  2181.29
                             2203.24  2210.13  2213.67  2227.08  4283.20
                             4352.66  4355.65  4373.75  4377.77  4382.45
                             4384.01  4396.84  4435.36  4440.84  4451.13
                             4453.27  4459.91  4471.96  4481.27  5104.68
                             5326.39

 Zero-point correction=                           0.261963 (Hartree/Particle)
 Thermal correction to Energy=                    0.273210
 Thermal correction to Enthalpy=                  0.274154
 Thermal correction to Gibbs Free Energy=         0.225201
 Sum of electronic and zero-point Energies=           -558.181604
 Sum of electronic and thermal Energies=              -558.170357
 Sum of electronic and thermal Enthalpies=            -558.169413
 Sum of electronic and thermal Free Energies=         -558.218366

                     E (Thermal)             CV                S
                      KCal/Mol        Cal/Mol-Kelvin    Cal/Mol-Kelvin
 Total                  171.442             45.397            103.030
 Electronic               0.000              0.000              0.000
 Translational            0.889              2.981             41.319
 Rotational               0.889              2.981             30.550
 Vibrational            169.664             39.435             31.160
 Vibration     1          0.595              1.980              5.072
 Vibration     2          0.602              1.956              3.656
 Vibration     3          0.618              1.902              2.668
 Vibration     4          0.626              1.879              2.429
 Vibration     5          0.639              1.837              2.113
 Vibration     6          0.650              1.803              1.918
 Vibration     7          0.683              1.702              1.506
 Vibration     8          0.713              1.614              1.255
 Vibration     9          0.736              1.550              1.113
 Vibration    10          0.750              1.513              1.040
 Vibration    11          0.760              1.487              0.991
 Vibration    12          0.788              1.413              0.871
 Vibration    13          0.805              1.370              0.809
 Vibration    14          0.847              1.268              0.679
 Vibration    15          0.855              1.250              0.658
 Vibration    16          0.898              1.154              0.558
 Vibration    17          0.973              1.002              0.426

 Optimization completed.
    -- Stationary point found.
 Normal termination of Gaussian 16 at Wed Dec  9 18:33:10 2020.

 ----------------------------------------------------------------------
 # B3LYP/6-311++G(d,p) empiricaldispersion=gd3bj scf=xqc pop=npa geom=c
 heck
 ----------------------------------------------------------------------

 ---------------------------------------
 CID_134382186_JID_2972_Energie_neutraal
 ---------------------------------------
 Structure from the checkpoint file:  "JID_2972.chk"
 Charge =  0 Multiplicity = 1

 SCF Done:  E(RB3LYP) =  -558.612098459     A.U. after   14 cycles
 Normal termination of Gaussian 16 at Wed Dec  9 18:36:21 2020.

 ----------------------------------------------------------------------
 # B3LYP/6-311++G(d,p) empiricaldispersion=gd3bj scf=xqc pop=npa geom=c
 heck
 ----------------------------------------------------------------------

 -------------------------------------
 CID_134382186_JID_2972_Energie_kation
 -------------------------------------
 Structure from the checkpoint file:  "JID_2972.chk"
 Charge =  1 Multiplicity = 2

 SCF Done:  E(UB3LYP) =  -558.280814761     A.U. after   26 cycles
 Normal termination of Gaussian 16 at Wed Dec  9 18:44:34 2020.
 Gaussian 16:  ES64L-G16RevA.03 25-Dec-2016

 ----------------------------------------------------------------------
 # B3LYP/6-311++G(d,p) empiricaldispersion=gd3bj scf=xqc pop=npa geom=c
 heck
 ----------------------------------------------------------------------

 ------------------------------------
 CID_134382186_JID_2972_Energie_anion
 ------------------------------------
 Structure from the checkpoint file:  "JID_2972.chk"
 Charge = -1 Multiplicity = 2

                         Standard orientation:
 ---------------------------------------------------------------------
 Center     Atomic      Atomic             Coordinates (Angstroms)
 Number     Number       Type             X           Y           Z
 ---------------------------------------------------------------------
      1          6           0       -3.489091   -0.088155   -0.576324
      2          6           0       -2.465682    0.650364    0.298210
      3          6           0       -1.808099   -0.278404    1.338527
      4          6           0       -0.813365   -1.266613    0.712326
      5          6           0        0.255887   -0.545097   -0.108857
      6          6           0       -0.400952    0.347699   -1.174482
      7          6           0       -1.374639    1.347512   -0.539191
      8          6           0        1.320712   -1.479425   -0.701069
      9          7           0        2.485735   -0.601149   -0.707459
     10          6           0        2.413458    0.197359    0.505003
     11          8           0        1.029281    0.280710    0.798607
     12          8           0        3.002722    1.443904    0.329484
     13          1           0       -3.963995    0.598637   -1.286785
     14          1           0       -4.278992   -0.533623    0.039733
     15          1           0       -3.033428   -0.896999   -1.158122
     16          1           0       -3.012014    1.429147    0.847901
     17          1           0       -1.263651    0.332769    2.067505
     18          1           0       -2.579126   -0.828948    1.892231
     19          1           0       -1.334241   -1.976476    0.055725
     20          1           0       -0.322504   -1.854449    1.496544
     21          1           0       -0.928935   -0.296374   -1.890082
     22          1           0        0.382349    0.868320   -1.736378
     23          1           0       -1.836271    1.967135   -1.318403
     24          1           0       -0.800217    2.018845    0.109697
     25          1           0        1.441681   -2.371766   -0.063327
     26          1           0        1.070081   -1.809518   -1.714162
     27          1           0        3.373353   -1.087226   -0.791150
     28          1           0        2.928902   -0.231203    1.376914
     29          1           0        2.671480    1.771413   -0.525230
 ---------------------------------------------------------------------

 SCF Done:  E(UB3LYP) =  -558.598086926     A.U. after   29 cycles

 The electronic state is 2-A.
 Alpha  occ. eigenvalues --  -19.03168 -19.02162 -14.20676 -10.19206 -10.12565
 Alpha  occ. eigenvalues --  -10.09352 -10.06896 -10.06190 -10.06055 -10.05914
 Alpha  occ. eigenvalues --  -10.05889 -10.05353  -0.98129  -0.91514  -0.79531
 Alpha  occ. eigenvalues --   -0.73414  -0.67190  -0.64242  -0.60020  -0.55588
 Alpha  occ. eigenvalues --   -0.53630  -0.51536  -0.47998  -0.45355  -0.43409
 Alpha  occ. eigenvalues --   -0.39637  -0.38203  -0.36410  -0.35594  -0.34748
 Alpha  occ. eigenvalues --   -0.33713  -0.32375  -0.30334  -0.30069  -0.29125
 Alpha  occ. eigenvalues --   -0.27801  -0.26776  -0.25953  -0.25202  -0.24583
 Alpha  occ. eigenvalues --   -0.23770  -0.21419  -0.21264  -0.20483  -0.19743
 Alpha  occ. eigenvalues --   -0.16265  -0.14702   0.04478
 Alpha virt. eigenvalues --    0.06417   0.07629   0.07903   0.08956   0.09305
 Alpha virt. eigenvalues --    0.09585   0.10518   0.10732   0.11830   0.12097
 Alpha virt. eigenvalues --    0.12533   0.12991   0.13494   0.14244   0.15266

  Beta  occ. eigenvalues --  -19.03161 -19.02155 -14.20644 -10.19194 -10.12567
  Beta  occ. eigenvalues --  -10.09319 -10.06890 -10.06171 -10.06037 -10.05904
  Beta  occ. eigenvalues --  -10.05878 -10.05318  -0.98110  -0.91497  -0.79481
  Beta  occ. eigenvalues --   -0.73392  -0.67162  -0.64213  -0.59968  -0.55534
  Beta  occ. eigenvalues --   -0.53564  -0.51497  -0.47959  -0.45292  -0.43364
  Beta  occ. eigenvalues --   -0.39601  -0.38161  -0.36353  -0.35553  -0.34723
  Beta  occ. eigenvalues --   -0.33672  -0.32337  -0.30301  -0.30034  -0.29088
  Beta  occ. eigenvalues --   -0.27772  -0.26747  -0.25919  -0.25176  -0.24557
  Beta  occ. eigenvalues --   -0.23743  -0.21399  -0.21242  -0.20461  -0.19712
  Beta  occ. eigenvalues --   -0.16247  -0.14643
  Beta virt. eigenvalues --    0.06746   0.07773   0.08102   0.08512   0.09462
  Beta virt. eigenvalues --    0.09964   0.10126   0.10985   0.11093   0.12275
  Beta virt. eigenvalues --    0.12461   0.12850   0.13616   0.13925   0.14474

 Mulliken charges and spin densities:
               1          2
     1  C    1.533709  -2.258666
     2  C   -1.154750   1.441839
     3  C    0.523401  -0.947785
     4  C   -0.333105  -0.025318
     5  C   -2.958229   2.662576
     6  C    0.448793  -0.640475
     7  C    0.201903  -0.596340
     8  C    2.831010  -3.333285
     9  N   -0.328452   0.191772
    10  C    0.799579  -0.847111
    11  O   -0.026473   0.015329
    12  O   -0.246988   0.040740
    13  H   -0.186672   0.323838
    14  H   -0.246193   0.381822
    15  H   -0.171733   0.308641
    16  H   -0.286365   0.479889
    17  H    0.167749  -0.008102
    18  H   -0.283022   0.466079
    19  H   -0.046842   0.216095
    20  H    0.059947   0.112573
    21  H   -0.043702   0.217096
    22  H    0.067541   0.082084
    23  H   -0.200143   0.370633
    24  H    0.182208  -0.029336
    25  H   -0.722808   0.905603
    26  H   -0.394599   0.579001
    27  H   -0.231165   0.501941
    28  H   -0.162681   0.348343
    29  H    0.208082   0.040524
 Sum of Mulliken charges =  -1.00000   1.00000

 Dipole moment (field-independent basis, Debye):
    X=              0.0928    Y=              3.4493    Z=              0.9717  Tot=              3.5847
 Quadrupole moment (field-independent basis, Debye-Ang):
   XX=           -147.4190   YY=           -115.8527   ZZ=           -109.2493
   XY=              6.3423   XZ=             -0.8451   YZ=             -4.1533

 Summary of Natural Population Analysis:

                                       Natural Population
                Natural  -----------------------------------------------
    Atom  No    Charge         Core      Valence    Rydberg      Total
 -----------------------------------------------------------------------
      C    1   -0.28719      0.99965     2.28164    0.00591     3.28719
      C    2   -0.11045      0.99960     2.10116    0.00969     3.11045
      C    3   -0.18851      0.99961     2.17993    0.00897     3.18851
      C    4   -0.19795      0.99956     2.18790    0.01049     3.19795
      C    5    0.13736      0.99950     1.84467    0.01847     2.86264
      C    6   -0.20147      0.99956     2.19169    0.01022     3.20147
      C    7   -0.18990      0.99961     2.18119    0.00910     3.18990
      C    8   -0.09413      0.99955     2.08198    0.01260     3.09413
      N    9   -0.35526      0.99973     2.84309    0.01245     3.85526
      C   10    0.29834      0.99965     1.67978    0.02223     2.70166
      O   11   -0.31710      0.99987     3.30896    0.00827     4.31710
      O   12   -0.36433      0.99989     3.35849    0.00595     4.36433
      H   13    0.09841      0.00000     0.40040    0.00119     0.40159
      H   14    0.09913      0.00000     0.39965    0.00122     0.40087
      H   15    0.09694      0.00000     0.40183    0.00123     0.40306
      H   16    0.09469      0.00000     0.40381    0.00150     0.40531
      H   17    0.10190      0.00000     0.39657    0.00152     0.39810
      H   18    0.09822      0.00000     0.40080    0.00098     0.40178
      H   19    0.10069      0.00000     0.39778    0.00152     0.39931
      H   20    0.10391      0.00000     0.39472    0.00138     0.39609
      H   21    0.09974      0.00000     0.39881    0.00145     0.40026
      H   22    0.10267      0.00000     0.39581    0.00152     0.39733
      H   23    0.09740      0.00000     0.40166    0.00094     0.40260
      H   24    0.10174      0.00000     0.39680    0.00146     0.39826
      H   25    0.08815      0.00000     0.40884    0.00301     0.41185
      H   26    0.10168      0.00000     0.39618    0.00214     0.39832
      H   27    0.18941      0.00000     0.30582    0.00477     0.31059
      H   28    0.06670      0.00000     0.43174    0.00156     0.43330
      H   29    0.22922      0.00000     0.26763    0.00316     0.27078
 =======================================================================
   * Total *    0.00000     11.99577    34.83934    0.16488    47.00000

 Normal termination of Gaussian 16 at Wed Dec  9 18:53:20 2020.
