 Gaussian 16, Revision A.03,

 -----------------------------------------------------------
 # opt freq B3LYP/6-31G(d) empiricaldispersion=gd3bj scf=xqc
 -----------------------------------------------------------

 ------------------------------
 CID_55073379_JID_8936_neutraal
 ------------------------------
 Symbolic Z-matrix:
 Charge =  0 Multiplicity = 1

 SCF Done:  E(RB3LYP) =  -797.845715048     A.U. after   15 cycles
 SCF Done:  E(RB3LYP) =  -797.850843947     A.U. after   13 cycles
 SCF Done:  E(RB3LYP) =  -797.852837247     A.U. after   13 cycles
 SCF Done:  E(RB3LYP) =  -797.853228413     A.U. after   14 cycles
 SCF Done:  E(RB3LYP) =  -797.852864451     A.U. after   13 cycles
 SCF Done:  E(RB3LYP) =  -797.853513304     A.U. after   13 cycles
 SCF Done:  E(RB3LYP) =  -797.854096449     A.U. after   14 cycles
 SCF Done:  E(RB3LYP) =  -797.854455090     A.U. after   12 cycles
 SCF Done:  E(RB3LYP) =  -797.854555160     A.U. after   11 cycles
 SCF Done:  E(RB3LYP) =  -797.854587196     A.U. after   10 cycles
 SCF Done:  E(RB3LYP) =  -797.854662594     A.U. after    8 cycles
 SCF Done:  E(RB3LYP) =  -797.854663180     A.U. after    7 cycles
 SCF Done:  E(RB3LYP) =  -797.854663946     A.U. after    9 cycles
 SCF Done:  E(RB3LYP) =  -797.854664337     A.U. after    8 cycles
 SCF Done:  E(RB3LYP) =  -797.854664623     A.U. after    8 cycles
 SCF Done:  E(RB3LYP) =  -797.854664650     A.U. after    6 cycles
 Optimization completed.
    -- Stationary point found.
 Normal termination of Gaussian 16 at Fri Dec 11 23:17:01 2020.

 --------------------------------------------------------------------
 #N Geom=AllCheck Guess=TCheck SCRF=Check GenChk RB3LYP/6-31G(d) Freq
 --------------------------------------------------------------------

 Structure from the checkpoint file:  "JID_8936.chk"
 ------------------------------
 CID_55073379_JID_8936_neutraal
 ------------------------------
 Charge =  0 Multiplicity = 1

 SCF Done:  E(RB3LYP) =  -797.854664650     A.U. after    1 cycles

  Exact polarizability: 184.060 -11.026 160.309 -16.992  -7.735 119.404
 Approx polarizability: 255.507 -16.326 248.291 -32.182 -24.099 193.966

                      1                      2                      3
                      A                      A                      A
 Frequencies --     19.1784                31.2658                34.6931
 Red. masses --      3.8262                 3.4836                 3.7061
 Frc consts  --      0.0008                 0.0020                 0.0026
 IR Inten    --      0.9161                 7.2406                 0.3565

                      4                      5                      6
                      A                      A                      A
 Frequencies --     44.6193                50.4796                57.9138
 Red. masses --      2.1614                 3.1393                 4.4191
 Frc consts  --      0.0025                 0.0047                 0.0087
 IR Inten    --      0.5619                 1.2721                 3.4219

                      7                      8                      9
                      A                      A                      A
 Frequencies --     93.2010               111.2237               138.7811
 Red. masses --      4.7446                 4.1640                 2.6354
 Frc consts  --      0.0243                 0.0304                 0.0299
 IR Inten    --      2.8208                 1.7058                 1.4210

                     10                     11                     12
                      A                      A                      A
 Frequencies --    140.3865               196.5925               206.8246
 Red. masses --      2.8449                 1.5565                 2.9262
 Frc consts  --      0.0330                 0.0354                 0.0737
 IR Inten    --      1.8286                 1.7712                 4.0628

                     13                     14                     15
                      A                      A                      A
 Frequencies --    228.0349               254.0783               278.3825
 Red. masses --      1.5659                 2.5240                 2.2680
 Frc consts  --      0.0480                 0.0960                 0.1036
 IR Inten    --      0.2981                 2.3315                 2.6937

                     16                     17                     18
                      A                      A                      A
 Frequencies --    291.7195               309.1857               334.4817
 Red. masses --      2.6575                 1.8603                 2.5889
 Frc consts  --      0.1332                 0.1048                 0.1706
 IR Inten    --      2.2594                 6.6545                 0.1180

                     19                     20                     21
                      A                      A                      A
 Frequencies --    388.3530               408.6824               447.4176
 Red. masses --      5.0634                 2.4029                 2.5842
 Frc consts  --      0.4499                 0.2365                 0.3048
 IR Inten    --      1.3165                 3.9510                 4.7148

                     22                     23                     24
                      A                      A                      A
 Frequencies --    488.8303               507.4649               626.0662
 Red. masses --      3.4278                 3.1478                 4.0303
 Frc consts  --      0.4826                 0.4776                 0.9307
 IR Inten    --      1.8878                 7.6056                 2.8077

                     25                     26                     27
                      A                      A                      A
 Frequencies --    641.3926               653.1989               680.5782
 Red. masses --      3.9121                 3.7866                 4.0172
 Frc consts  --      0.9482                 0.9519                 1.0963
 IR Inten    --      1.5413                 6.0992                12.8570

                     28                     29                     30
                      A                      A                      A
 Frequencies --    690.0516               725.5650               734.0590
 Red. masses --      3.0291                 4.2633                 3.0019
 Frc consts  --      0.8498                 1.3224                 0.9530
 IR Inten    --      5.7781                11.3483                 5.3251

                     31                     32                     33
                      A                      A                      A
 Frequencies --    745.9311               765.0041               773.9998
 Red. masses --      1.3211                 1.2006                 1.7942
 Frc consts  --      0.4331                 0.4140                 0.6333
 IR Inten    --     91.8391                42.1359                26.2734

                     34                     35                     36
                      A                      A                      A
 Frequencies --    803.0902               810.4787               817.0957
 Red. masses --      2.4710                 1.4701                 1.2875
 Frc consts  --      0.9390                 0.5690                 0.5064
 IR Inten    --     12.2948                29.5872                 5.4828

                     37                     38                     39
                      A                      A                      A
 Frequencies --    850.6278               909.6950               931.8864
 Red. masses --      1.2904                 1.9461                 4.4521
 Frc consts  --      0.5501                 0.9489                 2.2779
 IR Inten    --      3.0144                 4.7451                 3.6671

                     40                     41                     42
                      A                      A                      A
 Frequencies --    946.2579               950.2164               984.7702
 Red. masses --      2.3987                 2.5919                 1.7798
 Frc consts  --      1.2655                 1.3788                 1.0170
 IR Inten    --      5.8393                 2.8151                11.4006

                     43                     44                     45
                      A                      A                      A
 Frequencies --   1012.3721              1014.1639              1033.5937
 Red. masses --      2.0298                 2.1088                 3.4935
 Frc consts  --      1.2257                 1.2779                 2.1989
 IR Inten    --      1.3409                 6.5116                 6.3835

                     46                     47                     48
                      A                      A                      A
 Frequencies --   1057.1503              1067.1360              1084.2058
 Red. masses --      3.7302                 3.1987                 2.0049
 Frc consts  --      2.4562                 2.1462                 1.3886
 IR Inten    --      0.1621                34.1740                 6.7244

                     49                     50                     51
                      A                      A                      A
 Frequencies --   1093.7325              1103.9992              1120.9084
 Red. masses --      2.2491                 1.6754                 1.4975
 Frc consts  --      1.5852                 1.2031                 1.1086
 IR Inten    --     13.2821                 5.9231                 0.1851

                     52                     53                     54
                      A                      A                      A
 Frequencies --   1136.0285              1163.0098              1173.7026
 Red. masses --      1.7301                 1.8379                 2.4978
 Frc consts  --      1.3155                 1.4646                 2.0273
 IR Inten    --     12.0572                18.8147                40.0275

                     55                     56                     57
                      A                      A                      A
 Frequencies --   1180.0521              1189.3895              1211.0739
 Red. masses --      2.2980                 2.0250                 2.0469
 Frc consts  --      1.8854                 1.6878                 1.7689
 IR Inten    --     21.5713                 2.7047                 4.1220

                     58                     59                     60
                      A                      A                      A
 Frequencies --   1252.6163              1260.8150              1295.7869
 Red. masses --      1.5644                 1.7819                 3.6870
 Frc consts  --      1.4462                 1.6690                 3.6475
 IR Inten    --      6.1043                 1.4372                20.6771

                     61                     62                     63
                      A                      A                      A
 Frequencies --   1303.2258              1312.3037              1334.8338
 Red. masses --      1.1758                 2.6363                 1.3716
 Frc consts  --      1.1766                 2.6749                 1.4399
 IR Inten    --      0.1327                42.2077                 3.5947

                     64                     65                     66
                      A                      A                      A
 Frequencies --   1350.1302              1374.9525              1379.2896
 Red. masses --      1.5241                 1.9965                 1.6525
 Frc consts  --      1.6369                 2.2238                 1.8523
 IR Inten    --      1.0402                24.6048                29.0757

                     67                     68                     69
                      A                      A                      A
 Frequencies --   1394.6938              1399.7441              1407.4106
 Red. masses --      1.6201                 1.3468                 1.3504
 Frc consts  --      1.8568                 1.5548                 1.5759
 IR Inten    --      3.2468                12.1448                12.1865

                     70                     71                     72
                      A                      A                      A
 Frequencies --   1419.1752              1426.8399              1434.4488
 Red. masses --      2.1766                 1.9717                 1.2514
 Frc consts  --      2.5829                 2.3650                 1.5171
 IR Inten    --      6.2116                 4.9052                11.9158

                     73                     74                     75
                      A                      A                      A
 Frequencies --   1442.6507              1469.6742              1500.2392
 Red. masses --      1.2495                 3.0133                 2.2064
 Frc consts  --      1.5322                 3.8348                 2.9258
 IR Inten    --      7.5989                31.0006                19.4929

                     76                     77                     78
                      A                      A                      A
 Frequencies --   1506.0466              1507.8764              1509.9885
 Red. masses --      1.3910                 1.0638                 1.1782
 Frc consts  --      1.8588                 1.4251                 1.5827
 IR Inten    --     12.2360                 2.0407                 3.6833

                     79                     80                     81
                      A                      A                      A
 Frequencies --   1516.4594              1520.1252              1520.6327
 Red. masses --      1.3615                 1.0976                 1.0408
 Frc consts  --      1.8447                 1.4944                 1.4179
 IR Inten    --      4.1669                11.9026                 5.4196

                     82                     83                     84
                      A                      A                      A
 Frequencies --   1529.0332              1532.9688              1535.9865
 Red. masses --      1.0824                 1.0954                 1.1606
 Frc consts  --      1.4910                 1.5167                 1.6133
 IR Inten    --      4.9186                 3.1518                 5.4256

                     85                     86                     87
                      A                      A                      A
 Frequencies --   1541.2776              1541.8213              1580.3857
 Red. masses --      1.2855                 1.8814                 5.3131
 Frc consts  --      1.7993                 2.6352                 7.8185
 IR Inten    --     23.1929                 5.2733                14.9669

                     88                     89                     90
                      A                      A                      A
 Frequencies --   1603.5999              2960.9046              3010.9083
 Red. masses --      6.3277                 1.0722                 1.0613
 Frc consts  --      9.5871                 5.5384                 5.6684
 IR Inten    --      2.5592                60.9046                33.5745

                     91                     92                     93
                      A                      A                      A
 Frequencies --   3033.9626              3039.5165              3042.9365
 Red. masses --      1.0993                 1.0604                 1.0365
 Frc consts  --      5.9621                 5.7719                 5.6545
 IR Inten    --     24.3556                45.1713                22.7211

                     94                     95                     96
                      A                      A                      A
 Frequencies --   3069.6374              3073.8205              3081.2199
 Red. masses --      1.0363                 1.1039                 1.0881
 Frc consts  --      5.7531                 6.1454                 6.0864
 IR Inten    --     30.5743                12.0207                24.8824

                     97                     98                     99
                      A                      A                      A
 Frequencies --   3089.2058              3098.5108              3108.3649
 Red. masses --      1.0615                 1.0591                 1.1020
 Frc consts  --      5.9687                 5.9911                 6.2735
 IR Inten    --     16.5729                27.1549                52.5544

                    100                    101                    102
                      A                      A                      A
 Frequencies --   3118.7331              3140.0988              3142.0647
 Red. masses --      1.1021                 1.1022                 1.1061
 Frc consts  --      6.3160                 6.4034                 6.4338
 IR Inten    --     49.4766                25.9918                 8.0877

                    103                    104                    105
                      A                      A                      A
 Frequencies --   3151.3535              3156.4164              3256.9173
 Red. masses --      1.1030                 1.1071                 1.0928
 Frc consts  --      6.4537                 6.4985                 6.8300
 IR Inten    --     19.1056                10.5364                 9.5247

                    106                    107                    108
                      A                      A                      A
 Frequencies --   3292.4346              3295.2369              3485.5550
 Red. masses --      1.1034                 1.0995                 1.0742
 Frc consts  --      7.0471                 7.0340                 7.6891
 IR Inten    --      1.1219                 0.3863                 5.1852

 - Thermochemistry -
 -------------------
 Temperature   298.150 Kelvin.  Pressure   1.00000 Atm.
 Atom     1 has atomic number  6 and mass  12.00000

 Molecular mass:   248.17494 amu.
 Principal axes and moments of inertia in atomic units:
                           1         2         3
     Eigenvalues --  3259.806605989.984428034.64936
           X            0.99941  -0.03390  -0.00551
           Y            0.03379   0.99926  -0.01856
           Z            0.00614   0.01836   0.99981
 This molecule is an asymmetric top.
 Rotational symmetry number  1.
 Warning -- assumption of classical behavior for rotation
           may cause significant error
 Rotational temperatures (Kelvin)      0.02657     0.01446     0.01078
 Rotational constants (GHZ):           0.55363     0.30129     0.22462
 Zero-point vibrational energy     861880.1 (Joules/Mol)
                                  205.99429 (Kcal/Mol)
 Warning -- explicit consideration of  23 degrees of freedom as
           vibrations may cause significant error
 Vibrational temperatures:     27.59    44.98    49.92    64.20    72.63
          (Kelvin)             83.33   134.10   160.03   199.67   201.98
                              282.85   297.57   328.09   365.56   400.53
                              419.72   444.85   481.24   558.75   588.00
                              643.73   703.32   730.13   900.77   922.82
                              939.81   979.20   992.83  1043.93  1056.15
                             1073.23  1100.67  1113.61  1155.47  1166.10
                             1175.62  1223.86  1308.85  1340.78  1361.45
                             1367.15  1416.86  1456.58  1459.16  1487.11
                             1521.00  1535.37  1559.93  1573.64  1588.41
                             1612.74  1634.49  1673.31  1688.70  1697.83
                             1711.27  1742.47  1802.24  1814.03  1864.35
                             1875.05  1888.11  1920.53  1942.54  1978.25
                             1984.49  2006.65  2013.92  2024.95  2041.88
                             2052.90  2063.85  2075.65  2114.53  2158.51
                             2166.87  2169.50  2172.54  2181.85  2187.12
                             2187.85  2199.94  2205.60  2209.94  2217.55
                             2218.34  2273.82  2307.22  4260.08  4332.03
                             4365.20  4373.19  4378.11  4416.52  4422.54
                             4433.19  4444.68  4458.07  4472.24  4487.16
                             4517.90  4520.73  4534.09  4541.38  4685.98
                             4737.08  4741.11  5014.94

 Zero-point correction=                           0.328273 (Hartree/Particle)
 Thermal correction to Energy=                    0.346381
 Thermal correction to Enthalpy=                  0.347325
 Thermal correction to Gibbs Free Energy=         0.278880
 Sum of electronic and zero-point Energies=           -797.526392
 Sum of electronic and thermal Energies=              -797.508283
 Sum of electronic and thermal Enthalpies=            -797.507339
 Sum of electronic and thermal Free Energies=         -797.575784

                     E (Thermal)             CV                S
                      KCal/Mol        Cal/Mol-Kelvin    Cal/Mol-Kelvin
 Total                  217.357             66.360            144.054
 Electronic               0.000              0.000              0.000
 Translational            0.889              2.981             42.427
 Rotational               0.889              2.981             33.417
 Vibrational            215.580             60.399             68.210
 Vibration     1          0.593              1.986              6.717
 Vibration     2          0.594              1.983              5.747
 Vibration     3          0.594              1.983              5.541
 Vibration     4          0.595              1.980              5.043
 Vibration     5          0.595              1.977              4.799
 Vibration     6          0.596              1.974              4.527
 Vibration     7          0.602              1.954              3.592
 Vibration     8          0.607              1.940              3.247
 Vibration     9          0.614              1.915              2.821
 Vibration    10          0.615              1.913              2.799
 Vibration    11          0.636              1.845              2.165
 Vibration    12          0.641              1.830              2.072
 Vibration    13          0.651              1.798              1.894
 Vibration    14          0.665              1.756              1.702
 Vibration    15          0.679              1.713              1.544
 Vibration    16          0.687              1.689              1.464
 Vibration    17          0.699              1.656              1.367
 Vibration    18          0.716              1.607              1.238
 Vibration    19          0.757              1.495              1.006
 Vibration    20          0.773              1.451              0.931
 Vibration    21          0.807              1.367              0.804
 Vibration    22          0.845              1.275              0.687
 Vibration    23          0.863              1.233              0.640

 Optimization completed.
    -- Stationary point found.
 Normal termination of Gaussian 16 at Fri Dec 11 23:36:49 2020.

 ----------------------------------------------------------------------
 # B3LYP/6-311++G(d,p) empiricaldispersion=gd3bj scf=xqc pop=npa geom=c
 heck
 ----------------------------------------------------------------------

 --------------------------------------
 CID_55073379_JID_8936_Energie_neutraal
 --------------------------------------
 Structure from the checkpoint file:  "JID_8936.chk"
 Charge =  0 Multiplicity = 1

 SCF Done:  E(RB3LYP) =  -798.070790513     A.U. after   16 cycles
 Normal termination of Gaussian 16 at Fri Dec 11 23:46:13 2020.

 ----------------------------------------------------------------------
 # B3LYP/6-311++G(d,p) empiricaldispersion=gd3bj scf=xqc pop=npa geom=c
 heck
 ----------------------------------------------------------------------

 ------------------------------------
 CID_55073379_JID_8936_Energie_kation
 ------------------------------------
 Structure from the checkpoint file:  "JID_8936.chk"
 Charge =  1 Multiplicity = 2

 SCF Done:  E(UB3LYP) =  -797.782371310     A.U. after   27 cycles
 Normal termination of Gaussian 16 at Sat Dec 12 00:07:37 2020.
 Gaussian 16:  ES64L-G16RevA.03 25-Dec-2016

 ----------------------------------------------------------------------
 # B3LYP/6-311++G(d,p) empiricaldispersion=gd3bj scf=xqc pop=npa geom=c
 heck
 ----------------------------------------------------------------------

 -----------------------------------
 CID_55073379_JID_8936_Energie_anion
 -----------------------------------
 Structure from the checkpoint file:  "JID_8936.chk"
 Charge = -1 Multiplicity = 2

                         Standard orientation:
 ---------------------------------------------------------------------
 Center     Atomic      Atomic             Coordinates (Angstroms)
 Number     Number       Type             X           Y           Z
 ---------------------------------------------------------------------
      1          6           0       -3.825951   -2.466655    1.126087
      2          6           0       -3.512806   -1.053611    0.629550
      3          6           0       -2.286545   -1.014169   -0.233913
      4          7           0       -1.515195   -2.043428   -0.526187
      5          6           0       -0.527440   -1.553469   -1.357522
      6          6           0       -0.701920   -0.211840   -1.572967
      7          7           0       -1.839576    0.132651   -0.859524
      8          6           0       -2.340129    1.482018   -0.676144
      9          6           0       -1.768986    2.146228    0.590592
     10          7           0       -0.322345    2.073880    0.588248
     11          6           0        0.468567    1.083660    1.073571
     12          6           0        1.709820    1.329053    0.527795
     13          7           0        1.611471    2.441873   -0.262129
     14          7           0        0.385399    2.887926   -0.236219
     15          6           0        2.945670    0.491600    0.604929
     16          7           0        2.917321   -0.517530   -0.457964
     17          6           0        4.040882   -1.451311   -0.444482
     18          6           0        4.131096   -2.393429    0.765622
     19          1           0       -3.991169   -3.143814    0.284113
     20          1           0       -4.721451   -2.459298    1.755653
     21          1           0       -2.989797   -2.867523    1.705062
     22          1           0       -4.371535   -0.659015    0.066626
     23          1           0       -3.390800   -0.380296    1.491500
     24          1           0        0.237235   -2.199711   -1.766852
     25          1           0       -0.130164    0.525334   -2.116456
     26          1           0       -2.051664    2.072938   -1.548156
     27          1           0       -3.432819    1.464022   -0.621116
     28          1           0       -2.063461    3.198094    0.626187
     29          1           0       -2.131707    1.648191    1.493037
     30          1           0        0.091292    0.300809    1.713328
     31          1           0        3.823085    1.128766    0.446064
     32          1           0        3.030263    0.069879    1.622236
     33          1           0        2.035137   -1.025861   -0.409077
     34          1           0        3.979174   -2.048415   -1.362982
     35          1           0        4.961954   -0.858693   -0.522594
     36          1           0        3.222176   -3.001957    0.852030
     37          1           0        4.983151   -3.076088    0.664639
     38          1           0        4.258024   -1.843424    1.704495
 ---------------------------------------------------------------------

 SCF Done:  E(UB3LYP) =  -798.065702421     A.U. after   32 cycles

 The electronic state is 2-A.
 Alpha  occ. eigenvalues --  -14.30385 -14.27642 -14.26817 -14.23552 -14.21121
 Alpha  occ. eigenvalues --  -14.19724 -10.13347 -10.13341 -10.13215 -10.11676
 Alpha  occ. eigenvalues --  -10.11435 -10.11345 -10.10362 -10.10328 -10.08988
 Alpha  occ. eigenvalues --  -10.08456 -10.08291 -10.06457  -1.00033  -0.92618
 Alpha  occ. eigenvalues --   -0.83153  -0.82024  -0.79264  -0.71957  -0.70104
 Alpha  occ. eigenvalues --   -0.68085  -0.66080  -0.63091  -0.60291  -0.58955
 Alpha  occ. eigenvalues --   -0.54345  -0.52937  -0.51177  -0.50559  -0.50183
 Alpha  occ. eigenvalues --   -0.46036  -0.43780  -0.42125  -0.40959  -0.40147
 Alpha  occ. eigenvalues --   -0.38459  -0.37801  -0.36828  -0.36295  -0.35324
 Alpha  occ. eigenvalues --   -0.34542  -0.33793  -0.32934  -0.32306  -0.31984
 Alpha  occ. eigenvalues --   -0.31056  -0.30393  -0.29852  -0.29300  -0.28110
 Alpha  occ. eigenvalues --   -0.27765  -0.26548  -0.26400  -0.25611  -0.23679
 Alpha  occ. eigenvalues --   -0.20088  -0.18469  -0.18008  -0.17747  -0.16267
 Alpha  occ. eigenvalues --   -0.14212  -0.13356   0.03860
 Alpha virt. eigenvalues --    0.05467   0.07097   0.07227   0.07952   0.08130
 Alpha virt. eigenvalues --    0.08145   0.08494   0.09521   0.09917   0.10397
 Alpha virt. eigenvalues --    0.10686   0.10829   0.11396   0.11657   0.12123

  Beta  occ. eigenvalues --  -14.30351 -14.27641 -14.26745 -14.23538 -14.21121
  Beta  occ. eigenvalues --  -14.19718 -10.13336 -10.13321 -10.13172 -10.11635
  Beta  occ. eigenvalues --  -10.11431 -10.11339 -10.10360 -10.10332 -10.08986
  Beta  occ. eigenvalues --  -10.08408 -10.08276 -10.06442  -0.99956  -0.92608
  Beta  occ. eigenvalues --   -0.83103  -0.82003  -0.79243  -0.71895  -0.70060
  Beta  occ. eigenvalues --   -0.68031  -0.66050  -0.63066  -0.60259  -0.58898
  Beta  occ. eigenvalues --   -0.54281  -0.52910  -0.51133  -0.50528  -0.50128
  Beta  occ. eigenvalues --   -0.45983  -0.43719  -0.42065  -0.40843  -0.40119
  Beta  occ. eigenvalues --   -0.38424  -0.37758  -0.36796  -0.36243  -0.35298
  Beta  occ. eigenvalues --   -0.34515  -0.33721  -0.32912  -0.32261  -0.31957
  Beta  occ. eigenvalues --   -0.31012  -0.30351  -0.29800  -0.29279  -0.28089
  Beta  occ. eigenvalues --   -0.27708  -0.26536  -0.26348  -0.25578  -0.23611
  Beta  occ. eigenvalues --   -0.19920  -0.18425  -0.17986  -0.17687  -0.16087
  Beta  occ. eigenvalues --   -0.14206  -0.13326
  Beta virt. eigenvalues --    0.05560   0.06883   0.07478   0.07712   0.08129
  Beta virt. eigenvalues --    0.08317   0.08554   0.09040   0.09903   0.10384
  Beta virt. eigenvalues --    0.10656   0.10819   0.10979   0.11403   0.11683

 Mulliken charges and spin densities:
               1          2
     1  C    0.449813  -1.181967
     2  C   -0.018380  -0.196981
     3  C   -0.506160  -0.074417
     4  N   -0.012153   0.055717
     5  C   -0.188560  -0.173625
     6  C    0.241574   0.053947
     7  N    0.160754   0.003856
     8  C   -0.391424   0.256280
     9  C    1.608975  -1.919942
    10  N    0.288993   0.088785
    11  C   -0.868254   0.590680
    12  C    0.693774  -0.557686
    13  N   -0.030126   0.058703
    14  N   -0.231973   0.017482
    15  C   -0.356716  -0.533418
    16  N   -0.033251   0.012418
    17  C   -0.416791   0.214717
    18  C   -0.007047  -0.419760
    19  H    0.100109   0.056224
    20  H   -0.238339   0.377313
    21  H    0.099606   0.063323
    22  H   -0.174449   0.349566
    23  H   -0.219426   0.364606
    24  H    0.130093   0.011222
    25  H    0.168395   0.030006
    26  H    0.161099   0.049713
    27  H   -0.835842   1.014450
    28  H   -0.517755   0.728187
    29  H   -0.431042   0.652318
    30  H   -0.381673   0.585765
    31  H    0.163553   0.016699
    32  H    0.023218   0.095754
    33  H    0.295896  -0.093405
    34  H    0.114222   0.043577
    35  H    0.098611   0.011097
    36  H    0.083428   0.053869
    37  H   -0.036466   0.165197
    38  H    0.013717   0.129728
 Sum of Mulliken charges =  -1.00000   1.00000

 Dipole moment (field-independent basis, Debye):
    X=              6.7833    Y=             -3.4272    Z=             -3.0338  Tot=              8.1831
 Quadrupole moment (field-independent basis, Debye-Ang):
   XX=           -188.2656   YY=           -165.3513   ZZ=           -144.2440
   XY=              3.7651   XZ=             11.1844   YZ=              0.7518

 Summary of Natural Population Analysis:

                                       Natural Population
                Natural  -----------------------------------------------
    Atom  No    Charge         Core      Valence    Rydberg      Total
 -----------------------------------------------------------------------
      C    1   -0.27986      0.99967     2.27411    0.00608     3.27986
      C    2   -0.21401      0.99961     2.20656    0.00785     3.21401
      C    3    0.20042      0.99960     1.78199    0.01798     2.79958
      N    4   -0.26231      0.99969     2.75376    0.00885     3.76231
      C    5   -0.04449      0.99957     2.03163    0.01329     3.04449
      C    6   -0.03415      0.99955     2.02362    0.01098     3.03415
      N    7   -0.21452      0.99962     2.70424    0.01067     3.71452
      C    8   -0.08760      0.99960     2.07627    0.01173     3.08760
      C    9   -0.08965      0.99959     2.07727    0.01279     3.08965
      N   10   -0.10528      0.99966     2.59132    0.01430     3.60528
      C   11   -0.01086      0.99947     1.99958    0.01181     3.01086
      C   12    0.03418      0.99955     1.95113    0.01515     2.96582
      N   13   -0.13512      0.99972     2.62234    0.01306     3.63512
      N   14   -0.04208      0.99978     2.52713    0.01517     3.54208
      C   15   -0.10311      0.99959     2.09168    0.01184     3.10311
      N   16   -0.33665      0.99975     2.82588    0.01102     3.83665
      C   17   -0.08698      0.99965     2.07765    0.00968     3.08698
      C   18   -0.29792      0.99967     2.29409    0.00416     3.29792
      H   19    0.10025      0.00000     0.39871    0.00104     0.39975
      H   20    0.09773      0.00000     0.40148    0.00079     0.40227
      H   21    0.10267      0.00000     0.39617    0.00116     0.39733
      H   22    0.10599      0.00000     0.39228    0.00173     0.39401
      H   23    0.10833      0.00000     0.38764    0.00403     0.39167
      H   24    0.09528      0.00000     0.40379    0.00093     0.40472
      H   25    0.11035      0.00000     0.38829    0.00136     0.38965
      H   26    0.10597      0.00000     0.39270    0.00134     0.39403
      H   27    0.11328      0.00000     0.38366    0.00306     0.38672
      H   28    0.11401      0.00000     0.38355    0.00243     0.38599
      H   29    0.11029      0.00000     0.38521    0.00450     0.38971
      H   30    0.11512      0.00000     0.38337    0.00151     0.38488
      H   31    0.09939      0.00000     0.39926    0.00135     0.40061
      H   32    0.08578      0.00000     0.41284    0.00138     0.41422
      H   33    0.17551      0.00000     0.32081    0.00368     0.32449
      H   34    0.09039      0.00000     0.40856    0.00106     0.40961
      H   35    0.08758      0.00000     0.41122    0.00120     0.41242
      H   36    0.09785      0.00000     0.40075    0.00140     0.40215
      H   37    0.09686      0.00000     0.40190    0.00124     0.40314
      H   38    0.09737      0.00000     0.40152    0.00112     0.40263
 =======================================================================
   * Total *   -0.00000     17.99334    48.76395    0.24271    67.00000

 Normal termination of Gaussian 16 at Sat Dec 12 00:32:57 2020.
