 Gaussian 16, Revision A.03,

 -----------------------------------------------------------
 # opt freq B3LYP/6-31G(d) empiricaldispersion=gd3bj scf=xqc
 -----------------------------------------------------------

 ------------------------------
 CID_95797505_JID_9628_neutraal
 ------------------------------
 Symbolic Z-matrix:
 Charge =  0 Multiplicity = 1

 SCF Done:  E(RB3LYP) =  -1178.94061329     A.U. after   16 cycles
 SCF Done:  E(RB3LYP) =  -1178.96929485     A.U. after   13 cycles
 SCF Done:  E(RB3LYP) =  -1178.97221162     A.U. after   13 cycles
 SCF Done:  E(RB3LYP) =  -1178.97146065     A.U. after   13 cycles
 SCF Done:  E(RB3LYP) =  -1178.97277086     A.U. after   13 cycles
 SCF Done:  E(RB3LYP) =  -1178.97262448     A.U. after   12 cycles
 SCF Done:  E(RB3LYP) =  -1178.97324951     A.U. after   13 cycles
 SCF Done:  E(RB3LYP) =  -1178.97385169     A.U. after   11 cycles
 SCF Done:  E(RB3LYP) =  -1178.97405937     A.U. after   12 cycles
 SCF Done:  E(RB3LYP) =  -1178.97419789     A.U. after   12 cycles
 SCF Done:  E(RB3LYP) =  -1178.97440770     A.U. after   10 cycles
 SCF Done:  E(RB3LYP) =  -1178.97440805     A.U. after    9 cycles
 SCF Done:  E(RB3LYP) =  -1178.97440809     A.U. after    7 cycles
 SCF Done:  E(RB3LYP) =  -1178.97440811     A.U. after    7 cycles
 Optimization completed.
    -- Stationary point found.
 Normal termination of Gaussian 16 at Mon Dec 14 19:02:59 2020.

 --------------------------------------------------------------------
 #N Geom=AllCheck Guess=TCheck SCRF=Check GenChk RB3LYP/6-31G(d) Freq
 --------------------------------------------------------------------

 Structure from the checkpoint file:  "JID_9628.chk"
 ------------------------------
 CID_95797505_JID_9628_neutraal
 ------------------------------
 Charge =  0 Multiplicity = 1

 SCF Done:  E(RB3LYP) =  -1178.97440811     A.U. after    1 cycles

  Exact polarizability: 279.405  -5.676 180.573  -0.782   8.352 109.154
 Approx polarizability: 399.954 -19.235 322.869   3.664  26.965 181.391

                      1                      2                      3
                      A                      A                      A
 Frequencies --     24.5895                38.2840                56.5680
 Red. masses --      4.5616                 5.2729                 2.5665
 Frc consts  --      0.0016                 0.0046                 0.0048
 IR Inten    --      0.1114                 0.6682                 0.0672

                      4                      5                      6
                      A                      A                      A
 Frequencies --     72.8192                86.0655               105.4485
 Red. masses --      4.5129                 4.5901                 1.1748
 Frc consts  --      0.0141                 0.0200                 0.0077
 IR Inten    --      1.7952                 0.0315                 0.0167

                      7                      8                      9
                      A                      A                      A
 Frequencies --    117.4328               147.2921               155.9140
 Red. masses --      5.6167                 4.8366                 4.4072
 Frc consts  --      0.0456                 0.0618                 0.0631
 IR Inten    --      2.0277                 0.8290                 0.3832

                     10                     11                     12
                      A                      A                      A
 Frequencies --    207.6212               218.6953               250.6585
 Red. masses --      1.3766                 4.4647                 5.5324
 Frc consts  --      0.0350                 0.1258                 0.2048
 IR Inten    --      1.1279                 2.5785                 0.5339

                     13                     14                     15
                      A                      A                      A
 Frequencies --    273.5117               285.5546               298.7753
 Red. masses --      2.0672                 4.6392                 4.9979
 Frc consts  --      0.0911                 0.2229                 0.2629
 IR Inten    --      0.9419                 0.4531                 0.4767

                     16                     17                     18
                      A                      A                      A
 Frequencies --    308.1791               321.1657               325.4864
 Red. masses --      4.2201                 6.3533                 3.0566
 Frc consts  --      0.2361                 0.3861                 0.1908
 IR Inten    --      2.2297                 0.4421                 0.6484

                     19                     20                     21
                      A                      A                      A
 Frequencies --    358.2701               403.7658               420.8822
 Red. masses --      2.5419                 6.8147                 5.8787
 Frc consts  --      0.1922                 0.6546                 0.6135
 IR Inten    --     17.4547                 8.0079                 2.3551

                     22                     23                     24
                      A                      A                      A
 Frequencies --    489.5752               509.3182               540.4323
 Red. masses --      7.1887                 4.2022                 5.0185
 Frc consts  --      1.0152                 0.6422                 0.8636
 IR Inten    --      1.8073                 9.0590                 2.4562

                     25                     26                     27
                      A                      A                      A
 Frequencies --    572.2724               587.3437               592.5494
 Red. masses --      7.4361                 5.6283                 1.2025
 Frc consts  --      1.4348                 1.1440                 0.2488
 IR Inten    --      2.8099                 0.1405                44.2826

                     28                     29                     30
                      A                      A                      A
 Frequencies --    618.6147               639.5322               651.4323
 Red. masses --      6.0425                 1.3690                 5.1914
 Frc consts  --      1.3624                 0.3299                 1.2980
 IR Inten    --      4.9283                41.0005                 5.7979

                     31                     32                     33
                      A                      A                      A
 Frequencies --    657.5471               662.2167               678.3228
 Red. masses --      4.5177                 5.1010                 7.9544
 Frc consts  --      1.1509                 1.3180                 2.1564
 IR Inten    --     14.7629                 8.9026                 6.7048

                     34                     35                     36
                      A                      A                      A
 Frequencies --    705.4243               738.3976               750.8364
 Red. masses --      5.4905                 5.6317                 5.8408
 Frc consts  --      1.6098                 1.8091                 1.9401
 IR Inten    --      0.6419                13.0989                18.9120

                     37                     38                     39
                      A                      A                      A
 Frequencies --    811.2443               815.9265               892.3101
 Red. masses --      1.3846                 1.3163                 1.5514
 Frc consts  --      0.5369                 0.5163                 0.7278
 IR Inten    --     12.4932                13.6323                 9.5815

                     40                     41                     42
                      A                      A                      A
 Frequencies --    895.1386               923.8784               944.6996
 Red. masses --      2.7901                 7.7868                 2.3910
 Frc consts  --      1.3172                 3.9160                 1.2572
 IR Inten    --     11.0233                50.0226                 7.2233

                     43                     44                     45
                      A                      A                      A
 Frequencies --    966.1209              1000.7553              1014.6585
 Red. masses --      3.6807                 2.8607                 1.6298
 Frc consts  --      2.0242                 1.6880                 0.9886
 IR Inten    --     16.8752                 5.2520                 0.4245

                     46                     47                     48
                      A                      A                      A
 Frequencies --   1051.8271              1070.1755              1118.8065
 Red. masses --      3.0889                 1.4003                 1.9430
 Frc consts  --      2.0135                 0.9449                 1.4329
 IR Inten    --     34.5720                 1.3994                 9.6219

                     49                     50                     51
                      A                      A                      A
 Frequencies --   1141.8413              1163.3599              1180.3986
 Red. masses --      2.3137                 2.4268                 3.2524
 Frc consts  --      1.7773                 1.9352                 2.6700
 IR Inten    --      4.3020                 5.8289                25.2270

                     52                     53                     54
                      A                      A                      A
 Frequencies --   1200.1838              1244.0847              1285.1657
 Red. masses --      2.3041                 3.7141                 2.2237
 Frc consts  --      1.9555                 3.3869                 2.1640
 IR Inten    --      3.9746                40.1261                31.0476

                     55                     56                     57
                      A                      A                      A
 Frequencies --   1312.4113              1345.7470              1359.0398
 Red. masses --      3.4489                 1.4179                 1.7410
 Frc consts  --      3.5000                 1.5129                 1.8945
 IR Inten    --     38.5727                25.8532                90.3687

                     58                     59                     60
                      A                      A                      A
 Frequencies --   1366.3516              1396.0638              1407.2173
 Red. masses --      1.6338                 1.3570                 1.3206
 Frc consts  --      1.7971                 1.5583                 1.5408
 IR Inten    --      7.1738                15.4750                23.0446

                     61                     62                     63
                      A                      A                      A
 Frequencies --   1437.8697              1442.5486              1447.5361
 Red. masses --      1.2855                 1.2677                 5.7948
 Frc consts  --      1.5659                 1.5543                 7.1540
 IR Inten    --     21.5104                 4.9354                 6.1890

                     64                     65                     66
                      A                      A                      A
 Frequencies --   1470.0493              1477.8880              1483.6015
 Red. masses --      4.5122                 1.1497                 2.8889
 Frc consts  --      5.7452                 1.4796                 3.7464
 IR Inten    --     54.5240                26.0808                13.4296

                     67                     68                     69
                      A                      A                      A
 Frequencies --   1505.2370              1515.2835              1517.9680
 Red. masses --      1.0420                 1.1879                 1.4359
 Frc consts  --      1.3910                 1.6070                 1.9494
 IR Inten    --      7.9677                12.1054                41.0924

                     70                     71                     72
                      A                      A                      A
 Frequencies --   1520.8594              1536.2017              1539.7775
 Red. masses --      1.1012                 1.0866                 4.9037
 Frc consts  --      1.5007                 1.5109                 6.8500
 IR Inten    --     13.4144                 3.3614                36.1821

                     73                     74                     75
                      A                      A                      A
 Frequencies --   1558.5701              1595.3561              1631.0600
 Red. masses --      5.8295                 5.4043                 6.9061
 Frc consts  --      8.3432                 8.1042                10.8248
 IR Inten    --     24.0179                32.5529                 4.5289

                     76                     77                     78
                      A                      A                      A
 Frequencies --   1736.9923              2250.3649              3046.6399
 Red. masses --     11.2741                 5.9354                 1.0364
 Frc consts  --     20.0414                17.7096                 5.6680
 IR Inten    --    485.4794                 0.4370                41.9880

                     79                     80                     81
                      A                      A                      A
 Frequencies --   3059.7193              3088.9930              3094.5393
 Red. masses --      1.0357                 1.0669                 1.0578
 Frc consts  --      5.7128                 5.9982                 5.9683
 IR Inten    --     22.0121                24.1459                12.4779

                     82                     83                     84
                      A                      A                      A
 Frequencies --   3099.2781              3126.6219              3132.3241
 Red. masses --      1.1017                 1.1032                 1.1010
 Frc consts  --      6.2349                 6.3543                 6.3644
 IR Inten    --     13.1057                25.3316                11.4189

                     85                     86                     87
                      A                      A                      A
 Frequencies --   3145.9589              3149.0603              3168.8160
 Red. masses --      1.1057                 1.0996                 1.1021
 Frc consts  --      6.4473                 6.4245                 6.5205
 IR Inten    --      0.5751                12.4023                 5.2010

                     88                     89                     90
                      A                      A                      A
 Frequencies --   3210.4276              3230.4490              3497.3964
 Red. masses --      1.0914                 1.0933                 1.1615
 Frc consts  --      6.6276                 6.7224                 8.3706
 IR Inten    --      8.9781                 6.5011                58.1811

 - Thermochemistry -
 -------------------
 Temperature   298.150 Kelvin.  Pressure   1.00000 Atm.
 Atom     1 has atomic number  6 and mass  12.00000

 Molecular mass:   271.07793 amu.
 Principal axes and moments of inertia in atomic units:
                           1         2         3
     Eigenvalues --  2575.742068514.16008**********
           X            0.99996   0.00849   0.00241
           Y           -0.00846   0.99992  -0.00955
           Z           -0.00249   0.00953   0.99995
 This molecule is an asymmetric top.
 Rotational symmetry number  1.
 Warning -- assumption of classical behavior for rotation
           may cause significant error
 Rotational temperatures (Kelvin)      0.03363     0.01017     0.00835
 Rotational constants (GHZ):           0.70067     0.21197     0.17394
 Zero-point vibrational energy     648947.7 (Joules/Mol)
                                  155.10223 (Kcal/Mol)
 Warning -- explicit consideration of  28 degrees of freedom as
           vibrations may cause significant error
 Vibrational temperatures:     35.38    55.08    81.39   104.77   123.83
          (Kelvin)            151.72   168.96   211.92   224.33   298.72
                              314.65   360.64   393.52   410.85   429.87
                              443.40   462.09   468.30   515.47   580.93
                              605.56   704.39   732.80   777.56   823.37
                              845.06   852.55   890.05   920.14   937.27
                              946.06   952.78   975.96  1014.95  1062.39
                             1080.29  1167.20  1173.94  1283.84  1287.90
                             1329.25  1359.21  1390.03  1439.86  1459.87
                             1513.34  1539.74  1609.71  1642.85  1673.82
                             1698.33  1726.80  1789.96  1849.07  1888.27
                             1936.23  1955.36  1965.88  2008.62  2024.67
                             2068.77  2075.51  2082.68  2115.07  2126.35
                             2134.57  2165.70  2180.15  2184.02  2188.18
                             2210.25  2215.40  2242.43  2295.36  2346.73
                             2499.14  3237.77  4383.44  4402.25  4444.37
                             4452.35  4459.17  4498.51  4506.72  4526.33
                             4530.80  4559.22  4619.09  4647.90  5031.97

 Zero-point correction=                           0.247171 (Hartree/Particle)
 Thermal correction to Energy=                    0.264889
 Thermal correction to Enthalpy=                  0.265833
 Thermal correction to Gibbs Free Energy=         0.200383
 Sum of electronic and zero-point Energies=          -1178.727237
 Sum of electronic and thermal Energies=             -1178.709519
 Sum of electronic and thermal Enthalpies=           -1178.708575
 Sum of electronic and thermal Free Energies=        -1178.774025

                     E (Thermal)             CV                S
                      KCal/Mol        Cal/Mol-Kelvin    Cal/Mol-Kelvin
 Total                  166.220             66.417            137.751
 Electronic               0.000              0.000              0.000
 Translational            0.889              2.981             42.691
 Rotational               0.889              2.981             33.786
 Vibrational            164.443             60.455             61.274
 Vibration     1          0.593              1.985              6.224
 Vibration     2          0.594              1.982              5.346
 Vibration     3          0.596              1.975              4.573
 Vibration     4          0.599              1.967              4.076
 Vibration     5          0.601              1.959              3.748
 Vibration     6          0.605              1.945              3.351
 Vibration     7          0.608              1.935              3.142
 Vibration     8          0.617              1.906              2.707
 Vibration     9          0.620              1.896              2.599
 Vibration    10          0.641              1.829              2.064
 Vibration    11          0.646              1.813              1.970
 Vibration    12          0.663              1.762              1.726
 Vibration    13          0.676              1.722              1.574
 Vibration    14          0.683              1.700              1.500
 Vibration    15          0.692              1.676              1.424
 Vibration    16          0.698              1.658              1.372
 Vibration    17          0.707              1.633              1.304
 Vibration    18          0.710              1.625              1.282
 Vibration    19          0.733              1.558              1.130
 Vibration    20          0.769              1.462              0.949
 Vibration    21          0.783              1.425              0.889
 Vibration    22          0.845              1.273              0.685
 Vibration    23          0.864              1.229              0.635
 Vibration    24          0.896              1.161              0.564
 Vibration    25          0.928              1.091              0.500
 Vibration    26          0.944              1.059              0.472
 Vibration    27          0.950              1.048              0.463
 Vibration    28          0.978              0.993              0.419

 Optimization completed.
    -- Stationary point found.
 Normal termination of Gaussian 16 at Mon Dec 14 19:19:33 2020.

 ----------------------------------------------------------------------
 # B3LYP/6-311++G(d,p) empiricaldispersion=gd3bj scf=xqc pop=npa geom=c
 heck
 ----------------------------------------------------------------------

 --------------------------------------
 CID_95797505_JID_9628_Energie_neutraal
 --------------------------------------
 Structure from the checkpoint file:  "JID_9628.chk"
 Charge =  0 Multiplicity = 1

 SCF Done:  E(RB3LYP) =  -1179.20572031     A.U. after   17 cycles
 Normal termination of Gaussian 16 at Mon Dec 14 19:27:22 2020.

 ----------------------------------------------------------------------
 # B3LYP/6-311++G(d,p) empiricaldispersion=gd3bj scf=xqc pop=npa geom=c
 heck
 ----------------------------------------------------------------------

 ------------------------------------
 CID_95797505_JID_9628_Energie_kation
 ------------------------------------
 Structure from the checkpoint file:  "JID_9628.chk"
 Charge =  1 Multiplicity = 2

 SCF Done:  E(UB3LYP) =  -1178.92627140     A.U. after   33 cycles
 SCF Done:  E(UB3LYP) =  -1178.92627140     a.u. after    1 cycles
 Normal termination of Gaussian 16 at Mon Dec 14 19:48:23 2020.
 Gaussian 16:  ES64L-G16RevA.03 25-Dec-2016

 ----------------------------------------------------------------------
 # B3LYP/6-311++G(d,p) empiricaldispersion=gd3bj scf=xqc pop=npa geom=c
 heck
 ----------------------------------------------------------------------

 -----------------------------------
 CID_95797505_JID_9628_Energie_anion
 -----------------------------------
 Structure from the checkpoint file:  "JID_9628.chk"
 Charge = -1 Multiplicity = 2

                         Standard orientation:
 ---------------------------------------------------------------------
 Center     Atomic      Atomic             Coordinates (Angstroms)
 Number     Number       Type             X           Y           Z
 ---------------------------------------------------------------------
      1          6           0        0.384923    3.423199   -0.853040
      2          6           0        0.423016    2.646106    0.460757
      3          7           0        0.548401    1.203316    0.244505
      4          6           0        1.727913    0.488516    0.219460
      5          6           0        1.453860   -0.846880   -0.093577
      6          6           0        0.051765   -0.963263   -0.282416
      7          6           0       -0.467821    0.329149   -0.073427
      8          6           0       -1.870661    0.619680   -0.186016
      9          8           0       -2.415224    1.717953   -0.028839
     10          7           0       -2.609303   -0.526294   -0.528485
     11          7           0       -2.149796   -1.791046   -0.718467
     12          6           0       -0.867141   -2.000168   -0.605967
     13          6           0       -4.068033   -0.390811   -0.622381
     14          6           0       -4.740552   -0.654493    0.650592
     15          6           0       -5.302930   -0.874496    1.694571
     16         16           0        2.919713   -1.787399   -0.115043
     17          6           0        3.876418   -0.353477    0.294247
     18          6           0        3.107818    0.770806    0.438615
     19          6           0        5.361626   -0.471239    0.439807
     20          1           0        1.270690    3.213331   -1.462056
     21          1           0        0.347711    4.499159   -0.651081
     22          1           0       -0.511224    3.149428   -1.416152
     23          1           0        1.273865    2.947566    1.079036
     24          1           0       -0.494863    2.814631    1.024135
     25          1           0       -0.544443   -3.022383   -0.777766
     26          1           0       -4.274531    0.629454   -0.954039
     27          1           0       -4.399491   -1.097167   -1.387555
     28          1           0       -5.789780   -1.067640    2.623132
     29          1           0        3.522346    1.741237    0.685079
     30          1           0        5.636972   -1.178941    1.230915
     31          1           0        5.834756   -0.814857   -0.487909
     32          1           0        5.788060    0.503350    0.695435
 ---------------------------------------------------------------------

 SCF Done:  E(UB3LYP) =  -1179.20663162     A.U. after   33 cycles
 SCF Done:  E(UB3LYP) =  -1179.20663162     a.u. after    1 cycles

 The electronic state is 2-A.
 Alpha  occ. eigenvalues --  -88.75001 -18.94894 -14.25210 -14.23192 -14.21918
 Alpha  occ. eigenvalues --  -10.13383 -10.12141 -10.09665 -10.08720 -10.08022
 Alpha  occ. eigenvalues --  -10.07982 -10.07549 -10.07205 -10.06939 -10.06903
 Alpha  occ. eigenvalues --  -10.06771 -10.05679 -10.05431 -10.05326  -7.83590
 Alpha  occ. eigenvalues --   -5.79912  -5.79562  -5.79117  -0.92474  -0.87563
 Alpha  occ. eigenvalues --   -0.86628  -0.75126  -0.74114  -0.69591  -0.66733
 Alpha  occ. eigenvalues --   -0.64504  -0.64025  -0.60842  -0.60272  -0.57466
 Alpha  occ. eigenvalues --   -0.54290  -0.51461  -0.48632  -0.45177  -0.44109
 Alpha  occ. eigenvalues --   -0.43369  -0.40477  -0.39470  -0.38515  -0.37744
 Alpha  occ. eigenvalues --   -0.35443  -0.34159  -0.33576  -0.32691  -0.32160
 Alpha  occ. eigenvalues --   -0.32002  -0.30819  -0.29978  -0.29509  -0.28436
 Alpha  occ. eigenvalues --   -0.27687  -0.26554  -0.25847  -0.25458  -0.24722
 Alpha  occ. eigenvalues --   -0.23785  -0.22252  -0.20805  -0.18865  -0.18214
 Alpha  occ. eigenvalues --   -0.17875  -0.16939  -0.12844  -0.12516  -0.09583
 Alpha  occ. eigenvalues --   -0.08996   0.04526
 Alpha virt. eigenvalues --    0.06755   0.07628   0.07783   0.08573   0.09080
 Alpha virt. eigenvalues --    0.09507   0.09951   0.10291   0.11121   0.11279
 Alpha virt. eigenvalues --    0.11409   0.11551   0.12597   0.13049   0.13180

  Beta  occ. eigenvalues --  -88.74995 -18.94744 -14.24983 -14.22945 -14.21776
  Beta  occ. eigenvalues --  -10.13262 -10.12153 -10.09670 -10.08779 -10.07961
  Beta  occ. eigenvalues --  -10.07942 -10.07229 -10.07174 -10.06982 -10.06763
  Beta  occ. eigenvalues --  -10.06757 -10.05662 -10.05329 -10.05310  -7.83585
  Beta  occ. eigenvalues --   -5.79913  -5.79565  -5.79090  -0.92138  -0.87257
  Beta  occ. eigenvalues --   -0.86303  -0.74882  -0.73914  -0.69354  -0.66619
  Beta  occ. eigenvalues --   -0.64184  -0.63907  -0.60713  -0.60128  -0.57346
  Beta  occ. eigenvalues --   -0.54106  -0.51350  -0.48315  -0.45095  -0.43902
  Beta  occ. eigenvalues --   -0.43234  -0.40372  -0.39264  -0.38233  -0.37552
  Beta  occ. eigenvalues --   -0.35273  -0.34040  -0.33095  -0.32626  -0.31913
  Beta  occ. eigenvalues --   -0.31722  -0.30634  -0.29641  -0.29300  -0.28245
  Beta  occ. eigenvalues --   -0.27535  -0.26311  -0.25770  -0.25359  -0.24507
  Beta  occ. eigenvalues --   -0.23171  -0.22142  -0.20051  -0.18758  -0.18033
  Beta  occ. eigenvalues --   -0.17824  -0.16202  -0.12458  -0.12043  -0.08742
  Beta  occ. eigenvalues --   -0.07573
  Beta virt. eigenvalues --    0.06848   0.07666   0.07857   0.08832   0.09155
  Beta virt. eigenvalues --    0.09424   0.09775   0.10059   0.10429   0.11182
  Beta virt. eigenvalues --    0.11318   0.11538   0.11677   0.12556   0.13000

 Mulliken charges and spin densities:
               1          2
     1  C   -0.270669  -0.201778
     2  C   -0.148750  -0.072914
     3  N    0.203599   0.084067
     4  C   -0.817432   0.033120
     5  C    0.808694   0.023835
     6  C    1.643694   0.112759
     7  C   -0.614924   0.177694
     8  C   -0.222556  -0.009178
     9  O   -0.400695   0.052683
    10  N    0.497560   0.062347
    11  N   -0.240137   0.078124
    12  C   -0.513609   0.012855
    13  C   -1.187300  -0.021305
    14  C    1.832787   0.015939
    15  C   -1.234939   0.001537
    16  S   -0.644082  -0.013786
    17  C   -0.501639   0.376466
    18  C   -0.402749  -0.088723
    19  C    0.174159  -0.605845
    20  H    0.132464  -0.000490
    21  H   -0.017997   0.123738
    22  H    0.174160   0.015402
    23  H   -0.143655   0.266544
    24  H    0.206676   0.005085
    25  H    0.164994   0.002599
    26  H    0.197673  -0.000812
    27  H    0.165132   0.025938
    28  H    0.113796   0.002437
    29  H   -0.036910   0.171531
    30  H   -0.059723   0.221986
    31  H    0.150155  -0.002558
    32  H   -0.007778   0.150703
 Sum of Mulliken charges =  -1.00000   1.00000

 Dipole moment (field-independent basis, Debye):
    X=             -0.1127    Y=             -0.4280    Z=             -1.3903  Tot=              1.4591
 Quadrupole moment (field-independent basis, Debye-Ang):
   XX=           -177.3112   YY=           -147.0871   ZZ=           -130.1549
   XY=              3.9259   XZ=             -6.0915   YZ=             -1.5442

 Summary of Natural Population Analysis:

                                       Natural Population
                Natural  -----------------------------------------------
    Atom  No    Charge         Core      Valence    Rydberg      Total
 -----------------------------------------------------------------------
      C    1   -0.28886      0.99966     2.28490    0.00430     3.28886
      C    2   -0.08635      0.99964     2.07610    0.01062     3.08635
      N    3   -0.16300      0.99958     2.65419    0.00923     3.66300
      C    4    0.09087      0.99943     1.89818    0.01152     2.90913
      C    5   -0.14239      0.99931     2.13300    0.01008     3.14239
      C    6   -0.05430      0.99944     2.04645    0.00841     3.05430
      C    7    0.09217      0.99945     1.89725    0.01113     2.90783
      C    8    0.31765      0.99955     1.66216    0.02063     2.68235
      O    9   -0.33737      0.99989     3.33206    0.00542     4.33737
      N   10   -0.11352      0.99965     2.59918    0.01469     3.61352
      N   11   -0.12205      0.99970     2.61044    0.01191     3.62205
      C   12    0.00514      0.99961     1.98160    0.01365     2.99486
      C   13   -0.12847      0.99955     2.11846    0.01046     3.12847
      C   14    0.01230      0.99936     1.98171    0.00664     2.98770
      C   15   -0.13382      0.99927     2.13117    0.00338     3.13382
      S   16    0.17372      4.99943     2.80722    0.01963     7.82628
      C   17   -0.01753      0.99952     2.00650    0.01150     3.01753
      C   18   -0.15731      0.99942     2.14806    0.00983     3.15731
      C   19   -0.30256      0.99961     2.29711    0.00583     3.30256
      H   20    0.09545      0.00000     0.40356    0.00099     0.40455
      H   21    0.09382      0.00000     0.40486    0.00131     0.40618
      H   22    0.10819      0.00000     0.39049    0.00132     0.39181
      H   23    0.09330      0.00000     0.40529    0.00142     0.40670
      H   24    0.11253      0.00000     0.38616    0.00131     0.38747
      H   25    0.09148      0.00000     0.40749    0.00102     0.40852
      H   26    0.12425      0.00000     0.37439    0.00136     0.37575
      H   27    0.11340      0.00000     0.38542    0.00118     0.38660
      H   28    0.10720      0.00000     0.39183    0.00097     0.39280
      H   29    0.10498      0.00000     0.39405    0.00098     0.39502
      H   30    0.10574      0.00000     0.39277    0.00149     0.39426
      H   31    0.10153      0.00000     0.39755    0.00092     0.39847
      H   32    0.10380      0.00000     0.39540    0.00079     0.39620
 =======================================================================
   * Total *    0.00000     22.99106    47.79501    0.21393    71.00000

 Normal termination of Gaussian 16 at Mon Dec 14 20:09:31 2020.
