 Gaussian 16, Revision A.03,

 -----------------------------------------------------------
 # opt freq B3LYP/6-31G(d) empiricaldispersion=gd3bj scf=xqc
 -----------------------------------------------------------

 ------------------------------
 CID_114416493_JID_872_neutraal
 ------------------------------
 Symbolic Z-matrix:
 Charge =  0 Multiplicity = 1

 SCF Done:  E(RB3LYP) =  -443.779136183     A.U. after   14 cycles
 SCF Done:  E(RB3LYP) =  -443.796776393     A.U. after   12 cycles
 SCF Done:  E(RB3LYP) =  -443.798051065     A.U. after   12 cycles
 SCF Done:  E(RB3LYP) =  -443.797523141     A.U. after   12 cycles
 SCF Done:  E(RB3LYP) =  -443.797704891     A.U. after   12 cycles
 SCF Done:  E(RB3LYP) =  -443.798528209     A.U. after   10 cycles
 SCF Done:  E(RB3LYP) =  -443.798766838     A.U. after   11 cycles
 SCF Done:  E(RB3LYP) =  -443.798291406     A.U. after   11 cycles
 SCF Done:  E(RB3LYP) =  -443.798887434     A.U. after   11 cycles
 SCF Done:  E(RB3LYP) =  -443.798899968     A.U. after   10 cycles
 SCF Done:  E(RB3LYP) =  -443.798908514     A.U. after    9 cycles
 SCF Done:  E(RB3LYP) =  -443.798911703     A.U. after    9 cycles
 SCF Done:  E(RB3LYP) =  -443.798913024     A.U. after    8 cycles
 SCF Done:  E(RB3LYP) =  -443.798913408     A.U. after    8 cycles
 SCF Done:  E(RB3LYP) =  -443.798913474     A.U. after    7 cycles
 Optimization completed.
    -- Stationary point found.
 Normal termination of Gaussian 16 at Tue Dec  8 13:23:58 2020.

 --------------------------------------------------------------------
 #N Geom=AllCheck Guess=TCheck SCRF=Check GenChk RB3LYP/6-31G(d) Freq
 --------------------------------------------------------------------

 Structure from the checkpoint file:  "JID_872.chk"
 ------------------------------
 CID_114416493_JID_872_neutraal
 ------------------------------
 Charge =  0 Multiplicity = 1

 SCF Done:  E(RB3LYP) =  -443.798913474     A.U. after    1 cycles

  Exact polarizability:  96.876   0.541  98.749  -1.576  -3.370  75.078
 Approx polarizability: 117.315   1.700 154.040  -1.297  -6.845 109.777

                      1                      2                      3
                      A                      A                      A
 Frequencies --     37.0942                51.0809                67.8540
 Red. masses --      3.8685                 3.2488                 4.1086
 Frc consts  --      0.0031                 0.0050                 0.0111
 IR Inten    --      0.6293                 0.2302                 0.6465

                      4                      5                      6
                      A                      A                      A
 Frequencies --    113.4092               167.0067               187.3771
 Red. masses --      4.2700                 3.8828                 2.7006
 Frc consts  --      0.0324                 0.0638                 0.0559
 IR Inten    --      2.8202                 0.8108                 6.8937

                      7                      8                      9
                      A                      A                      A
 Frequencies --    217.2414               234.9331               262.1151
 Red. masses --      1.7609                 2.0880                 1.5353
 Frc consts  --      0.0490                 0.0679                 0.0621
 IR Inten    --      5.1401                16.4225                 1.7422

                     10                     11                     12
                      A                      A                      A
 Frequencies --    298.7402               329.6334               340.6540
 Red. masses --      1.3621                 1.8428                 2.1785
 Frc consts  --      0.0716                 0.1180                 0.1489
 IR Inten    --     50.4636                22.6369                24.5027

                     13                     14                     15
                      A                      A                      A
 Frequencies --    408.8707               475.0424               542.8126
 Red. masses --      2.1325                 2.3668                 3.3501
 Frc consts  --      0.2100                 0.3147                 0.5816
 IR Inten    --      0.7914                 2.0545                 2.0859

                     16                     17                     18
                      A                      A                      A
 Frequencies --    553.5184               595.0675               608.6425
 Red. masses --      3.2710                 2.5899                 1.2500
 Frc consts  --      0.5905                 0.5403                 0.2728
 IR Inten    --      5.8400                12.5705                41.1862

                     19                     20                     21
                      A                      A                      A
 Frequencies --    622.7626               706.8287               735.2403
 Red. masses --      1.2083                 1.9732                 1.4419
 Frc consts  --      0.2761                 0.5808                 0.4592
 IR Inten    --     49.3385                85.7787                 8.0277

                     22                     23                     24
                      A                      A                      A
 Frequencies --    803.2596               848.6356               881.7363
 Red. masses --      2.4253                 2.2502                 1.8952
 Frc consts  --      0.9220                 0.9548                 0.8681
 IR Inten    --      5.1002                36.5481                 3.8300

                     25                     26                     27
                      A                      A                      A
 Frequencies --    934.7969               948.8554              1005.2326
 Red. masses --      1.9971                 1.6932                 1.6455
 Frc consts  --      1.0282                 0.8981                 0.9797
 IR Inten    --     23.7881                 3.9508                15.0812

                     28                     29                     30
                      A                      A                      A
 Frequencies --   1049.5283              1086.3645              1095.5433
 Red. masses --      1.7426                 2.4952                 2.3125
 Frc consts  --      1.1310                 1.7350                 1.6353
 IR Inten    --      5.0659                64.5084                42.8919

                     31                     32                     33
                      A                      A                      A
 Frequencies --   1110.6563              1117.6986              1153.3872
 Red. masses --      2.1096                 2.4792                 1.4120
 Frc consts  --      1.5333                 1.8248                 1.1067
 IR Inten    --     15.2067                21.8776                 1.3592

                     34                     35                     36
                      A                      A                      A
 Frequencies --   1163.6915              1219.2180              1228.2076
 Red. masses --      2.9599                 1.4784                 1.4251
 Frc consts  --      2.3616                 1.2948                 1.2666
 IR Inten    --     53.7751                 9.7676                15.7023

                     37                     38                     39
                      A                      A                      A
 Frequencies --   1288.8673              1329.0002              1337.8757
 Red. masses --      1.2807                 1.1713                 1.3348
 Frc consts  --      1.2535                 1.2189                 1.4077
 IR Inten    --      1.3990                 1.3670                10.3428

                     40                     41                     42
                      A                      A                      A
 Frequencies --   1378.2368              1391.9331              1404.3699
 Red. masses --      1.2947                 1.3790                 1.3170
 Frc consts  --      1.4490                 1.5741                 1.5304
 IR Inten    --     11.9292                 2.6441                 2.7151

                     43                     44                     45
                      A                      A                      A
 Frequencies --   1408.8616              1426.5500              1430.0963
 Red. masses --      1.2027                 1.3017                 1.2382
 Frc consts  --      1.4065                 1.5607                 1.4920
 IR Inten    --     29.8282                 5.3787                 7.5538

                     46                     47                     48
                      A                      A                      A
 Frequencies --   1443.6768              1504.2770              1509.0078
 Red. masses --      1.2978                 1.1106                 1.0978
 Frc consts  --      1.5937                 1.4806                 1.4728
 IR Inten    --     39.5632                10.8618                 1.0717

                     49                     50                     51
                      A                      A                      A
 Frequencies --   1516.4250              1520.0192              1524.7307
 Red. masses --      1.0822                 1.0576                 1.0841
 Frc consts  --      1.4662                 1.4397                 1.4850
 IR Inten    --     11.2520                10.7452                 6.2654

                     52                     53                     54
                      A                      A                      A
 Frequencies --   1533.0282              1541.2704              2222.0547
 Red. masses --      1.1313                 1.0874                 5.9638
 Frc consts  --      1.5665                 1.5220                17.3493
 IR Inten    --     12.6901                 0.9904                 0.4303

                     55                     56                     57
                      A                      A                      A
 Frequencies --   2986.2305              3024.2979              3036.0523
 Red. masses --      1.0730                 1.0684                 1.0677
 Frc consts  --      5.6377                 5.7577                 5.7986
 IR Inten    --     60.7666                20.6200                49.6670

                     58                     59                     60
                      A                      A                      A
 Frequencies --   3038.4336              3051.0960              3060.7457
 Red. masses --      1.0803                 1.0608                 1.0348
 Frc consts  --      5.8759                 5.8182                 5.7117
 IR Inten    --     32.1997                11.4401                20.1499

                     61                     62                     63
                      A                      A                      A
 Frequencies --   3069.3470              3090.5468              3101.4089
 Red. masses --      1.1010                 1.1011                 1.0929
 Frc consts  --      6.1112                 6.1963                 6.1937
 IR Inten    --     36.2228                40.5054                53.7226

                     64                     65                     66
                      A                      A                      A
 Frequencies --   3105.0619              3131.1159              3150.4946
 Red. masses --      1.0927                 1.1022                 1.1042
 Frc consts  --      6.2073                 6.3666                 6.4576
 IR Inten    --     29.1327                27.6551                20.7200

                     67                     68                     69
                      A                      A                      A
 Frequencies --   3493.4538              3506.5583              3752.8030
 Red. masses --      1.1590                 1.0736                 1.0659
 Frc consts  --      8.3339                 7.7776                 8.8448
 IR Inten    --     53.2108                 0.0984                 6.2833

 - Thermochemistry -
 -------------------
 Temperature   298.150 Kelvin.  Pressure   1.00000 Atm.
 Atom     1 has atomic number  6 and mass  12.00000

 Molecular mass:   141.11536 amu.
 Principal axes and moments of inertia in atomic units:
                           1         2         3
     Eigenvalues --   791.469032717.197453086.25984
           X            0.99989  -0.01348  -0.00538
           Y            0.01343   0.99986  -0.00968
           Z            0.00551   0.00961   0.99994
 This molecule is an asymmetric top.
 Rotational symmetry number  1.
 Warning -- assumption of classical behavior for rotation
           may cause significant error
 Rotational temperatures (Kelvin)      0.10943     0.03188     0.02806
 Rotational constants (GHZ):           2.28024     0.66419     0.58477
 Zero-point vibrational energy     583243.3 (Joules/Mol)
                                  139.39849 (Kcal/Mol)
 Warning -- explicit consideration of  18 degrees of freedom as
           vibrations may cause significant error
 Vibrational temperatures:     53.37    73.49    97.63   163.17   240.29
          (Kelvin)            269.59   312.56   338.02   377.13   429.82
                              474.27   490.13   588.27   683.48   780.99
                              796.39   856.17   875.70   896.02  1016.97
                             1057.85  1155.71  1221.00  1268.62  1344.96
                             1365.19  1446.31  1510.04  1563.04  1576.24
                             1597.99  1608.12  1659.47  1674.29  1754.18
                             1767.12  1854.39  1912.13  1924.90  1982.98
                             2002.68  2020.58  2027.04  2052.49  2057.59
                             2077.13  2164.32  2171.13  2181.80  2186.97
                             2193.75  2205.69  2217.54  3197.04  4296.52
                             4351.29  4368.20  4371.63  4389.85  4403.73
                             4416.11  4446.61  4462.24  4467.49  4504.98
                             4532.86  5026.30  5045.16  5399.45

 Zero-point correction=                           0.222146 (Hartree/Particle)
 Thermal correction to Energy=                    0.234307
 Thermal correction to Enthalpy=                  0.235251
 Thermal correction to Gibbs Free Energy=         0.183482
 Sum of electronic and zero-point Energies=           -443.576768
 Sum of electronic and thermal Energies=              -443.564606
 Sum of electronic and thermal Enthalpies=            -443.563662
 Sum of electronic and thermal Free Energies=         -443.615432

                     E (Thermal)             CV                S
                      KCal/Mol        Cal/Mol-Kelvin    Cal/Mol-Kelvin
 Total                  147.030             44.380            108.958
 Electronic               0.000              0.000              0.000
 Translational            0.889              2.981             40.745
 Rotational               0.889              2.981             30.274
 Vibrational            145.252             38.419             37.940
 Vibration     1          0.594              1.982              5.409
 Vibration     2          0.595              1.977              4.775
 Vibration     3          0.598              1.970              4.215
 Vibration     4          0.607              1.938              3.210
 Vibration     5          0.624              1.883              2.469
 Vibration     6          0.632              1.857              2.254
 Vibration     7          0.646              1.815              1.982
 Vibration     8          0.655              1.787              1.841
 Vibration     9          0.669              1.742              1.648
 Vibration    10          0.692              1.676              1.424
 Vibration    11          0.712              1.616              1.262
 Vibration    12          0.720              1.594              1.209
 Vibration    13          0.773              1.451              0.931
 Vibration    14          0.832              1.305              0.724
 Vibration    15          0.898              1.155              0.559
 Vibration    16          0.909              1.132              0.537
 Vibration    17          0.953              1.042              0.458
 Vibration    18          0.968              1.014              0.435

 Optimization completed.
    -- Stationary point found.
 Normal termination of Gaussian 16 at Tue Dec  8 13:29:57 2020.

 ----------------------------------------------------------------------
 # B3LYP/6-311++G(d,p) empiricaldispersion=gd3bj scf=xqc pop=npa geom=c
 heck
 ----------------------------------------------------------------------

 --------------------------------------
 CID_114416493_JID_872_Energie_neutraal
 --------------------------------------
 Structure from the checkpoint file:  "JID_872.chk"
 Charge =  0 Multiplicity = 1

 SCF Done:  E(RB3LYP) =  -443.943772723     A.U. after   14 cycles
 Normal termination of Gaussian 16 at Tue Dec  8 13:34:09 2020.

 ----------------------------------------------------------------------
 # B3LYP/6-311++G(d,p) empiricaldispersion=gd3bj scf=xqc pop=npa geom=c
 heck
 ----------------------------------------------------------------------

 ------------------------------------
 CID_114416493_JID_872_Energie_kation
 ------------------------------------
 Structure from the checkpoint file:  "JID_872.chk"
 Charge =  1 Multiplicity = 2

 SCF Done:  E(UB3LYP) =  -443.630216937     A.U. after   23 cycles
 Normal termination of Gaussian 16 at Tue Dec  8 13:45:21 2020.
 Gaussian 16:  ES64L-G16RevA.03 25-Dec-2016

 ----------------------------------------------------------------------
 # B3LYP/6-311++G(d,p) empiricaldispersion=gd3bj scf=xqc pop=npa geom=c
 heck
 ----------------------------------------------------------------------

 -----------------------------------
 CID_114416493_JID_872_Energie_anion
 -----------------------------------
 Structure from the checkpoint file:  "JID_872.chk"
 Charge = -1 Multiplicity = 2

                         Standard orientation:
 ---------------------------------------------------------------------
 Center     Atomic      Atomic             Coordinates (Angstroms)
 Number     Number       Type             X           Y           Z
 ---------------------------------------------------------------------
      1          6           0        3.230082   -0.941461   -0.647885
      2          6           0        2.054865   -0.434518    0.204453
      3          6           0        1.990073    1.040856    0.139781
      4          6           0        1.945313    2.243627    0.028421
      5          7           0        0.828323   -1.126938   -0.204523
      6          6           0       -0.275692   -1.140686    0.754298
      7          6           0       -0.974727    0.193434    1.079885
      8          6           0       -1.561850    0.926785   -0.134837
      9          6           0       -2.585957    0.115215   -0.931053
     10          8           0       -3.710904   -0.287312   -0.155925
     11          1           0        3.065884   -0.696129   -1.702834
     12          1           0        3.305679   -2.027606   -0.550033
     13          1           0        4.169809   -0.476472   -0.334356
     14          1           0        2.236966   -0.724726    1.248234
     15          1           0        1.894425    3.305311   -0.055626
     16          1           0        0.519372   -0.769279   -1.105964
     17          1           0       -1.011314   -1.860072    0.369836
     18          1           0        0.110689   -1.576284    1.684631
     19          1           0       -1.776034   -0.011648    1.804901
     20          1           0       -0.271728    0.862326    1.586421
     21          1           0       -2.042543    1.850148    0.210428
     22          1           0       -0.749657    1.230721   -0.807441
     23          1           0       -2.994929    0.728077   -1.740440
     24          1           0       -2.105877   -0.757889   -1.403762
     25          1           0       -3.394407   -0.908932    0.516688
 ---------------------------------------------------------------------

 SCF Done:  E(UB3LYP) =  -443.928062167     A.U. after   33 cycles
 SCF Done:  E(UB3LYP) =  -443.928062167     a.u. after    1 cycles

 The electronic state is 2-A.
 Alpha  occ. eigenvalues --  -19.01992 -14.20194 -10.12630 -10.11329 -10.08932
 Alpha  occ. eigenvalues --  -10.07292 -10.06639 -10.06347 -10.06165 -10.05929
 Alpha  occ. eigenvalues --   -0.92049  -0.81564  -0.69539  -0.66906  -0.63155
 Alpha  occ. eigenvalues --   -0.60039  -0.54605  -0.52779  -0.46937  -0.44414
 Alpha  occ. eigenvalues --   -0.41377  -0.39687  -0.37568  -0.36536  -0.34327
 Alpha  occ. eigenvalues --   -0.34024  -0.31835  -0.29712  -0.29598  -0.28164
 Alpha  occ. eigenvalues --   -0.26927  -0.25553  -0.24396  -0.23842  -0.22035
 Alpha  occ. eigenvalues --   -0.18612  -0.17451  -0.17317  -0.12989   0.04639
 Alpha virt. eigenvalues --    0.06641   0.07287   0.07708   0.08946   0.09500
 Alpha virt. eigenvalues --    0.10082   0.10305   0.11016   0.11789   0.12169
 Alpha virt. eigenvalues --    0.12490   0.12793   0.13393   0.14037   0.15278

  Beta  occ. eigenvalues --  -19.01960 -14.20184 -10.12610 -10.11310 -10.08897
  Beta  occ. eigenvalues --  -10.07296 -10.06611 -10.06313 -10.06155 -10.05908
  Beta  occ. eigenvalues --   -0.91980  -0.81537  -0.69498  -0.66870  -0.63118
  Beta  occ. eigenvalues --   -0.59974  -0.54532  -0.52704  -0.46875  -0.44359
  Beta  occ. eigenvalues --   -0.41317  -0.39637  -0.37512  -0.36489  -0.34284
  Beta  occ. eigenvalues --   -0.33971  -0.31789  -0.29671  -0.29551  -0.28129
  Beta  occ. eigenvalues --   -0.26884  -0.25518  -0.24358  -0.23800  -0.22005
  Beta  occ. eigenvalues --   -0.18581  -0.17416  -0.17276  -0.12968
  Beta virt. eigenvalues --    0.06902   0.07884   0.07965   0.08254   0.09490
  Beta virt. eigenvalues --    0.09917   0.10507   0.10711   0.11375   0.12035
  Beta virt. eigenvalues --    0.12389   0.12849   0.13040   0.13630   0.14455

 Mulliken charges and spin densities:
               1          2
     1  C    1.091885  -1.582381
     2  C   -1.941270   1.034998
     3  C    6.751646  -5.131194
     4  C   -4.882033   3.470933
     5  N    0.157594  -0.018557
     6  C    0.994710  -1.311823
     7  C   -0.443150   0.321559
     8  C   -0.538838   0.280184
     9  C    1.017528  -1.528903
    10  O   -0.284366   0.043099
    11  H   -0.118383   0.262722
    12  H   -0.182322   0.343510
    13  H   -0.098373   0.231182
    14  H   -0.269954   0.436424
    15  H   -1.403474   1.567701
    16  H    0.284635  -0.054492
    17  H   -0.265925   0.453306
    18  H   -0.564765   0.723667
    19  H   -0.399594   0.569079
    20  H    0.239566  -0.114031
    21  H   -0.161561   0.329441
    22  H    0.240383  -0.116649
    23  H   -0.015967   0.187090
    24  H   -0.190933   0.335391
    25  H   -0.017037   0.267743
 Sum of Mulliken charges =  -1.00000   1.00000

 Dipole moment (field-independent basis, Debye):
    X=             -0.1824    Y=             -0.5856    Z=             -2.0934  Tot=              2.1814
 Quadrupole moment (field-independent basis, Debye-Ang):
   XX=           -129.4779   YY=           -113.1420   ZZ=            -93.7272
   XY=             -7.0154   XZ=              1.4382   YZ=              2.7204

 Summary of Natural Population Analysis:

                                       Natural Population
                Natural  -----------------------------------------------
    Atom  No    Charge         Core      Valence    Rydberg      Total
 -----------------------------------------------------------------------
      C    1   -0.27330      0.99965     2.26855    0.00510     3.27330
      C    2   -0.05050      0.99954     2.03766    0.01331     3.05050
      C    3   -0.01309      0.99937     2.00334    0.01038     3.01309
      C    4   -0.11814      0.99927     2.11443    0.00445     3.11814
      N    5   -0.33451      0.99975     2.82209    0.01267     3.83451
      C    6   -0.08833      0.99962     2.07524    0.01347     3.08833
      C    7   -0.20706      0.99962     2.19743    0.01001     3.20706
      C    8   -0.20729      0.99962     2.19962    0.00804     3.20729
      C    9   -0.00921      0.99960     1.99778    0.01183     3.00921
      O   10   -0.37088      0.99990     3.36410    0.00688     4.37088
      H   11    0.09755      0.00000     0.40119    0.00126     0.40245
      H   12    0.10357      0.00000     0.39477    0.00166     0.39643
      H   13    0.10068      0.00000     0.39810    0.00122     0.39932
      H   14    0.10694      0.00000     0.39055    0.00252     0.39306
      H   15    0.11271      0.00000     0.38466    0.00263     0.38729
      H   16    0.17171      0.00000     0.32468    0.00362     0.32829
      H   17    0.09181      0.00000     0.40650    0.00169     0.40819
      H   18    0.09610      0.00000     0.40179    0.00211     0.40390
      H   19    0.09737      0.00000     0.40086    0.00176     0.40263
      H   20    0.10546      0.00000     0.39300    0.00154     0.39454
      H   21    0.09982      0.00000     0.39881    0.00138     0.40018
      H   22    0.10183      0.00000     0.39646    0.00171     0.39817
      H   23    0.08460      0.00000     0.41408    0.00132     0.41540
      H   24    0.07285      0.00000     0.42558    0.00157     0.42715
      H   25    0.22932      0.00000     0.26652    0.00416     0.27068
 =======================================================================
   * Total *    0.00000      9.99592    28.87781    0.12627    39.00000

 Normal termination of Gaussian 16 at Tue Dec  8 13:51:36 2020.
