 Gaussian 16, Revision A.03,

 -----------------------------------------------------------
 # opt freq B3LYP/6-31G(d) empiricaldispersion=gd3bj scf=xqc
 -----------------------------------------------------------

 -------------------------------
 CID_106728999_JID_5716_neutraal
 -------------------------------
 Symbolic Z-matrix:
 Charge =  0 Multiplicity = 1

 SCF Done:  E(RB3LYP) =  -1056.29696259     A.U. after   14 cycles
 SCF Done:  E(RB3LYP) =  -1056.30138292     A.U. after   13 cycles
 SCF Done:  E(RB3LYP) =  -1056.29704321     A.U. after   13 cycles
 SCF Done:  E(RB3LYP) =  -1056.30251553     A.U. after   12 cycles
 SCF Done:  E(RB3LYP) =  -1056.30364783     A.U. after   12 cycles
 SCF Done:  E(RB3LYP) =  -1056.30474366     A.U. after   12 cycles
 SCF Done:  E(RB3LYP) =  -1056.30348101     A.U. after   12 cycles
 SCF Done:  E(RB3LYP) =  -1056.30455488     A.U. after   12 cycles
 SCF Done:  E(RB3LYP) =  -1056.30492315     A.U. after    9 cycles
 SCF Done:  E(RB3LYP) =  -1056.30500171     A.U. after   11 cycles
 SCF Done:  E(RB3LYP) =  -1056.30761935     A.U. after   10 cycles
 SCF Done:  E(RB3LYP) =  -1056.30764603     A.U. after   10 cycles
 SCF Done:  E(RB3LYP) =  -1056.30765365     A.U. after    9 cycles
 SCF Done:  E(RB3LYP) =  -1056.30765689     A.U. after    9 cycles
 SCF Done:  E(RB3LYP) =  -1056.30765719     A.U. after    8 cycles
 SCF Done:  E(RB3LYP) =  -1056.30765743     A.U. after    7 cycles
 Optimization completed.
    -- Stationary point found.
 Normal termination of Gaussian 16 at Thu Dec 10 17:24:00 2020.

 --------------------------------------------------------------------
 #N Geom=AllCheck Guess=TCheck SCRF=Check GenChk RB3LYP/6-31G(d) Freq
 --------------------------------------------------------------------

 Structure from the checkpoint file:  "JID_5716.chk"
 -------------------------------
 CID_106728999_JID_5716_neutraal
 -------------------------------
 Charge =  0 Multiplicity = 1

 SCF Done:  E(RB3LYP) =  -1056.30765743     A.U. after    1 cycles

  Exact polarizability: 163.522  -1.780 131.972   2.284  -1.523 121.873
 Approx polarizability: 205.489   0.588 197.363   3.461  -1.399 193.820

                      1                      2                      3
                      A                      A                      A
 Frequencies --     35.2376                64.8346                78.1240
 Red. masses --      3.6809                 3.3679                 2.6648
 Frc consts  --      0.0027                 0.0083                 0.0096
 IR Inten    --      0.6782                 3.1548                 0.1960

                      4                      5                      6
                      A                      A                      A
 Frequencies --    111.0456               135.0856               161.9223
 Red. masses --      4.0689                 4.2399                 4.7324
 Frc consts  --      0.0296                 0.0456                 0.0731
 IR Inten    --      0.6533                 7.3399                 2.8358

                      7                      8                      9
                      A                      A                      A
 Frequencies --    182.2130               196.1005               213.8473
 Red. masses --      4.1765                 2.1899                 2.5078
 Frc consts  --      0.0817                 0.0496                 0.0676
 IR Inten    --      7.4817                 2.2419                 1.1993

                     10                     11                     12
                      A                      A                      A
 Frequencies --    225.8026               238.8677               275.2459
 Red. masses --      4.2605                 1.3706                 1.0661
 Frc consts  --      0.1280                 0.0461                 0.0476
 IR Inten    --      0.7998                 0.5678                 2.7295

                     13                     14                     15
                      A                      A                      A
 Frequencies --    292.1312               315.0308               319.8158
 Red. masses --      2.9690                 2.2700                 3.0683
 Frc consts  --      0.1493                 0.1327                 0.1849
 IR Inten    --      0.6248                 1.3393                 4.9659

                     16                     17                     18
                      A                      A                      A
 Frequencies --    342.0305               379.0464               398.8437
 Red. masses --      1.8829                 3.4427                 3.9697
 Frc consts  --      0.1298                 0.2914                 0.3721
 IR Inten    --      2.5598                 1.2755                17.1036

                     19                     20                     21
                      A                      A                      A
 Frequencies --    430.5729               438.0146               439.8116
 Red. masses --      2.9107                 2.9573                 3.0564
 Frc consts  --      0.3179                 0.3343                 0.3483
 IR Inten    --      4.6399                 5.1317                 5.6722

                     22                     23                     24
                      A                      A                      A
 Frequencies --    461.6123               485.5727               499.7693
 Red. masses --      3.4825                 2.6534                 4.7604
 Frc consts  --      0.4372                 0.3686                 0.7005
 IR Inten    --      1.6007                 5.6807                17.3711

                     25                     26                     27
                      A                      A                      A
 Frequencies --    527.2126               566.2875               594.3723
 Red. masses --      3.3538                 1.9774                 4.4717
 Frc consts  --      0.5492                 0.3736                 0.9308
 IR Inten    --      2.3020                 7.9944                17.8486

                     28                     29                     30
                      A                      A                      A
 Frequencies --    657.1459               714.6329               786.6875
 Red. masses --      1.0589                 4.0478                 1.8195
 Frc consts  --      0.2694                 1.2180                 0.6634
 IR Inten    --    208.0725                69.4081                 3.2338

                     31                     32                     33
                      A                      A                      A
 Frequencies --    837.7847               857.3926               868.9192
 Red. masses --      1.9974                 2.4184                 1.6031
 Frc consts  --      0.8260                 1.0474                 0.7131
 IR Inten    --      8.8667                 2.2908                 4.8879

                     34                     35                     36
                      A                      A                      A
 Frequencies --    899.6192               906.4823               920.0232
 Red. masses --      2.5297                 1.5367                 2.1064
 Frc consts  --      1.2062                 0.7440                 1.0505
 IR Inten    --      0.6287                 6.3775                 1.4218

                     37                     38                     39
                      A                      A                      A
 Frequencies --    959.9211               962.3855               979.5677
 Red. masses --      1.1212                 1.8927                 2.0069
 Frc consts  --      0.6087                 1.0329                 1.1346
 IR Inten    --      0.5345                 1.9867                 0.9971

                     40                     41                     42
                      A                      A                      A
 Frequencies --    982.8072              1031.0424              1057.2697
 Red. masses --      1.4182                 3.2438                 1.8794
 Frc consts  --      0.8071                 2.0317                 1.2378
 IR Inten    --      0.6282                29.6419                11.3182

                     43                     44                     45
                      A                      A                      A
 Frequencies --   1067.2424              1085.2274              1093.3672
 Red. masses --      1.5914                 3.4753                 2.4196
 Frc consts  --      1.0680                 2.4114                 1.7042
 IR Inten    --      4.9186                59.2842                23.2771

                     46                     47                     48
                      A                      A                      A
 Frequencies --   1106.6271              1107.7679              1120.4056
 Red. masses --      1.5301                 2.5650                 3.1898
 Frc consts  --      1.1040                 1.8545                 2.3592
 IR Inten    --     10.4188                 1.2236                48.7750

                     49                     50                     51
                      A                      A                      A
 Frequencies --   1138.6005              1143.2380              1159.0590
 Red. masses --      1.4717                 2.2164                 2.1221
 Frc consts  --      1.1241                 1.7068                 1.6796
 IR Inten    --     22.2082                 2.4231                17.7066

                     52                     53                     54
                      A                      A                      A
 Frequencies --   1195.9614              1209.2948              1237.0085
 Red. masses --      1.3109                 1.7747                 1.4763
 Frc consts  --      1.1047                 1.5291                 1.3310
 IR Inten    --      8.9124                 0.1350                11.3856

                     55                     56                     57
                      A                      A                      A
 Frequencies --   1259.2413              1273.0999              1283.9170
 Red. masses --      2.1459                 1.3893                 1.2299
 Frc consts  --      2.0048                 1.3267                 1.1945
 IR Inten    --    107.7036                42.0761                10.2638

                     58                     59                     60
                      A                      A                      A
 Frequencies --   1294.1229              1312.0047              1322.8249
 Red. masses --      1.8248                 1.2770                 1.2453
 Frc consts  --      1.8006                 1.2951                 1.2839
 IR Inten    --     67.0924                 0.5323                36.7747

                     61                     62                     63
                      A                      A                      A
 Frequencies --   1333.2125              1336.7212              1346.7073
 Red. masses --      1.2733                 1.2302                 1.4440
 Frc consts  --      1.3335                 1.2951                 1.5430
 IR Inten    --      7.6835                 1.9749                 1.0595

                     64                     65                     66
                      A                      A                      A
 Frequencies --   1355.8053              1377.1886              1386.5157
 Red. masses --      1.2803                 1.2625                 1.4069
 Frc consts  --      1.3866                 1.4108                 1.5935
 IR Inten    --      3.3074                 2.0508                 1.0829

                     67                     68                     69
                      A                      A                      A
 Frequencies --   1401.0915              1401.7285              1412.2769
 Red. masses --      1.4584                 1.4715                 1.3622
 Frc consts  --      1.6868                 1.7035                 1.6008
 IR Inten    --      6.0053                 1.4510                12.0397

                     70                     71                     72
                      A                      A                      A
 Frequencies --   1422.9194              1435.9674              1453.2767
 Red. masses --      1.3917                 1.2338                 1.5438
 Frc consts  --      1.6602                 1.4989                 1.9210
 IR Inten    --      7.9658                 4.4779                16.3533

                     73                     74                     75
                      A                      A                      A
 Frequencies --   1461.1696              1484.8057              1514.0276
 Red. masses --      1.2036                 1.0917                 1.0926
 Frc consts  --      1.5141                 1.4181                 1.4756
 IR Inten    --      3.2299                 7.6360                 0.8901

                     76                     77                     78
                      A                      A                      A
 Frequencies --   1516.4952              1519.2257              1521.7124
 Red. masses --      1.0938                 1.0457                 1.0828
 Frc consts  --      1.4821                 1.4220                 1.4773
 IR Inten    --      3.3588                 6.2774                 6.0988

                     79                     80                     81
                      A                      A                      A
 Frequencies --   1524.2400              1525.0399              1534.1275
 Red. masses --      1.0693                 1.0587                 1.1007
 Frc consts  --      1.4637                 1.4507                 1.5263
 IR Inten    --      8.6366                 1.7620                 1.9246

                     82                     83                     84
                      A                      A                      A
 Frequencies --   1537.0170              1547.8023              2944.5284
 Red. masses --      1.0441                 1.0482                 1.0821
 Frc consts  --      1.4533                 1.4795                 5.5277
 IR Inten    --      8.7780                34.7311                50.6618

                     85                     86                     87
                      A                      A                      A
 Frequencies --   3016.1919              3024.3787              3029.5769
 Red. masses --      1.0647                 1.0692                 1.0649
 Frc consts  --      5.7069                 5.7619                 5.7587
 IR Inten    --     17.9985                16.2654                21.6827

                     88                     89                     90
                      A                      A                      A
 Frequencies --   3037.2623              3042.1736              3054.3900
 Red. masses --      1.0711                 1.0733                 1.0408
 Frc consts  --      5.8216                 5.8525                 5.7210
 IR Inten    --      4.2691                32.6748                 3.7940

                     91                     92                     93
                      A                      A                      A
 Frequencies --   3057.8306              3058.5980              3063.6958
 Red. masses --      1.0464                 1.0624                 1.0950
 Frc consts  --      5.7648                 5.8555                 6.0558
 IR Inten    --     11.9689                34.2560                60.2779

                     94                     95                     96
                      A                      A                      A
 Frequencies --   3071.8836              3077.0602              3082.0832
 Red. masses --      1.0809                 1.0957                 1.0995
 Frc consts  --      6.0097                 6.1123                 6.1539
 IR Inten    --      7.9953                66.6992                63.6410

                     97                     98                     99
                      A                      A                      A
 Frequencies --   3086.6738              3096.1695              3099.7932
 Red. masses --      1.0651                 1.0988                 1.0920
 Frc consts  --      5.9788                 6.2059                 6.1822
 IR Inten    --      5.3250                42.0503                10.7930

                    100                    101                    102
                      A                      A                      A
 Frequencies --   3115.5076              3121.5881              3145.8132
 Red. masses --      1.1016                 1.1002                 1.1055
 Frc consts  --      6.2997                 6.3163                 6.4460
 IR Inten    --      0.8566                46.5278                 2.6791

                    103                    104                    105
                      A                      A                      A
 Frequencies --   3155.7975              3165.7977              3620.7417
 Red. masses --      1.1030                 1.1004                 1.0669
 Frc consts  --      6.4723                 6.4977                 8.2410
 IR Inten    --     11.2497                 4.9656               334.2834

 - Thermochemistry -
 -------------------
 Temperature   298.150 Kelvin.  Pressure   1.00000 Atm.
 Atom     1 has atomic number  6 and mass  12.00000

 Molecular mass:   234.12897 amu.
 Principal axes and moments of inertia in atomic units:
                           1         2         3
     Eigenvalues --  1789.581966153.223016285.52271
           X            0.99985  -0.01161   0.01274
           Y            0.01265   0.99629  -0.08517
           Z           -0.01170   0.08531   0.99629
 This molecule is an asymmetric top.
 Rotational symmetry number  1.
 Warning -- assumption of classical behavior for rotation
           may cause significant error
 Rotational temperatures (Kelvin)      0.04840     0.01408     0.01378
 Rotational constants (GHZ):           1.00847     0.29330     0.28713
 Zero-point vibrational energy     865831.7 (Joules/Mol)
                                  206.93874 (Kcal/Mol)
 Warning -- explicit consideration of  27 degrees of freedom as
           vibrations may cause significant error
 Vibrational temperatures:     50.70    93.28   112.40   159.77   194.36
          (Kelvin)            232.97   262.16   282.14   307.68   324.88
                              343.68   396.02   420.31   453.26   460.14
                              492.11   545.36   573.85   619.50   630.21
                              632.79   664.16   698.63   719.06   758.54
                              814.76   855.17   945.49  1028.20  1131.87
                             1205.39  1233.60  1250.18  1294.35  1304.23
                             1323.71  1381.11  1384.66  1409.38  1414.04
                             1483.44  1521.18  1535.52  1561.40  1573.11
                             1592.19  1593.83  1612.01  1638.19  1644.86
                             1667.63  1720.72  1739.91  1779.78  1811.77
                             1831.71  1847.27  1861.95  1887.68  1903.25
                             1918.20  1923.24  1937.61  1950.70  1981.47
                             1994.89  2015.86  2016.77  2031.95  2047.26
                             2066.04  2090.94  2102.30  2136.30  2178.35
                             2181.90  2185.83  2189.40  2193.04  2194.19
                             2207.27  2211.42  2226.94  4236.52  4339.63
                             4351.41  4358.89  4369.94  4377.01  4394.59
                             4399.54  4400.64  4407.97  4419.76  4427.20
                             4434.43  4441.04  4454.70  4459.91  4482.52
                             4491.27  4526.12  4540.49  4554.88  5209.44

 Zero-point correction=                           0.329778 (Hartree/Particle)
 Thermal correction to Energy=                    0.345936
 Thermal correction to Enthalpy=                  0.346880
 Thermal correction to Gibbs Free Energy=         0.286978
 Sum of electronic and zero-point Energies=          -1055.977880
 Sum of electronic and thermal Energies=             -1055.961722
 Sum of electronic and thermal Enthalpies=           -1055.960778
 Sum of electronic and thermal Free Energies=        -1056.020680

                     E (Thermal)             CV                S
                      KCal/Mol        Cal/Mol-Kelvin    Cal/Mol-Kelvin
 Total                  217.078             63.280            126.075
 Electronic               0.000              0.000              0.000
 Translational            0.889              2.981             42.254
 Rotational               0.889              2.981             32.604
 Vibrational            215.300             57.318             51.217
 Vibration     1          0.594              1.982              5.510
 Vibration     2          0.597              1.971              4.304
 Vibration     3          0.599              1.964              3.937
 Vibration     4          0.607              1.940              3.251
 Vibration     5          0.613              1.918              2.872
 Vibration     6          0.622              1.889              2.527
 Vibration     7          0.630              1.864              2.306
 Vibration     8          0.636              1.845              2.169
 Vibration     9          0.644              1.820              2.011
 Vibration    10          0.650              1.802              1.912
 Vibration    11          0.657              1.781              1.811
 Vibration    12          0.677              1.719              1.563
 Vibration    13          0.688              1.688              1.462
 Vibration    14          0.702              1.645              1.336
 Vibration    15          0.706              1.636              1.311
 Vibration    16          0.721              1.591              1.203
 Vibration    17          0.749              1.515              1.043
 Vibration    18          0.765              1.473              0.967
 Vibration    19          0.792              1.404              0.857
 Vibration    20          0.798              1.387              0.833
 Vibration    21          0.800              1.383              0.827
 Vibration    22          0.819              1.335              0.761
 Vibration    23          0.842              1.282              0.695
 Vibration    24          0.855              1.251              0.659
 Vibration    25          0.882              1.190              0.593
 Vibration    26          0.922              1.104              0.511
 Vibration    27          0.952              1.044              0.459

 Optimization completed.
    -- Stationary point found.
 Normal termination of Gaussian 16 at Thu Dec 10 17:37:07 2020.

 ----------------------------------------------------------------------
 # B3LYP/6-311++G(d,p) empiricaldispersion=gd3bj scf=xqc pop=npa geom=c
 heck
 ----------------------------------------------------------------------

 ---------------------------------------
 CID_106728999_JID_5716_Energie_neutraal
 ---------------------------------------
 Structure from the checkpoint file:  "JID_5716.chk"
 Charge =  0 Multiplicity = 1

 SCF Done:  E(RB3LYP) =  -1056.53025384     A.U. after   15 cycles
 Normal termination of Gaussian 16 at Thu Dec 10 17:44:36 2020.

 ----------------------------------------------------------------------
 # B3LYP/6-311++G(d,p) empiricaldispersion=gd3bj scf=xqc pop=npa geom=c
 heck
 ----------------------------------------------------------------------

 -------------------------------------
 CID_106728999_JID_5716_Energie_kation
 -------------------------------------
 Structure from the checkpoint file:  "JID_5716.chk"
 Charge =  1 Multiplicity = 2

 SCF Done:  E(UB3LYP) =  -1056.19275381     A.U. after   25 cycles
 Normal termination of Gaussian 16 at Thu Dec 10 18:06:18 2020.
 Gaussian 16:  ES64L-G16RevA.03 25-Dec-2016

 ----------------------------------------------------------------------
 # B3LYP/6-311++G(d,p) empiricaldispersion=gd3bj scf=xqc pop=npa geom=c
 heck
 ----------------------------------------------------------------------

 ------------------------------------
 CID_106728999_JID_5716_Energie_anion
 ------------------------------------
 Structure from the checkpoint file:  "JID_5716.chk"
 Charge = -1 Multiplicity = 2

                         Standard orientation:
 ---------------------------------------------------------------------
 Center     Atomic      Atomic             Coordinates (Angstroms)
 Number     Number       Type             X           Y           Z
 ---------------------------------------------------------------------
      1          6           0        3.415320   -0.800407    1.731078
      2          6           0        2.550416   -1.125633    0.514946
      3          6           0        1.268812   -1.879557    0.862224
      4         16           0        2.233735    0.394548   -0.467882
      5          8           0        3.496861    1.151368   -0.524191
      6          8           0        1.597965   -0.022550   -1.742198
      7          6           0        1.028615    1.426683    0.471067
      8          6           0       -0.340429    1.580473   -0.201570
      9          6           0       -1.437506    0.564771    0.214795
     10          6           0       -2.616559    1.312545    0.869497
     11          6           0       -3.751988    0.379352    1.297542
     12          6           0       -4.247082   -0.448623    0.107044
     13          6           0       -3.088213   -1.215762   -0.534008
     14          6           0       -1.938574   -0.301964   -0.960883
     15          8           0       -0.939948   -1.160663   -1.489265
     16          1           0        2.867360   -0.188282    2.456946
     17          1           0        4.324211   -0.269200    1.442882
     18          1           0        3.692839   -1.734431    2.231238
     19          1           0        3.132279   -1.701143   -0.215643
     20          1           0        0.732631   -1.384054    1.679444
     21          1           0        0.589289   -1.973543    0.011671
     22          1           0        1.537197   -2.882365    1.211606
     23          1           0        0.957965    1.017699    1.483715
     24          1           0        1.556938    2.381618    0.528148
     25          1           0       -0.687140    2.590220    0.047200
     26          1           0       -0.197687    1.581194   -1.287478
     27          1           0       -1.026182   -0.130530    0.958916
     28          1           0       -3.007218    2.048581    0.150633
     29          1           0       -2.246095    1.888498    1.727952
     30          1           0       -4.572915    0.961354    1.733938
     31          1           0       -3.390471   -0.297518    2.085259
     32          1           0       -4.702561    0.222389   -0.635495
     33          1           0       -5.032455   -1.146036    0.421842
     34          1           0       -3.421176   -1.784786   -1.408897
     35          1           0       -2.684272   -1.945972    0.181121
     36          1           0       -2.305057    0.383954   -1.747464
     37          1           0       -0.153134   -0.646912   -1.756585
 ---------------------------------------------------------------------

 SCF Done:  E(UB3LYP) =  -1056.52107359     A.U. after   29 cycles

 The electronic state is 2-A.
 Alpha  occ. eigenvalues --  -88.94938 -19.02853 -19.02196 -19.01476 -10.12906
 Alpha  occ. eigenvalues --  -10.12572 -10.12071 -10.09381 -10.08377 -10.08042
 Alpha  occ. eigenvalues --  -10.07687 -10.07668 -10.07388 -10.07157 -10.07151
 Alpha  occ. eigenvalues --   -8.01543  -5.97822  -5.97675  -5.97603  -1.01457
 Alpha  occ. eigenvalues --   -0.92298  -0.91093  -0.74779  -0.73456  -0.70998
 Alpha  occ. eigenvalues --   -0.65743  -0.64200  -0.60896  -0.59339  -0.55137
 Alpha  occ. eigenvalues --   -0.51696  -0.50826  -0.47793  -0.47030  -0.43151
 Alpha  occ. eigenvalues --   -0.41850  -0.39859  -0.38085  -0.38062  -0.37188
 Alpha  occ. eigenvalues --   -0.36136  -0.35312  -0.34457  -0.34108  -0.32850
 Alpha  occ. eigenvalues --   -0.31233  -0.31135  -0.30513  -0.30052  -0.29175
 Alpha  occ. eigenvalues --   -0.27792  -0.27496  -0.26972  -0.26634  -0.25165
 Alpha  occ. eigenvalues --   -0.24899  -0.24221  -0.23425  -0.23225  -0.22101
 Alpha  occ. eigenvalues --   -0.21492  -0.20711  -0.19530  -0.17276   0.04062
 Alpha virt. eigenvalues --    0.05997   0.06776   0.07286   0.08269   0.08490
 Alpha virt. eigenvalues --    0.08962   0.09565   0.10050   0.10557   0.11002
 Alpha virt. eigenvalues --    0.11119   0.11624   0.12248   0.12598   0.13345

  Beta  occ. eigenvalues --  -88.94936 -19.02848 -19.02192 -19.01473 -10.12900
  Beta  occ. eigenvalues --  -10.12572 -10.12031 -10.09373 -10.08369 -10.07998
  Beta  occ. eigenvalues --  -10.07679 -10.07636 -10.07365 -10.07153 -10.07129
  Beta  occ. eigenvalues --   -8.01541  -5.97821  -5.97674  -5.97598  -1.01446
  Beta  occ. eigenvalues --   -0.92291  -0.91084  -0.74754  -0.73428  -0.70966
  Beta  occ. eigenvalues --   -0.65707  -0.64171  -0.60827  -0.59307  -0.55079
  Beta  occ. eigenvalues --   -0.51656  -0.50789  -0.47736  -0.46992  -0.43135
  Beta  occ. eigenvalues --   -0.41823  -0.39827  -0.38060  -0.38036  -0.37156
  Beta  occ. eigenvalues --   -0.36113  -0.35285  -0.34427  -0.34074  -0.32789
  Beta  occ. eigenvalues --   -0.31197  -0.31098  -0.30474  -0.30012  -0.29156
  Beta  occ. eigenvalues --   -0.27755  -0.27462  -0.26939  -0.26596  -0.25138
  Beta  occ. eigenvalues --   -0.24874  -0.24206  -0.23398  -0.23201  -0.22078
  Beta  occ. eigenvalues --   -0.21478  -0.20695  -0.19504  -0.17267
  Beta virt. eigenvalues --    0.06331   0.06880   0.07340   0.07909   0.08592
  Beta virt. eigenvalues --    0.08925   0.09374   0.09910   0.10371   0.10852
  Beta virt. eigenvalues --    0.11274   0.11374   0.11851   0.12535   0.13084

 Mulliken charges and spin densities:
               1          2
     1  C    1.164271  -1.665656
     2  C   -1.443403   1.195309
     3  C    0.319625  -0.914892
     4  S    0.831560  -0.454459
     5  O   -0.190944   0.008231
     6  O   -0.239355   0.013058
     7  C   -0.217173  -0.427468
     8  C   -0.800596   0.488241
     9  C    0.781611  -0.104072
    10  C    0.102871  -0.638260
    11  C    0.281959  -0.692860
    12  C    0.149555  -0.604372
    13  C   -0.198157   0.076536
    14  C   -0.938759   0.245006
    15  O   -0.199801   0.000292
    16  H   -0.267369   0.442931
    17  H    0.093155   0.075346
    18  H   -0.515468   0.676108
    19  H    0.117087   0.125900
    20  H   -0.498809   0.686431
    21  H    0.241227  -0.044820
    22  H   -0.337575   0.523407
    23  H   -0.178609   0.433911
    24  H    0.127089   0.139197
    25  H   -0.268764   0.462872
    26  H    0.282465  -0.070853
    27  H    1.218802  -1.109825
    28  H    0.138014   0.001938
    29  H   -0.696449   0.883614
    30  H   -0.281317   0.461251
    31  H   -0.239178   0.381538
    32  H    0.057652   0.042927
    33  H    0.033167   0.141027
    34  H    0.151856   0.017152
    35  H    0.028468   0.117609
    36  H    0.082295   0.075515
    37  H    0.308997   0.012190
 Sum of Mulliken charges =  -1.00000   1.00000

 Dipole moment (field-independent basis, Debye):
    X=             -1.6324    Y=              0.1373    Z=             -6.1206  Tot=              6.3360
 Quadrupole moment (field-independent basis, Debye-Ang):
   XX=           -172.8289   YY=           -145.0928   ZZ=           -157.6220
   XY=              3.6544   XZ=              5.5268   YZ=             -2.6889

 Summary of Natural Population Analysis:

                                       Natural Population
                Natural  -----------------------------------------------
    Atom  No    Charge         Core      Valence    Rydberg      Total
 -----------------------------------------------------------------------
      C    1   -0.29558      0.99963     2.28889    0.00706     3.29558
      C    2   -0.19389      0.99958     2.18024    0.01407     3.19389
      C    3   -0.30403      0.99962     2.29686    0.00755     3.30403
      S    4    1.01333      4.99922     1.89720    0.09025     6.98667
      O    5   -0.46994      0.99991     3.46457    0.00546     4.46994
      O    6   -0.48782      0.99990     3.48224    0.00568     4.48782
      C    7   -0.28344      0.99957     2.27264    0.01123     3.28344
      C    8   -0.20295      0.99959     2.19211    0.01125     3.20295
      C    9   -0.13024      0.99956     2.11760    0.01307     3.13024
      C   10   -0.18609      0.99961     2.17624    0.01024     3.18609
      C   11   -0.18976      0.99963     2.18132    0.00881     3.18976
      C   12   -0.18973      0.99963     2.18170    0.00841     3.18973
      C   13   -0.19638      0.99961     2.18664    0.01013     3.19638
      C   14    0.07449      0.99951     1.91409    0.01191     2.92551
      O   15   -0.38747      0.99988     3.38108    0.00651     4.38747
      H   16    0.10492      0.00000     0.39319    0.00190     0.39508
      H   17    0.11162      0.00000     0.38723    0.00114     0.38838
      H   18    0.10866      0.00000     0.38964    0.00170     0.39134
      H   19    0.11356      0.00000     0.38520    0.00124     0.38644
      H   20    0.10253      0.00000     0.39553    0.00195     0.39747
      H   21    0.12149      0.00000     0.37684    0.00167     0.37851
      H   22    0.10846      0.00000     0.39038    0.00115     0.39154
      H   23    0.12023      0.00000     0.37711    0.00266     0.37977
      H   24    0.12066      0.00000     0.37817    0.00117     0.37934
      H   25    0.10808      0.00000     0.39071    0.00121     0.39192
      H   26    0.10847      0.00000     0.39014    0.00139     0.39153
      H   27    0.09968      0.00000     0.39726    0.00306     0.40032
      H   28    0.09115      0.00000     0.40753    0.00132     0.40885
      H   29    0.10623      0.00000     0.39142    0.00235     0.39377
      H   30    0.09960      0.00000     0.39927    0.00113     0.40040
      H   31    0.09706      0.00000     0.40128    0.00166     0.40294
      H   32    0.09087      0.00000     0.40807    0.00105     0.40913
      H   33    0.09878      0.00000     0.40039    0.00083     0.40122
      H   34    0.10078      0.00000     0.39829    0.00093     0.39922
      H   35    0.09906      0.00000     0.39945    0.00149     0.40094
      H   36    0.07090      0.00000     0.42756    0.00154     0.42910
      H   37    0.24669      0.00000     0.25058    0.00274     0.25331
 =======================================================================
   * Total *    0.00000     18.99444    44.74867    0.25689    64.00000

 Normal termination of Gaussian 16 at Thu Dec 10 18:25:16 2020.
