 Gaussian 16, Revision A.03,

 -----------------------------------------------------------
 # opt freq B3LYP/6-31G(d) empiricaldispersion=gd3bj scf=xqc
 -----------------------------------------------------------

 ------------------------------
 CID_81849117_JID_8974_neutraal
 ------------------------------
 Symbolic Z-matrix:
 Charge =  0 Multiplicity = 1

 SCF Done:  E(RB3LYP) =  -767.228015312     A.U. after   14 cycles
 SCF Done:  E(RB3LYP) =  -767.233682359     A.U. after   12 cycles
 SCF Done:  E(RB3LYP) =  -767.236362579     A.U. after   12 cycles
 SCF Done:  E(RB3LYP) =  -767.237201906     A.U. after   12 cycles
 SCF Done:  E(RB3LYP) =  -767.237444387     A.U. after   11 cycles
 SCF Done:  E(RB3LYP) =  -767.237549275     A.U. after   11 cycles
 SCF Done:  E(RB3LYP) =  -767.237626146     A.U. after   11 cycles
 SCF Done:  E(RB3LYP) =  -767.237690267     A.U. after   11 cycles
 SCF Done:  E(RB3LYP) =  -767.237744817     A.U. after   11 cycles
 SCF Done:  E(RB3LYP) =  -767.237770452     A.U. after   11 cycles
 SCF Done:  E(RB3LYP) =  -767.238417537     A.U. after    9 cycles
 SCF Done:  E(RB3LYP) =  -767.238422631     A.U. after    9 cycles
 SCF Done:  E(RB3LYP) =  -767.238424970     A.U. after    9 cycles
 SCF Done:  E(RB3LYP) =  -767.238425086     A.U. after    7 cycles
 SCF Done:  E(RB3LYP) =  -767.238425103     A.U. after    7 cycles
 Optimization completed.
    -- Stationary point found.
 Normal termination of Gaussian 16 at Fri Dec 11 23:20:35 2020.

 --------------------------------------------------------------------
 #N Geom=AllCheck Guess=TCheck SCRF=Check GenChk RB3LYP/6-31G(d) Freq
 --------------------------------------------------------------------

 Structure from the checkpoint file:  "JID_8974.chk"
 ------------------------------
 CID_81849117_JID_8974_neutraal
 ------------------------------
 Charge =  0 Multiplicity = 1

 SCF Done:  E(RB3LYP) =  -767.238425103     A.U. after    1 cycles

  Exact polarizability: 246.530  16.504 141.742  -5.827   1.125 134.123
 Approx polarizability: 332.971  24.183 216.846 -15.014   0.202 220.775

                      1                      2                      3
                      A                      A                      A
 Frequencies --     20.3480                31.4625                54.6356
 Red. masses --      4.2523                 4.2336                 4.2775
 Frc consts  --      0.0010                 0.0025                 0.0075
 IR Inten    --      0.0297                 0.0431                 0.4435

                      4                      5                      6
                      A                      A                      A
 Frequencies --     82.5862                97.2840               118.0320
 Red. masses --      3.0729                 2.8935                 4.3408
 Frc consts  --      0.0123                 0.0161                 0.0356
 IR Inten    --      1.3081                 3.9311                 0.6000

                      7                      8                      9
                      A                      A                      A
 Frequencies --    119.5718               136.7685               172.7496
 Red. masses --      3.5812                 3.9348                 1.1505
 Frc consts  --      0.0302                 0.0434                 0.0202
 IR Inten    --      0.9762                 1.5855                 0.5870

                     10                     11                     12
                      A                      A                      A
 Frequencies --    217.8855               233.1756               238.3049
 Red. masses --      1.2446                 2.7551                 3.6481
 Frc consts  --      0.0348                 0.0883                 0.1221
 IR Inten    --      0.0840                 0.6359                 1.4095

                     13                     14                     15
                      A                      A                      A
 Frequencies --    251.6145               254.3952               325.2196
 Red. masses --      4.5394                 3.3728                 3.3813
 Frc consts  --      0.1693                 0.1286                 0.2107
 IR Inten    --      2.4386                 7.0474                 1.5868

                     16                     17                     18
                      A                      A                      A
 Frequencies --    344.4657               383.8378               417.6802
 Red. masses --      2.3669                 2.9245                 2.1968
 Frc consts  --      0.1655                 0.2539                 0.2258
 IR Inten    --      2.6667                41.6027                22.0599

                     19                     20                     21
                      A                      A                      A
 Frequencies --    455.6696               468.6915               470.8040
 Red. masses --      1.9372                 3.2801                 2.8397
 Frc consts  --      0.2370                 0.4245                 0.3708
 IR Inten    --     75.0574                 5.5999                11.8441

                     22                     23                     24
                      A                      A                      A
 Frequencies --    505.8868               545.0722               569.7493
 Red. masses --      3.9747                 3.5559                 3.6691
 Frc consts  --      0.5993                 0.6225                 0.7017
 IR Inten    --      5.5959                27.7003                 3.0450

                     25                     26                     27
                      A                      A                      A
 Frequencies --    589.5534               637.6805               650.5801
 Red. masses --      4.1822                 5.0670                 5.2849
 Frc consts  --      0.8564                 1.2140                 1.3179
 IR Inten    --      3.1525                10.1420                 1.9520

                     28                     29                     30
                      A                      A                      A
 Frequencies --    668.2151               745.4471               747.0830
 Red. masses --      4.8233                 3.9649                 3.0316
 Frc consts  --      1.2689                 1.2981                 0.9969
 IR Inten    --      2.8337                 0.1057                 1.5789

                     31                     32                     33
                      A                      A                      A
 Frequencies --    771.3953               776.1844               802.4333
 Red. masses --      1.7283                 2.1498                 1.4659
 Frc consts  --      0.6059                 0.7631                 0.5561
 IR Inten    --     15.1227                19.4537                17.7775

                     34                     35                     36
                      A                      A                      A
 Frequencies --    806.2605               814.0864               830.1070
 Red. masses --      1.4077                 2.5791                 1.7687
 Frc consts  --      0.5391                 1.0071                 0.7181
 IR Inten    --      7.3769                 8.2487                32.1084

                     37                     38                     39
                      A                      A                      A
 Frequencies --    868.6213               893.6594               948.8903
 Red. masses --      2.9957                 1.5320                 1.3698
 Frc consts  --      1.3317                 0.7209                 0.7267
 IR Inten    --      2.8171                 0.5422                 1.6193

                     40                     41                     42
                      A                      A                      A
 Frequencies --    964.4530               980.7937               985.5738
 Red. masses --      1.3338                 2.4276                 3.4176
 Frc consts  --      0.7310                 1.3759                 1.9559
 IR Inten    --      0.6889                 1.0045                 1.4201

                     43                     44                     45
                      A                      A                      A
 Frequencies --    987.3845              1004.4549              1008.3275
 Red. masses --      1.2942                 7.4732                 1.7102
 Frc consts  --      0.7434                 4.4424                 1.0245
 IR Inten    --      0.1777                 9.8168                 9.6071

                     46                     47                     48
                      A                      A                      A
 Frequencies --   1064.2723              1086.5501              1089.2065
 Red. masses --      1.9226                 2.0708                 2.7898
 Frc consts  --      1.2831                 1.4404                 1.9501
 IR Inten    --      1.4254                 6.8410                77.0673

                     49                     50                     51
                      A                      A                      A
 Frequencies --   1097.5740              1114.5012              1144.5416
 Red. masses --      1.7318                 5.1437                 1.5045
 Frc consts  --      1.2292                 3.7643                 1.1612
 IR Inten    --      4.0513                16.5821                17.5708

                     52                     53                     54
                      A                      A                      A
 Frequencies --   1156.9809              1186.0929              1197.2256
 Red. masses --      1.6823                 1.2663                 1.0982
 Frc consts  --      1.3268                 1.0496                 0.9275
 IR Inten    --      0.8917                 0.5916                 0.6570

                     55                     56                     57
                      A                      A                      A
 Frequencies --   1212.2456              1214.8927              1241.4732
 Red. masses --      1.5227                 1.9281                 1.4698
 Frc consts  --      1.3184                 1.6767                 1.3347
 IR Inten    --      2.2333                 2.7796                30.2357

                     58                     59                     60
                      A                      A                      A
 Frequencies --   1254.9817              1263.6123              1287.5860
 Red. masses --      2.0013                 1.8468                 1.4408
 Frc consts  --      1.8571                 1.7374                 1.4073
 IR Inten    --    275.1686               102.5971                 0.8687

                     61                     62                     63
                      A                      A                      A
 Frequencies --   1296.7802              1338.1419              1344.5681
 Red. masses --      2.3248                 1.5740                 1.3390
 Frc consts  --      2.3034                 1.6605                 1.4262
 IR Inten    --     23.9038                 3.9695                 4.8681

                     64                     65                     66
                      A                      A                      A
 Frequencies --   1368.5812              1374.3986              1392.5616
 Red. masses --      3.4455                 1.5133                 2.9530
 Frc consts  --      3.8022                 1.6843                 3.3740
 IR Inten    --      0.8583                 2.8003                52.1269

                     67                     68                     69
                      A                      A                      A
 Frequencies --   1410.9004              1436.7508              1461.6515
 Red. masses --      1.7249                 1.2197                 1.9313
 Frc consts  --      2.0231                 1.4834                 2.4310
 IR Inten    --     34.3822                 1.6963                90.6299

                     70                     71                     72
                      A                      A                      A
 Frequencies --   1501.9169              1506.8794              1508.4727
 Red. masses --      2.1905                 1.6476                 1.0496
 Frc consts  --      2.9112                 2.2042                 1.4072
 IR Inten    --      8.6840                74.5309                 4.0134

                     73                     74                     75
                      A                      A                      A
 Frequencies --   1518.0307              1524.4928              1525.6547
 Red. masses --      1.8035                 1.0568                 1.0447
 Frc consts  --      2.4487                 1.4471                 1.4327
 IR Inten    --     45.2516                17.2012                 2.7092

                     76                     77                     78
                      A                      A                      A
 Frequencies --   1530.1725              1540.8028              1545.1529
 Red. masses --      1.1378                 1.3895                 1.7417
 Frc consts  --      1.5696                 1.9436                 2.4500
 IR Inten    --      6.7245                40.6059                 8.8655

                     79                     80                     81
                      A                      A                      A
 Frequencies --   1552.6444              1561.0764              1625.6105
 Red. masses --      1.8780                 1.2799                 4.9964
 Frc consts  --      2.6674                 1.8377                 7.7794
 IR Inten    --    208.5206                20.6640               126.8627

                     82                     83                     84
                      A                      A                      A
 Frequencies --   1640.8202              1668.4110              1671.3078
 Red. masses --      5.9563                 5.8598                 5.6981
 Frc consts  --      9.4481                 9.6104                 9.3776
 IR Inten    --      1.2720                 4.2160               546.2532

                     85                     86                     87
                      A                      A                      A
 Frequencies --   3004.2580              3049.8565              3057.3632
 Red. masses --      1.0709                 1.0354                 1.0652
 Frc consts  --      5.6949                 5.6746                 5.8664
 IR Inten    --     39.1941                23.6209                22.3375

                     88                     89                     90
                      A                      A                      A
 Frequencies --   3062.6904              3072.6130              3101.4647
 Red. masses --      1.0294                 1.0909                 1.0985
 Frc consts  --      5.6892                 6.0678                 6.2254
 IR Inten    --     60.7776                23.7688                 0.5811

                     91                     92                     93
                      A                      A                      A
 Frequencies --   3120.9509              3125.7798              3131.8335
 Red. masses --      1.1029                 1.1025                 1.1068
 Frc consts  --      6.3293                 6.3465                 6.3960
 IR Inten    --     40.8439                39.3459                29.3190

                     94                     95                     96
                      A                      A                      A
 Frequencies --   3162.6862              3169.2385              3174.7486
 Red. masses --      1.1065                 1.0883                 1.0865
 Frc consts  --      6.5209                 6.4401                 6.4519
 IR Inten    --     33.5333                28.0434                14.0499

                     97                     98                     99
                      A                      A                      A
 Frequencies --   3179.2975              3194.5669              3199.2965
 Red. masses --      1.0887                 1.0915                 1.0942
 Frc consts  --      6.4838                 6.5628                 6.5986
 IR Inten    --      2.2451                25.9510                19.9325

                    100                    101                    102
                      A                      A                      A
 Frequencies --   3209.9571              3242.9065              3600.6700
 Red. masses --      1.0973                 1.0907                 1.0764
 Frc consts  --      6.6616                 6.7578                 8.2225
 IR Inten    --     29.4658                 5.4440                25.2255

 - Thermochemistry -
 -------------------
 Temperature   298.150 Kelvin.  Pressure   1.00000 Atm.
 Atom     1 has atomic number  6 and mass  12.00000

 Molecular mass:   242.14191 amu.
 Principal axes and moments of inertia in atomic units:
                           1         2         3
     Eigenvalues --  1932.32895********************
           X            0.99999  -0.00299  -0.00383
           Y            0.00307   0.99978   0.02074
           Z            0.00377  -0.02075   0.99978
 This molecule is an asymmetric top.
 Rotational symmetry number  1.
 Warning -- assumption of classical behavior for rotation
           may cause significant error
 Rotational temperatures (Kelvin)      0.04482     0.00828     0.00790
 Rotational constants (GHZ):           0.93397     0.17246     0.16459
 Zero-point vibrational energy     803380.7 (Joules/Mol)
                                  192.01260 (Kcal/Mol)
 Warning -- explicit consideration of  25 degrees of freedom as
           vibrations may cause significant error
 Vibrational temperatures:     29.28    45.27    78.61   118.82   139.97
          (Kelvin)            169.82   172.04   196.78   248.55   313.49
                              335.49   342.87   362.02   366.02   467.92
                              495.61   552.26   600.95   655.61   674.34
                              677.38   727.86   784.24   819.74   848.24
                              917.48   936.04   961.41  1072.53  1074.89
                             1109.87  1116.76  1154.52  1160.03  1171.29
                             1194.34  1249.75  1285.78  1365.24  1387.63
                             1411.14  1418.02  1420.63  1445.19  1450.76
                             1531.25  1563.30  1567.13  1579.16  1603.52
                             1646.74  1664.64  1706.52  1722.54  1744.15
                             1747.96  1786.20  1805.64  1818.06  1852.55
                             1865.78  1925.29  1934.53  1969.08  1977.45
                             2003.59  2029.97  2067.16  2102.99  2160.92
                             2168.06  2170.36  2184.11  2193.41  2195.08
                             2201.58  2216.87  2223.13  2233.91  2246.04
                             2338.89  2360.77  2400.47  2404.64  4322.46
                             4388.06  4398.86  4406.53  4420.80  4462.32
                             4490.35  4497.30  4506.01  4550.40  4559.83
                             4567.76  4574.30  4596.27  4603.07  4618.41
                             4665.82  5180.56

 Zero-point correction=                           0.305992 (Hartree/Particle)
 Thermal correction to Energy=                    0.322874
 Thermal correction to Enthalpy=                  0.323818
 Thermal correction to Gibbs Free Energy=         0.259808
 Sum of electronic and zero-point Energies=           -766.932434
 Sum of electronic and thermal Energies=              -766.915551
 Sum of electronic and thermal Enthalpies=            -766.914607
 Sum of electronic and thermal Free Energies=         -766.978617

                     E (Thermal)             CV                S
                      KCal/Mol        Cal/Mol-Kelvin    Cal/Mol-Kelvin
 Total                  202.606             64.406            134.719
 Electronic               0.000              0.000              0.000
 Translational            0.889              2.981             42.354
 Rotational               0.889              2.981             33.760
 Vibrational            200.829             58.444             58.605
 Vibration     1          0.593              1.986              6.600
 Vibration     2          0.594              1.983              5.735
 Vibration     3          0.596              1.976              4.642
 Vibration     4          0.600              1.961              3.828
 Vibration     5          0.603              1.951              3.508
 Vibration     6          0.608              1.934              3.132
 Vibration     7          0.609              1.933              3.107
 Vibration     8          0.614              1.917              2.849
 Vibration     9          0.626              1.876              2.405
 Vibration    10          0.646              1.814              1.977
 Vibration    11          0.654              1.790              1.854
 Vibration    12          0.656              1.782              1.815
 Vibration    13          0.664              1.760              1.719
 Vibration    14          0.665              1.755              1.700
 Vibration    15          0.709              1.625              1.284
 Vibration    16          0.723              1.587              1.191
 Vibration    17          0.753              1.505              1.024
 Vibration    18          0.781              1.432              0.900
 Vibration    19          0.814              1.348              0.779
 Vibration    20          0.826              1.320              0.741
 Vibration    21          0.828              1.315              0.735
 Vibration    22          0.861              1.237              0.644
 Vibration    23          0.900              1.150              0.554
 Vibration    24          0.926              1.097              0.505
 Vibration    25          0.947              1.054              0.468

 Optimization completed.
    -- Stationary point found.
 Normal termination of Gaussian 16 at Fri Dec 11 23:33:42 2020.

 ----------------------------------------------------------------------
 # B3LYP/6-311++G(d,p) empiricaldispersion=gd3bj scf=xqc pop=npa geom=c
 heck
 ----------------------------------------------------------------------

 --------------------------------------
 CID_81849117_JID_8974_Energie_neutraal
 --------------------------------------
 Structure from the checkpoint file:  "JID_8974.chk"
 Charge =  0 Multiplicity = 1

 SCF Done:  E(RB3LYP) =  -767.444688715     A.U. after   14 cycles
 Normal termination of Gaussian 16 at Fri Dec 11 23:38:36 2020.

 ----------------------------------------------------------------------
 # B3LYP/6-311++G(d,p) empiricaldispersion=gd3bj scf=xqc pop=npa geom=c
 heck
 ----------------------------------------------------------------------

 ------------------------------------
 CID_81849117_JID_8974_Energie_kation
 ------------------------------------
 Structure from the checkpoint file:  "JID_8974.chk"
 Charge =  1 Multiplicity = 2

 SCF Done:  E(UB3LYP) =  -767.157734313     A.U. after   29 cycles
 Normal termination of Gaussian 16 at Fri Dec 11 23:51:59 2020.
 Gaussian 16:  ES64L-G16RevA.03 25-Dec-2016

 ----------------------------------------------------------------------
 # B3LYP/6-311++G(d,p) empiricaldispersion=gd3bj scf=xqc pop=npa geom=c
 heck
 ----------------------------------------------------------------------

 -----------------------------------
 CID_81849117_JID_8974_Energie_anion
 -----------------------------------
 Structure from the checkpoint file:  "JID_8974.chk"
 Charge = -1 Multiplicity = 2

                         Standard orientation:
 ---------------------------------------------------------------------
 Center     Atomic      Atomic             Coordinates (Angstroms)
 Number     Number       Type             X           Y           Z
 ---------------------------------------------------------------------
      1          6           0       -2.430226    2.964767    0.290673
      2          6           0       -2.363897    1.657072    1.098516
      3          6           0       -2.999323    0.496975    0.362296
      4          6           0       -4.363628    0.235726    0.530870
      5          6           0       -5.001120   -0.792650   -0.162462
      6          6           0       -4.271910   -1.586723   -1.045696
      7          6           0       -2.911151   -1.339479   -1.222585
      8          6           0       -2.266790   -0.306103   -0.534742
      9          6           0       -0.782432   -0.104124   -0.737003
     10          7           0       -0.042387   -0.605686    0.416005
     11          6           0        1.334033   -0.598403    0.465025
     12          6           0        2.113454    0.131830   -0.436231
     13          6           0        3.506264    0.107285   -0.275930
     14          7           0        4.153694   -0.569075    0.667240
     15          6           0        3.386631   -1.272875    1.522117
     16          6           0        2.008393   -1.326604    1.475839
     17          8           0        4.217509    0.833980   -1.171278
     18          6           0        5.638133    0.813902   -1.028997
     19          1           0       -1.911130    2.865875   -0.669132
     20          1           0       -1.966310    3.789353    0.842967
     21          1           0       -3.469445    3.236891    0.075777
     22          1           0       -1.323823    1.423022    1.345152
     23          1           0       -2.885736    1.801886    2.052107
     24          1           0       -4.933711    0.853157    1.221370
     25          1           0       -6.061606   -0.973330   -0.010366
     26          1           0       -4.755187   -2.392275   -1.590854
     27          1           0       -2.334171   -1.955641   -1.908229
     28          1           0       -0.461437   -0.605545   -1.663216
     29          1           0       -0.549581    0.959705   -0.858415
     30          1           0       -0.495210   -1.363367    0.909413
     31          1           0        1.685751    0.709015   -1.245497
     32          1           0        3.925013   -1.825898    2.289794
     33          1           0        1.449618   -1.909305    2.202337
     34          1           0        5.942715    1.208482   -0.054977
     35          1           0        6.030317   -0.202747   -1.128212
     36          1           0        6.016132    1.448621   -1.832642
 ---------------------------------------------------------------------

 SCF Done:  E(UB3LYP) =  -767.432586136     A.U. after   33 cycles
 SCF Done:  E(UB3LYP) =  -767.432586136     a.u. after    1 cycles

 The electronic state is 2-A.
 Alpha  occ. eigenvalues --  -19.07078 -14.24303 -14.21051 -10.17415 -10.14078
 Alpha  occ. eigenvalues --  -10.13765 -10.11997 -10.11928 -10.08696 -10.08301
 Alpha  occ. eigenvalues --  -10.08219 -10.08074 -10.08001 -10.07747 -10.07495
 Alpha  occ. eigenvalues --  -10.07458 -10.07354 -10.06683  -0.99349  -0.86339
 Alpha  occ. eigenvalues --   -0.84069  -0.76769  -0.70896  -0.69166  -0.68184
 Alpha  occ. eigenvalues --   -0.66351  -0.63052  -0.61916  -0.59667  -0.54469
 Alpha  occ. eigenvalues --   -0.53647  -0.52017  -0.50425  -0.48111  -0.46225
 Alpha  occ. eigenvalues --   -0.43108  -0.40830  -0.40657  -0.39632  -0.38873
 Alpha  occ. eigenvalues --   -0.38607  -0.36540  -0.36099  -0.34738  -0.34159
 Alpha  occ. eigenvalues --   -0.33533  -0.32954  -0.32668  -0.31443  -0.31032
 Alpha  occ. eigenvalues --   -0.29991  -0.29073  -0.27926  -0.26564  -0.26002
 Alpha  occ. eigenvalues --   -0.25738  -0.25657  -0.24073  -0.23454  -0.22625
 Alpha  occ. eigenvalues --   -0.18402  -0.16007  -0.15168  -0.14928  -0.13478
 Alpha  occ. eigenvalues --    0.04112
 Alpha virt. eigenvalues --    0.05725   0.06403   0.06530   0.07037   0.07202
 Alpha virt. eigenvalues --    0.07700   0.07881   0.08365   0.08507   0.08888
 Alpha virt. eigenvalues --    0.08929   0.09737   0.09837   0.10026   0.10816

  Beta  occ. eigenvalues --  -19.07075 -14.24282 -14.21049 -10.17413 -10.14076
  Beta  occ. eigenvalues --  -10.13754 -10.11988 -10.11924 -10.08675 -10.08240
  Beta  occ. eigenvalues --  -10.08205 -10.08067 -10.08000 -10.07722 -10.07484
  Beta  occ. eigenvalues --  -10.07396 -10.07345 -10.06645  -0.99343  -0.86316
  Beta  occ. eigenvalues --   -0.84056  -0.76691  -0.70864  -0.69083  -0.68167
  Beta  occ. eigenvalues --   -0.66298  -0.62975  -0.61895  -0.59618  -0.54425
  Beta  occ. eigenvalues --   -0.53582  -0.51980  -0.50381  -0.48031  -0.46194
  Beta  occ. eigenvalues --   -0.43078  -0.40779  -0.40628  -0.39595  -0.38861
  Beta  occ. eigenvalues --   -0.38571  -0.36505  -0.36025  -0.34708  -0.34124
  Beta  occ. eigenvalues --   -0.33489  -0.32922  -0.32626  -0.31402  -0.31011
  Beta  occ. eigenvalues --   -0.29903  -0.29049  -0.27852  -0.26551  -0.25936
  Beta  occ. eigenvalues --   -0.25681  -0.25593  -0.24038  -0.23401  -0.22609
  Beta  occ. eigenvalues --   -0.18394  -0.15895  -0.14919  -0.14873  -0.13453
  Beta virt. eigenvalues --    0.05740   0.06382   0.06937   0.07098   0.07220
  Beta virt. eigenvalues --    0.07522   0.07959   0.08072   0.08574   0.08713
  Beta virt. eigenvalues --    0.09211   0.09276   0.09872   0.10086   0.10179

 Mulliken charges and spin densities:
               1          2
     1  C    0.715561  -1.358427
     2  C   -0.156292  -0.214532
     3  C   -0.491805   1.308812
     4  C   -0.639435   0.371006
     5  C    1.133963  -1.454000
     6  C    0.642144  -1.027290
     7  C   -0.039275  -0.238400
     8  C   -0.219085   0.578584
     9  C    0.234664  -0.856779
    10  N    0.053913   0.002336
    11  C    1.976026  -2.374529
    12  C   -1.242730   1.008805
    13  C   -0.680001   0.950004
    14  N   -0.191793   0.053845
    15  C    0.357094  -0.675712
    16  C   -0.307845   0.288059
    17  O   -0.150055   0.006646
    18  C    0.012117  -0.336211
    19  H   -0.138971   0.270986
    20  H   -0.191647   0.325391
    21  H   -0.016406   0.159676
    22  H    0.139977   0.050896
    23  H   -0.344350   0.506512
    24  H   -0.356462   0.524166
    25  H   -0.360595   0.516433
    26  H   -0.329158   0.486837
    27  H   -0.428344   0.586491
    28  H    0.130305   0.030343
    29  H    0.177648  -0.041576
    30  H    0.295441  -0.058343
    31  H   -0.100175   0.323580
    32  H    0.011902   0.154189
    33  H   -0.627308   0.779530
    34  H    0.072452   0.100258
    35  H    0.058213   0.113934
    36  H    0.000312   0.138480
 Sum of Mulliken charges =  -1.00000   1.00000

 Dipole moment (field-independent basis, Debye):
    X=              5.7081    Y=             -0.1049    Z=             -1.4670  Tot=              5.8945
 Quadrupole moment (field-independent basis, Debye-Ang):
   XX=           -209.0177   YY=           -154.6305   ZZ=           -145.1904
   XY=              0.4764   XZ=             -0.2132   YZ=             -4.8171

 Summary of Natural Population Analysis:

                                       Natural Population
                Natural  -----------------------------------------------
    Atom  No    Charge         Core      Valence    Rydberg      Total
 -----------------------------------------------------------------------
      C    1   -0.27898      0.99966     2.27448    0.00484     3.27898
      C    2   -0.20504      0.99961     2.19653    0.00890     3.20504
      C    3    0.00337      0.99947     1.98623    0.01094     2.99663
      C    4   -0.09857      0.99951     2.08912    0.00995     3.09857
      C    5   -0.09474      0.99956     2.08510    0.01008     3.09474
      C    6   -0.09471      0.99956     2.08537    0.00979     3.09471
      C    7   -0.09820      0.99951     2.08811    0.01057     3.09820
      C    8   -0.02673      0.99945     2.01688    0.01040     3.02673
      C    9   -0.09491      0.99958     2.08524    0.01009     3.09491
      N   10   -0.30160      0.99966     2.79234    0.00960     3.80160
      C   11    0.11343      0.99951     1.87592    0.01114     2.88657
      C   12   -0.17434      0.99948     2.16695    0.00791     3.17434
      C   13    0.27749      0.99947     1.70683    0.01622     2.72251
      N   14   -0.28967      0.99966     2.77900    0.01101     3.78967
      C   15    0.03557      0.99959     1.95111    0.01374     2.96443
      C   16   -0.15220      0.99952     2.14383    0.00885     3.15220
      O   17   -0.27496      0.99986     3.26625    0.00886     4.27496
      C   18   -0.10133      0.99960     2.09336    0.00837     3.10133
      H   19    0.09463      0.00000     0.40434    0.00103     0.40537
      H   20    0.09936      0.00000     0.39942    0.00122     0.40064
      H   21    0.09738      0.00000     0.40160    0.00102     0.40262
      H   22    0.10687      0.00000     0.39150    0.00163     0.39313
      H   23    0.10157      0.00000     0.39682    0.00161     0.39843
      H   24    0.10045      0.00000     0.39826    0.00129     0.39955
      H   25    0.10025      0.00000     0.39857    0.00117     0.39975
      H   26    0.10009      0.00000     0.39871    0.00119     0.39991
      H   27    0.10001      0.00000     0.39881    0.00118     0.39999
      H   28    0.09255      0.00000     0.40511    0.00234     0.40745
      H   29    0.09986      0.00000     0.39789    0.00225     0.40014
      H   30    0.19198      0.00000     0.30518    0.00284     0.30802
      H   31    0.11156      0.00000     0.38681    0.00163     0.38844
      H   32    0.08935      0.00000     0.40955    0.00110     0.41065
      H   33    0.10558      0.00000     0.39310    0.00132     0.39442
      H   34    0.08907      0.00000     0.40918    0.00174     0.41093
      H   35    0.08883      0.00000     0.40941    0.00176     0.41117
      H   36    0.08674      0.00000     0.41215    0.00111     0.41326
 =======================================================================
   * Total *   -0.00000     17.99225    46.79908    0.20866    65.00000

 Normal termination of Gaussian 16 at Sat Dec 12 00:07:47 2020.
