 Gaussian 16, Revision A.03,

 -----------------------------------------------------------
 # opt freq B3LYP/6-31G(d) empiricaldispersion=gd3bj scf=xqc
 -----------------------------------------------------------

 -------------------------------
 CID_144237257_JID_1338_neutraal
 -------------------------------
 Symbolic Z-matrix:
 Charge =  0 Multiplicity = 1

 SCF Done:  E(RB3LYP) =  -567.171995659     A.U. after   15 cycles
 SCF Done:  E(RB3LYP) =  -567.179760808     A.U. after   13 cycles
 SCF Done:  E(RB3LYP) =  -567.180599282     A.U. after   13 cycles
 SCF Done:  E(RB3LYP) =  -567.180832534     A.U. after   12 cycles
 SCF Done:  E(RB3LYP) =  -567.181201367     A.U. after   11 cycles
 SCF Done:  E(RB3LYP) =  -567.181452706     A.U. after   11 cycles
 SCF Done:  E(RB3LYP) =  -567.181604938     A.U. after   12 cycles
 SCF Done:  E(RB3LYP) =  -567.181691741     A.U. after   11 cycles
 SCF Done:  E(RB3LYP) =  -567.181830533     A.U. after   12 cycles
 SCF Done:  E(RB3LYP) =  -567.181997060     A.U. after   12 cycles
 SCF Done:  E(RB3LYP) =  -567.188928757     A.U. after   10 cycles
 SCF Done:  E(RB3LYP) =  -567.188965007     A.U. after   11 cycles
 SCF Done:  E(RB3LYP) =  -567.188968394     A.U. after    9 cycles
 SCF Done:  E(RB3LYP) =  -567.188969205     A.U. after    8 cycles
 SCF Done:  E(RB3LYP) =  -567.188969392     A.U. after    8 cycles
 Optimization completed.
    -- Stationary point found.
 Normal termination of Gaussian 16 at Tue Dec  8 19:57:39 2020.

 --------------------------------------------------------------------
 #N Geom=AllCheck Guess=TCheck SCRF=Check GenChk RB3LYP/6-31G(d) Freq
 --------------------------------------------------------------------

 Structure from the checkpoint file:  "JID_1338.chk"
 -------------------------------
 CID_144237257_JID_1338_neutraal
 -------------------------------
 Charge =  0 Multiplicity = 1

 SCF Done:  E(RB3LYP) =  -567.188969392     A.U. after    1 cycles

  Exact polarizability: 122.253  -8.705  82.506  -0.815   1.073  63.892
 Approx polarizability: 163.851  -8.432 119.319  -1.611   0.264  95.310

                      1                      2                      3
                      A                      A                      A
 Frequencies --     46.3333                58.3937                76.1834
 Red. masses --      4.0034                 5.8153                 4.1604
 Frc consts  --      0.0051                 0.0117                 0.0142
 IR Inten    --      2.6719                 2.6067                 3.6835

                      4                      5                      6
                      A                      A                      A
 Frequencies --    128.0360               141.3763               165.5277
 Red. masses --      2.9803                 1.3584                 1.2213
 Frc consts  --      0.0288                 0.0160                 0.0197
 IR Inten    --      1.2752                 0.8412                 0.6403

                      7                      8                      9
                      A                      A                      A
 Frequencies --    208.5258               236.1381               258.4760
 Red. masses --      2.5990                 3.0713                 3.2592
 Frc consts  --      0.0666                 0.1009                 0.1283
 IR Inten    --      0.5325                 1.4257                 9.7444

                     10                     11                     12
                      A                      A                      A
 Frequencies --    277.6058               320.5788               403.4101
 Red. masses --      4.1805                 3.0198                 2.5581
 Frc consts  --      0.1898                 0.1828                 0.2453
 IR Inten    --      8.7862                18.8894                 6.9599

                     13                     14                     15
                      A                      A                      A
 Frequencies --    412.4784               448.7866               459.8407
 Red. masses --      2.8131                 1.4597                 1.8369
 Frc consts  --      0.2820                 0.1732                 0.2289
 IR Inten    --     33.6217                38.2174                14.3877

                     16                     17                     18
                      A                      A                      A
 Frequencies --    469.5782               479.4396               542.1835
 Red. masses --      1.3594                 1.5698                 2.7283
 Frc consts  --      0.1766                 0.2126                 0.4725
 IR Inten    --    114.8102                51.5953                13.6006

                     19                     20                     21
                      A                      A                      A
 Frequencies --    611.3953               633.6909               660.0250
 Red. masses --      2.8395                 3.6554                 3.4098
 Frc consts  --      0.6254                 0.8648                 0.8752
 IR Inten    --     47.9646                34.7972                31.3908

                     22                     23                     24
                      A                      A                      A
 Frequencies --    670.5478               776.9686               832.8986
 Red. masses --      3.7067                 5.7375                 3.3972
 Frc consts  --      0.9820                 2.0407                 1.3885
 IR Inten    --     14.6967                35.1373                63.8417

                     25                     26                     27
                      A                      A                      A
 Frequencies --    881.8982               997.5602              1015.3073
 Red. masses --      1.5638                 2.5520                 2.0065
 Frc consts  --      0.7166                 1.4963                 1.2187
 IR Inten    --    126.2640                48.4213                52.3889

                     28                     29                     30
                      A                      A                      A
 Frequencies --   1050.8834              1070.6642              1102.7010
 Red. masses --      3.1159                 1.6219                 2.2682
 Frc consts  --      2.0274                 1.0954                 1.6250
 IR Inten    --     30.2324                 4.8614                11.7022

                     31                     32                     33
                      A                      A                      A
 Frequencies --   1128.0788              1154.8737              1178.8971
 Red. masses --      1.3330                 1.5774                 4.7705
 Frc consts  --      0.9995                 1.2395                 3.9063
 IR Inten    --      4.2211                 6.6096               156.0775

                     34                     35                     36
                      A                      A                      A
 Frequencies --   1197.6365              1256.3662              1304.9761
 Red. masses --      2.8961                 1.8387                 1.6008
 Frc consts  --      2.4474                 1.7100                 1.6062
 IR Inten    --     78.5306                 4.9471               203.5094

                     37                     38                     39
                      A                      A                      A
 Frequencies --   1391.1783              1401.7202              1433.3288
 Red. masses --      1.6808                 1.9629                 1.4396
 Frc consts  --      1.9167                 2.2723                 1.7426
 IR Inten    --     66.0048                91.6303                70.4892

                     40                     41                     42
                      A                      A                      A
 Frequencies --   1449.0890              1465.6388              1489.4086
 Red. masses --      1.4651                 1.2482                 1.1399
 Frc consts  --      1.8126                 1.5798                 1.4898
 IR Inten    --     47.1104                30.2788                25.1572

                     43                     44                     45
                      A                      A                      A
 Frequencies --   1505.9018              1506.6700              1524.2103
 Red. masses --      1.2189                 1.1003                 1.0642
 Frc consts  --      1.6286                 1.4716                 1.4567
 IR Inten    --     38.8608                64.7123                 2.8790

                     46                     47                     48
                      A                      A                      A
 Frequencies --   1530.7639              1534.6979              1541.7587
 Red. masses --      1.1020                 1.3369                 1.1666
 Frc consts  --      1.5214                 1.8552                 1.6339
 IR Inten    --     15.1645                96.2665                 5.5469

                     49                     50                     51
                      A                      A                      A
 Frequencies --   1652.7145              1746.0506              1768.9704
 Red. masses --      1.2007                 7.2929                 5.3831
 Frc consts  --      1.9323                13.0999                 9.9249
 IR Inten    --    114.4436               282.5695               395.1519

                     52                     53                     54
                      A                      A                      A
 Frequencies --   2975.2851              3018.2010              3063.8992
 Red. masses --      1.0430                 1.1001                 1.0405
 Frc consts  --      5.4400                 5.9046                 5.7548
 IR Inten    --     72.5579                56.6875                 2.8023

                     55                     56                     57
                      A                      A                      A
 Frequencies --   3079.6551              3110.5325              3133.5735
 Red. masses --      1.0688                 1.0932                 1.0970
 Frc consts  --      5.9723                 6.2317                 6.3468
 IR Inten    --     29.4061                46.3470                 2.7309

                     58                     59                     60
                      A                      A                      A
 Frequencies --   3173.2649              3182.5930              3460.9415
 Red. masses --      1.1030                 1.0970                 1.0637
 Frc consts  --      6.5442                 6.5469                 7.5068
 IR Inten    --      4.6567                 3.2262                94.1244

                     61                     62                     63
                      A                      A                      A
 Frequencies --   3500.1467              3608.0271              3626.6471
 Red. masses --      1.0501                 1.0938                 1.0763
 Frc consts  --      7.5795                 8.3893                 8.3406
 IR Inten    --      6.7477                22.5502                23.1441

 - Thermochemistry -
 -------------------
 Temperature   298.150 Kelvin.  Pressure   1.00000 Atm.
 Atom     1 has atomic number  6 and mass  12.00000

 Molecular mass:   160.09603 amu.
 Principal axes and moments of inertia in atomic units:
                           1         2         3
     Eigenvalues --   774.400033162.636603551.59073
           X            0.99962  -0.02732   0.00423
           Y            0.02729   0.99959   0.00810
           Z           -0.00445  -0.00798   0.99996
 This molecule is an asymmetric top.
 Rotational symmetry number  1.
 Warning -- assumption of classical behavior for rotation
           may cause significant error
 Rotational temperatures (Kelvin)      0.11185     0.02739     0.02439
 Rotational constants (GHZ):           2.33050     0.57064     0.50815
 Zero-point vibrational energy     505620.4 (Joules/Mol)
                                  120.84618 (Kcal/Mol)
 Warning -- explicit consideration of  19 degrees of freedom as
           vibrations may cause significant error
 Vibrational temperatures:     66.66    84.02   109.61   184.22   203.41
          (Kelvin)            238.16   300.02   339.75   371.89   399.41
                              461.24   580.42   593.46   645.70   661.61
                              675.62   689.81   780.08   879.66   911.74
                              949.63   964.77  1117.88  1198.36  1268.85
                             1435.27  1460.80  1511.99  1540.45  1586.54
                             1623.05  1661.61  1696.17  1723.13  1807.63
                             1877.57  2001.60  2016.76  2062.24  2084.92
                             2108.73  2142.93  2166.66  2167.76  2193.00
                             2202.43  2208.09  2218.25  2377.89  2512.18
                             2545.15  4280.77  4342.52  4408.27  4430.94
                             4475.36  4508.51  4565.62  4579.04  4979.52
                             5035.93  5191.15  5217.94

 Zero-point correction=                           0.192581 (Hartree/Particle)
 Thermal correction to Energy=                    0.205082
 Thermal correction to Enthalpy=                  0.206026
 Thermal correction to Gibbs Free Energy=         0.153698
 Sum of electronic and zero-point Energies=           -566.996389
 Sum of electronic and thermal Energies=              -566.983888
 Sum of electronic and thermal Enthalpies=            -566.982944
 Sum of electronic and thermal Free Energies=         -567.035272

                     E (Thermal)             CV                S
                      KCal/Mol        Cal/Mol-Kelvin    Cal/Mol-Kelvin
 Total                  128.691             45.229            110.134
 Electronic               0.000              0.000              0.000
 Translational            0.889              2.981             41.121
 Rotational               0.889              2.981             30.543
 Vibrational            126.913             39.267             38.470
 Vibration     1          0.595              1.979              4.968
 Vibration     2          0.596              1.974              4.511
 Vibration     3          0.599              1.965              3.987
 Vibration     4          0.611              1.925              2.975
 Vibration     5          0.615              1.912              2.785
 Vibration     6          0.624              1.885              2.486
 Vibration     7          0.642              1.828              2.057
 Vibration     8          0.655              1.785              1.832
 Vibration     9          0.667              1.748              1.672
 Vibration    10          0.679              1.715              1.548
 Vibration    11          0.706              1.634              1.307
 Vibration    12          0.769              1.463              0.950
 Vibration    13          0.776              1.443              0.918
 Vibration    14          0.808              1.364              0.799
 Vibration    15          0.818              1.339              0.767
 Vibration    16          0.827              1.318              0.739
 Vibration    17          0.836              1.296              0.712
 Vibration    18          0.897              1.157              0.561
 Vibration    19          0.971              1.008              0.430

                           ! Non-Optimized Parameters !
 Normal termination of Gaussian 16 at Tue Dec  8 20:02:11 2020.

 ----------------------------------------------------------------------
 # B3LYP/6-311++G(d,p) empiricaldispersion=gd3bj scf=xqc pop=npa geom=c
 heck
 ----------------------------------------------------------------------

 ---------------------------------------
 CID_144237257_JID_1338_Energie_neutraal
 ---------------------------------------
 Structure from the checkpoint file:  "JID_1338.chk"
 Charge =  0 Multiplicity = 1

 SCF Done:  E(RB3LYP) =  -567.376058291     A.U. after   14 cycles
 Normal termination of Gaussian 16 at Tue Dec  8 20:04:19 2020.

 ----------------------------------------------------------------------
 # B3LYP/6-311++G(d,p) empiricaldispersion=gd3bj scf=xqc pop=npa geom=c
 heck
 ----------------------------------------------------------------------

 -------------------------------------
 CID_144237257_JID_1338_Energie_kation
 -------------------------------------
 Structure from the checkpoint file:  "JID_1338.chk"
 Charge =  1 Multiplicity = 2

 SCF Done:  E(UB3LYP) =  -567.066560956     A.U. after   25 cycles
 Normal termination of Gaussian 16 at Tue Dec  8 20:09:09 2020.
 Gaussian 16:  ES64L-G16RevA.03 25-Dec-2016

 ----------------------------------------------------------------------
 # B3LYP/6-311++G(d,p) empiricaldispersion=gd3bj scf=xqc pop=npa geom=c
 heck
 ----------------------------------------------------------------------

 ------------------------------------
 CID_144237257_JID_1338_Energie_anion
 ------------------------------------
 Structure from the checkpoint file:  "JID_1338.chk"
 Charge = -1 Multiplicity = 2

                         Standard orientation:
 ---------------------------------------------------------------------
 Center     Atomic      Atomic             Coordinates (Angstroms)
 Number     Number       Type             X           Y           Z
 ---------------------------------------------------------------------
      1          6           0       -2.545318    1.512557   -0.506803
      2          6           0       -2.411412    0.124017    0.076577
      3          8           0       -3.329432   -0.462446    0.652145
      4          7           0       -1.178839   -0.482331    0.003164
      5          6           0       -0.195538   -0.306797   -1.068946
      6          7           0        1.165923   -0.439257   -0.642411
      7          6           0        1.803167    0.498928    0.173747
      8          7           0        3.034838    0.471578    0.514867
      9          6           0        3.872260   -0.568928   -0.053131
     10          7           0        0.986260    1.577239    0.551137
     11          8           0       -1.181496   -1.821005    0.446555
     12          1           0       -3.379317    2.004352   -0.003447
     13          1           0       -2.780929    1.451968   -1.576045
     14          1           0       -1.636628    2.108874   -0.388548
     15          1           0       -0.388027   -1.064541   -1.835761
     16          1           0       -0.347583    0.686430   -1.488467
     17          1           0        1.507464   -1.386137   -0.556844
     18          1           0        3.704065   -1.546458    0.430272
     19          1           0        3.717934   -0.705929   -1.136010
     20          1           0        4.923446   -0.312813    0.109987
     21          1           0        0.149843    1.270826    1.042862
     22          1           0        1.532754    2.211793    1.125621
     23          1           0       -2.111839   -1.900028    0.770816
 ---------------------------------------------------------------------

 SCF Done:  E(UB3LYP) =  -567.365224248     A.U. after   33 cycles
 SCF Done:  E(UB3LYP) =  -567.365224247     a.u. after    1 cycles

 The electronic state is 2-A.
 Alpha  occ. eigenvalues --  -19.06355 -19.00609 -14.29471 -14.23392 -14.21648
 Alpha  occ. eigenvalues --  -14.17366 -10.18362 -10.16436 -10.14922 -10.08554
 Alpha  occ. eigenvalues --  -10.07895  -1.01110  -0.93126  -0.88587  -0.80661
 Alpha  occ. eigenvalues --   -0.77182  -0.75819  -0.64487  -0.60731  -0.58191
 Alpha  occ. eigenvalues --   -0.50686  -0.49923  -0.43416  -0.42615  -0.40859
 Alpha  occ. eigenvalues --   -0.39206  -0.37830  -0.36702  -0.34268  -0.33627
 Alpha  occ. eigenvalues --   -0.32978  -0.32102  -0.31251  -0.30104  -0.29323
 Alpha  occ. eigenvalues --   -0.28624  -0.25765  -0.24578  -0.18933  -0.17654
 Alpha  occ. eigenvalues --   -0.15418  -0.14431  -0.12956   0.04509
 Alpha virt. eigenvalues --    0.06849   0.07813   0.08518   0.09398   0.09570
 Alpha virt. eigenvalues --    0.10347   0.10667   0.11236   0.12039   0.12957
 Alpha virt. eigenvalues --    0.13168   0.13374   0.14354   0.15297   0.15768

  Beta  occ. eigenvalues --  -19.06334 -19.00559 -14.29479 -14.23371 -14.21613
  Beta  occ. eigenvalues --  -14.17353 -10.18313 -10.16435 -10.14870 -10.08534
  Beta  occ. eigenvalues --  -10.07840  -1.01068  -0.93041  -0.88557  -0.80623
  Beta  occ. eigenvalues --   -0.77136  -0.75782  -0.64391  -0.60661  -0.58132
  Beta  occ. eigenvalues --   -0.50618  -0.49876  -0.43369  -0.42548  -0.40755
  Beta  occ. eigenvalues --   -0.39134  -0.37790  -0.36619  -0.34194  -0.33544
  Beta  occ. eigenvalues --   -0.32949  -0.32045  -0.31203  -0.30078  -0.29251
  Beta  occ. eigenvalues --   -0.28567  -0.25729  -0.24434  -0.18889  -0.17610
  Beta  occ. eigenvalues --   -0.15350  -0.14384  -0.12933
  Beta virt. eigenvalues --    0.06976   0.07634   0.08763   0.09092   0.09802
  Beta virt. eigenvalues --    0.10129   0.10755   0.11308   0.11711   0.12494
  Beta virt. eigenvalues --    0.13293   0.13569   0.13818   0.14551   0.15501

 Mulliken charges and spin densities:
               1          2
     1  C    2.034536  -2.549849
     2  C   -1.036812   1.213983
     3  O   -0.359075   0.014971
     4  N   -0.297459   0.137195
     5  C    1.248607  -1.682208
     6  N   -0.302100   0.166014
     7  C    0.118109  -0.152014
     8  N   -0.257396   0.067658
     9  C    0.404401  -0.887393
    10  N   -0.388992   0.066205
    11  O   -0.047534  -0.010003
    12  H   -0.261507   0.438226
    13  H   -0.426499   0.616624
    14  H   -0.419352   0.601167
    15  H   -1.010775   1.242787
    16  H   -0.002815   0.227581
    17  H    0.051218   0.248768
    18  H   -0.122739   0.263208
    19  H   -0.158403   0.304927
    20  H    0.066084   0.067518
    21  H    0.054767   0.196865
    22  H    0.104288   0.174190
    23  H    0.009448   0.233582
 Sum of Mulliken charges =  -1.00000   1.00000

 Dipole moment (field-independent basis, Debye):
    X=              1.7129    Y=             -0.3411    Z=              2.7788  Tot=              3.2821
 Quadrupole moment (field-independent basis, Debye-Ang):
   XX=           -126.2372   YY=           -103.2146   ZZ=           -102.3940
   XY=              2.3347   XZ=             -2.3879   YZ=             -1.7465

 Summary of Natural Population Analysis:

                                       Natural Population
                Natural  -----------------------------------------------
    Atom  No    Charge         Core      Valence    Rydberg      Total
 -----------------------------------------------------------------------
      C    1   -0.33364      0.99963     2.32817    0.00585     3.33364
      C    2    0.33818      0.99966     1.64144    0.02072     2.66182
      O    3   -0.32841      0.99987     3.32156    0.00697     4.32841
      N    4   -0.11267      0.99960     2.59869    0.01439     3.61267
      C    5    0.00007      0.99959     1.98393    0.01641     2.99993
      N    6   -0.33119      0.99968     2.82075    0.01076     3.83119
      C    7    0.31061      0.99960     1.67388    0.01591     2.68939
      N    8   -0.30142      0.99964     2.78946    0.01232     3.80142
      C    9   -0.19287      0.99965     2.18580    0.00743     3.19287
      N   10   -0.41330      0.99972     2.90408    0.00950     3.91330
      O   11   -0.28476      0.99990     3.27762    0.00723     4.28476
      H   12    0.11582      0.00000     0.38285    0.00133     0.38418
      H   13    0.11649      0.00000     0.38189    0.00162     0.38351
      H   14    0.11527      0.00000     0.38209    0.00264     0.38473
      H   15    0.10591      0.00000     0.38878    0.00531     0.39409
      H   16    0.11197      0.00000     0.38477    0.00326     0.38803
      H   17    0.19833      0.00000     0.29809    0.00357     0.30167
      H   18    0.08524      0.00000     0.41297    0.00180     0.41476
      H   19    0.08785      0.00000     0.41012    0.00203     0.41215
      H   20    0.09111      0.00000     0.40738    0.00151     0.40889
      H   21    0.18727      0.00000     0.30981    0.00292     0.31273
      H   22    0.19047      0.00000     0.30673    0.00280     0.30953
      H   23    0.24367      0.00000     0.25255    0.00378     0.25633
 =======================================================================
   * Total *   -0.00000     10.99653    31.84342    0.16005    43.00000

 Normal termination of Gaussian 16 at Tue Dec  8 20:15:42 2020.
