 Gaussian 16, Revision A.03,

 -----------------------------------------------------------
 # opt freq B3LYP/6-31G(d) empiricaldispersion=gd3bj scf=xqc
 -----------------------------------------------------------

 ------------------------------
 CID_152264969_JID_318_neutraal
 ------------------------------
 Symbolic Z-matrix:
 Charge =  0 Multiplicity = 1

 SCF Done:  E(RB3LYP) =  -501.626200456     A.U. after   16 cycles
 SCF Done:  E(RB3LYP) =  -501.637516684     A.U. after   16 cycles
 SCF Done:  E(RB3LYP) =  -501.641404432     A.U. after   14 cycles
 SCF Done:  E(RB3LYP) =  -501.643456089     A.U. after   14 cycles
 SCF Done:  E(RB3LYP) =  -501.645271594     A.U. after   14 cycles
 SCF Done:  E(RB3LYP) =  -501.646420611     A.U. after   14 cycles
 SCF Done:  E(RB3LYP) =  -501.646596393     A.U. after   12 cycles
 SCF Done:  E(RB3LYP) =  -501.646650173     A.U. after   12 cycles
 SCF Done:  E(RB3LYP) =  -501.646660730     A.U. after    9 cycles
 SCF Done:  E(RB3LYP) =  -501.646664872     A.U. after    9 cycles
 SCF Done:  E(RB3LYP) =  -501.646666226     A.U. after    9 cycles
 SCF Done:  E(RB3LYP) =  -501.646666638     A.U. after    8 cycles
 SCF Done:  E(RB3LYP) =  -501.646666808     A.U. after    8 cycles
 SCF Done:  E(RB3LYP) =  -501.646666855     A.U. after    7 cycles
 Optimization completed.
    -- Stationary point found.
 Normal termination of Gaussian 16 at Tue Dec  8 10:23:18 2020.

 --------------------------------------------------------------------
 #N Geom=AllCheck Guess=TCheck SCRF=Check GenChk RB3LYP/6-31G(d) Freq
 --------------------------------------------------------------------

 Structure from the checkpoint file:  "JID_318.chk"
 ------------------------------
 CID_152264969_JID_318_neutraal
 ------------------------------
 Charge =  0 Multiplicity = 1

 SCF Done:  E(RB3LYP) =  -501.646666855     A.U. after    1 cycles

  Exact polarizability: 111.543  -4.044  70.467  -0.228   5.213  54.702
 Approx polarizability: 178.975 -18.813 119.110  -2.446  21.092  84.091

                      1                      2                      3
                      A                      A                      A
 Frequencies --     65.8091               102.9809               132.6781
 Red. masses --      5.6467                 3.8694                 8.0563
 Frc consts  --      0.0144                 0.0242                 0.0836
 IR Inten    --      0.3160                 2.6027                 0.2256

                      4                      5                      6
                      A                      A                      A
 Frequencies --    188.1482               208.5467               243.5763
 Red. masses --      1.1578                 2.9031                 1.5028
 Frc consts  --      0.0241                 0.0744                 0.0525
 IR Inten    --      1.9138                11.3565                 3.4888

                      7                      8                      9
                      A                      A                      A
 Frequencies --    256.0643               283.8504               380.0753
 Red. masses --      1.8476                 3.7085                 3.4357
 Frc consts  --      0.0714                 0.1760                 0.2924
 IR Inten    --      2.2865                 1.7375                16.0958

                     10                     11                     12
                      A                      A                      A
 Frequencies --    464.2612               505.1397               536.4459
 Red. masses --      4.8904                 3.3405                 8.1251
 Frc consts  --      0.6210                 0.5022                 1.3776
 IR Inten    --      1.8032                19.4800                 3.6058

                     13                     14                     15
                      A                      A                      A
 Frequencies --    549.9570               683.1345               706.4233
 Red. masses --     13.6277                 7.6281                 6.5689
 Frc consts  --      2.4285                 2.0974                 1.9314
 IR Inten    --      7.4614                 5.4770                14.0349

                     16                     17                     18
                      A                      A                      A
 Frequencies --    769.8704               803.8020               868.4839
 Red. masses --      5.2007                 9.4484                 4.5995
 Frc consts  --      1.8161                 3.5967                 2.0440
 IR Inten    --      9.7278                 8.9248                 8.9956

                     19                     20                     21
                      A                      A                      A
 Frequencies --    896.0227               963.2612              1086.9042
 Red. masses --      4.3961                 4.5619                 2.6283
 Frc consts  --      2.0795                 2.4939                 1.8294
 IR Inten    --     35.9701                52.5369                14.8850

                     22                     23                     24
                      A                      A                      A
 Frequencies --   1147.0622              1154.7202              1170.9624
 Red. masses --      2.0467                 2.0999                 1.6574
 Frc consts  --      1.5866                 1.6497                 1.3389
 IR Inten    --     23.0793                26.7608                17.1569

                     25                     26                     27
                      A                      A                      A
 Frequencies --   1183.4513              1189.7880              1216.8765
 Red. masses --      2.0055                 2.4891                 2.0144
 Frc consts  --      1.6549                 2.0761                 1.7575
 IR Inten    --      4.7500                 1.0748                33.2518

                     28                     29                     30
                      A                      A                      A
 Frequencies --   1293.0379              1404.2099              1431.3226
 Red. masses --      4.7644                 3.3994                 1.3026
 Frc consts  --      4.6933                 3.9493                 1.5723
 IR Inten    --      3.0276               329.3797                77.4294

                     31                     32                     33
                      A                      A                      A
 Frequencies --   1461.9430              1474.1985              1511.7577
 Red. masses --      1.1775                 1.2845                 1.0507
 Frc consts  --      1.4827                 1.6447                 1.4147
 IR Inten    --      0.9760                46.1738                13.1503

                     34                     35                     36
                      A                      A                      A
 Frequencies --   1514.1829              1518.3376              1535.2456
 Red. masses --      1.0511                 1.0441                 1.0679
 Frc consts  --      1.4199                 1.4182                 1.4830
 IR Inten    --     11.5693                 6.3666                19.7530

                     37                     38                     39
                      A                      A                      A
 Frequencies --   1664.9025              2300.5211              3032.4358
 Red. masses --     10.1079                13.9733                 1.0473
 Frc consts  --     16.5077                43.5715                 5.6744
 IR Inten    --     98.7623               573.5488                52.3753

                     40                     41                     42
                      A                      A                      A
 Frequencies --   3038.7796              3128.8246              3130.7103
 Red. masses --      1.0434                 1.0914                 1.0875
 Frc consts  --      5.6765                 6.2951                 6.2800
 IR Inten    --     30.8226                24.0407                17.3339

                     43                     44                     45
                      A                      A                      A
 Frequencies --   3166.2936              3169.9574              3411.7913
 Red. masses --      1.1055                 1.1054                 1.0765
 Frc consts  --      6.5298                 6.5446                 7.3829
 IR Inten    --     13.4839                13.3754                 3.1386

 - Thermochemistry -
 -------------------
 Temperature   298.150 Kelvin.  Pressure   1.00000 Atm.
 Atom     1 has atomic number  6 and mass  12.00000

 Molecular mass:   141.07629 amu.
 Principal axes and moments of inertia in atomic units:
                           1         2         3
     Eigenvalues --   655.679961941.223262258.46200
           X            0.99991   0.00228  -0.01331
           Y           -0.00299   0.99858  -0.05317
           Z            0.01317   0.05320   0.99850
 This molecule is an asymmetric top.
 Rotational symmetry number  1.
 Warning -- assumption of classical behavior for rotation
           may cause significant error
 Rotational temperatures (Kelvin)      0.13210     0.04462     0.03835
 Rotational constants (GHZ):           2.75247     0.92969     0.79910
 Zero-point vibrational energy     340617.2 (Joules/Mol)
                                   81.40946 (Kcal/Mol)
 Warning -- explicit consideration of  13 degrees of freedom as
           vibrations may cause significant error
 Vibrational temperatures:     94.68   148.17   190.89   270.70   300.05
          (Kelvin)            350.45   368.42   408.40   546.84   667.97
                              726.78   771.83   791.27   982.88  1016.39
                             1107.67  1156.49  1249.55  1289.18  1385.92
                             1563.81  1650.37  1661.38  1684.75  1702.72
                             1711.84  1750.81  1860.39  2020.34  2059.35
                             2103.41  2121.04  2175.08  2178.57  2184.55
                             2208.88  2395.42  3309.94  4363.00  4372.13
                             4501.68  4504.39  4555.59  4560.86  4908.81

 Zero-point correction=                           0.129734 (Hartree/Particle)
 Thermal correction to Energy=                    0.139250
 Thermal correction to Enthalpy=                  0.140194
 Thermal correction to Gibbs Free Energy=         0.094796
 Sum of electronic and zero-point Energies=           -501.516933
 Sum of electronic and thermal Energies=              -501.507417
 Sum of electronic and thermal Enthalpies=            -501.506473
 Sum of electronic and thermal Free Energies=         -501.551871

                     E (Thermal)             CV                S
                      KCal/Mol        Cal/Mol-Kelvin    Cal/Mol-Kelvin
 Total                   87.381             34.057             95.547
 Electronic               0.000              0.000              0.000
 Translational            0.889              2.981             40.744
 Rotational               0.889              2.981             29.443
 Vibrational             85.603             28.096             25.361
 Vibration     1          0.597              1.971              4.275
 Vibration     2          0.605              1.947              3.397
 Vibration     3          0.613              1.921              2.907
 Vibration     4          0.633              1.856              2.246
 Vibration     5          0.642              1.828              2.056
 Vibration     6          0.659              1.773              1.777
 Vibration     7          0.666              1.753              1.688
 Vibration     8          0.682              1.704              1.510
 Vibration     9          0.750              1.513              1.039
 Vibration    10          0.822              1.329              0.754
 Vibration    11          0.860              1.239              0.645
 Vibration    12          0.891              1.169              0.573
 Vibration    13          0.905              1.140              0.544

 Optimization completed.
    -- Stationary point found.
 Normal termination of Gaussian 16 at Tue Dec  8 10:26:19 2020.

 ----------------------------------------------------------------------
 # B3LYP/6-311++G(d,p) empiricaldispersion=gd3bj scf=xqc pop=npa geom=c
 heck
 ----------------------------------------------------------------------

 --------------------------------------
 CID_152264969_JID_318_Energie_neutraal
 --------------------------------------
 Structure from the checkpoint file:  "JID_318.chk"
 Charge =  0 Multiplicity = 1

 SCF Done:  E(RB3LYP) =  -501.788253842     A.U. after   15 cycles
 Normal termination of Gaussian 16 at Tue Dec  8 10:27:14 2020.

 ----------------------------------------------------------------------
 # B3LYP/6-311++G(d,p) empiricaldispersion=gd3bj scf=xqc pop=npa geom=c
 heck
 ----------------------------------------------------------------------

 ------------------------------------
 CID_152264969_JID_318_Energie_kation
 ------------------------------------
 Structure from the checkpoint file:  "JID_318.chk"
 Charge =  1 Multiplicity = 2

 SCF Done:  E(UB3LYP) =  -501.487098955     A.U. after   21 cycles
 Normal termination of Gaussian 16 at Tue Dec  8 10:29:28 2020.
 Gaussian 16:  ES64L-G16RevA.03 25-Dec-2016

 ----------------------------------------------------------------------
 # B3LYP/6-311++G(d,p) empiricaldispersion=gd3bj scf=xqc pop=npa geom=c
 heck
 ----------------------------------------------------------------------

 -----------------------------------
 CID_152264969_JID_318_Energie_anion
 -----------------------------------
 Structure from the checkpoint file:  "JID_318.chk"
 Charge = -1 Multiplicity = 2

                         Standard orientation:
 ---------------------------------------------------------------------
 Center     Atomic      Atomic             Coordinates (Angstroms)
 Number     Number       Type             X           Y           Z
 ---------------------------------------------------------------------
      1          6           0       -0.868074    2.067073   -0.461579
      2          7           0       -0.809243    0.769152    0.222140
      3          6           0        0.365908    0.024919    0.028418
      4          7           0        0.244001   -1.110188   -0.560169
      5          7           0       -1.153389   -1.245282   -0.857973
      6          7           0       -1.851141   -0.152500   -0.179577
      7          6           0       -2.440557   -0.716303    1.042010
      8          7           0        1.551918    0.594513    0.496411
      9          7           0        2.593926   -0.038282    0.234415
     10          7           0        3.616612   -0.503885    0.080625
     11          1           0       -1.794277    2.567242   -0.174275
     12          1           0       -0.834630    1.968411   -1.555462
     13          1           0       -0.019297    2.667263   -0.125030
     14          1           0       -1.240312   -1.096920   -1.867250
     15          1           0       -1.695043   -1.212194    1.678469
     16          1           0       -2.909618    0.099194    1.597812
     17          1           0       -3.199262   -1.441820    0.741520
 ---------------------------------------------------------------------

 SCF Done:  E(UB3LYP) =  -501.783585708     A.U. after   33 cycles
 SCF Done:  E(UB3LYP) =  -501.784566490     a.u. after    5 cycles

 The electronic state is 2-A.
 Alpha  occ. eigenvalues --  -14.31394 -14.25250 -14.24151 -14.23649 -14.23053
 Alpha  occ. eigenvalues --  -14.22814 -14.19345 -10.14067 -10.07859 -10.07617
 Alpha  occ. eigenvalues --   -0.99760  -0.95252  -0.84940  -0.80364  -0.75236
 Alpha  occ. eigenvalues --   -0.64600  -0.57949  -0.55907  -0.50485  -0.43294
 Alpha  occ. eigenvalues --   -0.40264  -0.37307  -0.36399  -0.36022  -0.34392
 Alpha  occ. eigenvalues --   -0.32901  -0.31117  -0.29859  -0.29361  -0.27267
 Alpha  occ. eigenvalues --   -0.25490  -0.19665  -0.19139  -0.17638  -0.15914
 Alpha  occ. eigenvalues --   -0.12571  -0.08964   0.05250
 Alpha virt. eigenvalues --    0.07793   0.08681   0.09573   0.10490   0.11505
 Alpha virt. eigenvalues --    0.11968   0.12896   0.13302   0.14882   0.16439
 Alpha virt. eigenvalues --    0.17433   0.17633   0.18294   0.18767   0.19674

  Beta  occ. eigenvalues --  -14.30897 -14.25243 -14.24146 -14.23659 -14.22879
  Beta  occ. eigenvalues --  -14.22534 -14.19291 -10.13957 -10.07848 -10.07549
  Beta  occ. eigenvalues --   -0.98937  -0.95178  -0.84599  -0.80318  -0.75117
  Beta  occ. eigenvalues --   -0.64519  -0.57847  -0.55612  -0.50340  -0.43144
  Beta  occ. eigenvalues --   -0.40128  -0.36604  -0.36119  -0.34994  -0.34127
  Beta  occ. eigenvalues --   -0.32487  -0.29986  -0.29715  -0.29281  -0.27190
  Beta  occ. eigenvalues --   -0.25254  -0.19331  -0.18935  -0.16958  -0.15833
  Beta  occ. eigenvalues --   -0.12443  -0.08837
  Beta virt. eigenvalues --    0.07988   0.09102   0.10127   0.10952   0.11662
  Beta virt. eigenvalues --    0.12104   0.12527   0.13590   0.13637   0.14944
  Beta virt. eigenvalues --    0.16470   0.17505   0.17689   0.18364   0.18868

 Mulliken charges and spin densities:
               1          2
     1  C    1.601576  -1.941051
     2  N   -0.330464   0.228539
     3  C   -0.342043   0.165358
     4  N   -0.422740   0.028386
     5  N   -0.044001  -0.010585
     6  N   -0.107584   0.171590
     7  C    0.002396  -0.353748
     8  N   -1.204450   0.727978
     9  N    1.108566  -0.472176
    10  N   -0.030703   0.063983
    11  H   -0.516379   0.667731
    12  H   -0.531564   0.689483
    13  H   -0.380947   0.549217
    14  H    0.111075   0.134604
    15  H    0.095596   0.061208
    16  H   -0.033213   0.178155
    17  H    0.024881   0.111329
 Sum of Mulliken charges =  -1.00000   1.00000

 Dipole moment (field-independent basis, Debye):
    X=             -2.1741    Y=             -2.6792    Z=              1.2361  Tot=              3.6651
 Quadrupole moment (field-independent basis, Debye-Ang):
   XX=           -102.1465   YY=            -91.9817   ZZ=            -74.7194
   XY=              8.2076   XZ=             -2.1763   YZ=              0.9288

 Summary of Natural Population Analysis:

                                       Natural Population
                Natural  -----------------------------------------------
    Atom  No    Charge         Core      Valence    Rydberg      Total
 -----------------------------------------------------------------------
      C    1   -0.17461      0.99963     2.16574    0.00924     3.17461
      N    2   -0.18907      0.99966     2.67382    0.01560     3.68907
      C    3    0.28134      0.99954     1.69880    0.02032     2.71866
      N    4   -0.19545      0.99963     2.68352    0.01230     3.69545
      N    5   -0.16860      0.99977     2.65257    0.01627     3.66860
      N    6   -0.10760      0.99976     2.59177    0.01607     3.60760
      C    7   -0.17476      0.99964     2.16684    0.00829     3.17476
      N    8   -0.21993      0.99964     2.70599    0.01430     3.71993
      N    9    0.17228      0.99970     2.31198    0.01604     3.32772
      N   10    0.03574      0.99981     2.45194    0.01251     3.46426
      H   11    0.09841      0.00000     0.39856    0.00303     0.40159
      H   12    0.08761      0.00000     0.40924    0.00315     0.41239
      H   13    0.10611      0.00000     0.39174    0.00215     0.39389
      H   14    0.17123      0.00000     0.32646    0.00231     0.32877
      H   15    0.08827      0.00000     0.41017    0.00156     0.41173
      H   16    0.09506      0.00000     0.40329    0.00165     0.40494
      H   17    0.09398      0.00000     0.40459    0.00143     0.40602
 =======================================================================
   * Total *    0.00000      9.99678    26.84700    0.15622    37.00000

 Normal termination of Gaussian 16 at Tue Dec  8 10:46:13 2020.
