 Gaussian 16, Revision A.03,

 -----------------------------------------------------------
 # opt freq B3LYP/6-31G(d) empiricaldispersion=gd3bj scf=xqc
 -----------------------------------------------------------

 -------------------------------
 CID_152723346_JID_2048_neutraal
 -------------------------------
 Symbolic Z-matrix:
 Charge =  0 Multiplicity = 1

 SCF Done:  E(RB3LYP) =  -582.967222675     A.U. after   15 cycles
 SCF Done:  E(RB3LYP) =  -582.970030969     A.U. after   14 cycles
 SCF Done:  E(RB3LYP) =  -582.970922175     A.U. after   13 cycles
 SCF Done:  E(RB3LYP) =  -582.971475803     A.U. after   13 cycles
 SCF Done:  E(RB3LYP) =  -582.971598301     A.U. after   12 cycles
 SCF Done:  E(RB3LYP) =  -582.971641517     A.U. after   12 cycles
 SCF Done:  E(RB3LYP) =  -582.971670949     A.U. after   11 cycles
 SCF Done:  E(RB3LYP) =  -582.971678854     A.U. after   10 cycles
 SCF Done:  E(RB3LYP) =  -582.971682690     A.U. after   10 cycles
 SCF Done:  E(RB3LYP) =  -582.971684086     A.U. after   10 cycles
 SCF Done:  E(RB3LYP) =  -582.971684564     A.U. after    9 cycles
 SCF Done:  E(RB3LYP) =  -582.971684642     A.U. after    8 cycles
 Optimization completed.
    -- Stationary point found.
 Normal termination of Gaussian 16 at Wed Dec  9 16:45:38 2020.

 --------------------------------------------------------------------
 #N Geom=AllCheck Guess=TCheck SCRF=Check GenChk RB3LYP/6-31G(d) Freq
 --------------------------------------------------------------------

 Structure from the checkpoint file:  "JID_2048.chk"
 -------------------------------
 CID_152723346_JID_2048_neutraal
 -------------------------------
 Charge =  0 Multiplicity = 1

 SCF Done:  E(RB3LYP) =  -582.971684642     A.U. after    1 cycles

  Exact polarizability: 129.365  17.744 100.942  -7.434   5.807  64.276
 Approx polarizability: 177.068  41.768 194.538 -15.267  18.555  96.729

                      1                      2                      3
                      A                      A                      A
 Frequencies --     21.8431                47.9103                83.4883
 Red. masses --      4.1067                 3.7751                 3.6835
 Frc consts  --      0.0012                 0.0051                 0.0151
 IR Inten    --      0.4010                 0.1232                 0.5197

                      4                      5                      6
                      A                      A                      A
 Frequencies --     91.9961               104.5586               172.1600
 Red. masses --      5.5230                 6.4406                 2.4238
 Frc consts  --      0.0275                 0.0415                 0.0423
 IR Inten    --      2.9475                 0.3904                 4.6422

                      7                      8                      9
                      A                      A                      A
 Frequencies --    229.9668               270.8070               338.3896
 Red. masses --      2.5712                 1.9374                 3.4429
 Frc consts  --      0.0801                 0.0837                 0.2323
 IR Inten    --      1.0569                 2.2340                 1.5016

                     10                     11                     12
                      A                      A                      A
 Frequencies --    345.7321               445.8410               455.5190
 Red. masses --      3.4250                 4.0406                 3.2300
 Frc consts  --      0.2412                 0.4732                 0.3949
 IR Inten    --      0.9888                 0.5391                20.0239

                     13                     14                     15
                      A                      A                      A
 Frequencies --    489.1499               539.2485               542.4546
 Red. masses --      3.4481                10.3651                 8.8533
 Frc consts  --      0.4861                 1.7758                 1.5349
 IR Inten    --      3.9101                 7.9399                 8.2674

                     16                     17                     18
                      A                      A                      A
 Frequencies --    628.8993               697.5311               742.8836
 Red. masses --      5.8719                 4.7620                 5.8538
 Frc consts  --      1.3683                 1.3651                 1.9034
 IR Inten    --      3.1047                 1.7269                44.7018

                     19                     20                     21
                      A                      A                      A
 Frequencies --    757.0431               807.7188               814.8193
 Red. masses --      1.2875                 1.3454                 3.6562
 Frc consts  --      0.4348                 0.5172                 1.4302
 IR Inten    --     52.8505                11.0338                27.1823

                     22                     23                     24
                      A                      A                      A
 Frequencies --    838.0906               854.7217              1007.7213
 Red. masses --      1.3251                 2.6228                 3.5349
 Frc consts  --      0.5484                 1.1289                 2.1150
 IR Inten    --      1.4945                 8.1139                24.2884

                     25                     26                     27
                      A                      A                      A
 Frequencies --   1012.6895              1030.1446              1059.6600
 Red. masses --      4.3708                 2.5387                 2.4070
 Frc consts  --      2.6410                 1.5873                 1.5924
 IR Inten    --      2.2628                 4.9687                29.2618

                     28                     29                     30
                      A                      A                      A
 Frequencies --   1086.2880              1105.8854              1156.2820
 Red. masses --      1.4135                 2.1944                 3.3796
 Frc consts  --      0.9827                 1.5812                 2.6622
 IR Inten    --     10.2109                42.3592               178.7574

                     31                     32                     33
                      A                      A                      A
 Frequencies --   1204.9330              1211.4537              1282.9932
 Red. masses --      2.0624                 1.9468                 2.0040
 Frc consts  --      1.7642                 1.6834                 1.9436
 IR Inten    --     18.9200                41.0687                29.5737

                     34                     35                     36
                      A                      A                      A
 Frequencies --   1304.7191              1344.1441              1364.6996
 Red. masses --      5.1196                 1.1641                 2.0628
 Frc consts  --      5.1348                 1.2391                 2.2635
 IR Inten    --     57.7847                 3.6528                98.2985

                     37                     38                     39
                      A                      A                      A
 Frequencies --   1411.9879              1422.5926              1440.7328
 Red. masses --      1.2868                 5.0803                 1.2711
 Frc consts  --      1.5116                 6.0576                 1.5545
 IR Inten    --     11.0862                 5.1210                25.9970

                     40                     41                     42
                      A                      A                      A
 Frequencies --   1452.1858              1463.5170              1509.7011
 Red. masses --      1.3478                 3.1614                 1.1470
 Frc consts  --      1.6747                 3.9896                 1.5402
 IR Inten    --     21.9239                81.2217                14.8755

                     43                     44                     45
                      A                      A                      A
 Frequencies --   1520.1452              1525.0296              1529.1804
 Red. masses --      2.3301                 1.1757                 1.1802
 Frc consts  --      3.1724                 1.6111                 1.6260
 IR Inten    --    147.9326                15.6350                22.0350

                     46                     47                     48
                      A                      A                      A
 Frequencies --   1542.7075              1574.5384              2286.7198
 Red. masses --      1.0836                 5.4777                13.9908
 Frc consts  --      1.5195                 8.0011                43.1041
 IR Inten    --      3.0366               112.4361               638.7572

                     49                     50                     51
                      A                      A                      A
 Frequencies --   3045.0072              3049.1229              3058.8052
 Red. masses --      1.0639                 1.0627                 1.0449
 Frc consts  --      5.8119                 5.8214                 5.7599
 IR Inten    --     54.8630                 3.1795                33.9469

                     52                     53                     54
                      A                      A                      A
 Frequencies --   3109.5063              3127.3284              3136.0669
 Red. masses --      1.0988                 1.0989                 1.1039
 Frc consts  --      6.2596                 6.3323                 6.3965
 IR Inten    --      2.6506                45.5991                39.6264

                     55                     56                     57
                      A                      A                      A
 Frequencies --   3157.5995              3272.5145              3299.4179
 Red. masses --      1.0982                 1.0935                 1.1030
 Frc consts  --      6.4510                 6.9000                 7.0745
 IR Inten    --     12.5019                 1.2961                 0.1107

 - Thermochemistry -
 -------------------
 Temperature   298.150 Kelvin.  Pressure   1.00000 Atm.
 Atom     1 has atomic number  6 and mass  12.00000

 Molecular mass:   167.08071 amu.
 Principal axes and moments of inertia in atomic units:
                           1         2         3
     Eigenvalues --   907.375173636.902044063.30936
           X            0.99995  -0.00350   0.00943
           Y            0.00347   0.99999   0.00330
           Z           -0.00944  -0.00327   0.99995
 This molecule is an asymmetric top.
 Rotational symmetry number  1.
 Warning -- assumption of classical behavior for rotation
           may cause significant error
 Rotational temperatures (Kelvin)      0.09546     0.02382     0.02132
 Rotational constants (GHZ):           1.98897     0.49623     0.44416
 Zero-point vibrational energy     433208.4 (Joules/Mol)
                                  103.53930 (Kcal/Mol)
 Warning -- explicit consideration of  15 degrees of freedom as
           vibrations may cause significant error
 Vibrational temperatures:     31.43    68.93   120.12   132.36   150.44
          (Kelvin)            247.70   330.87   389.63   486.87   497.43
                              641.47   655.39   703.78   775.86   780.47
                              904.85  1003.59  1068.84  1089.22  1162.13
                             1172.34  1205.83  1229.75  1449.89  1457.03
                             1482.15  1524.61  1562.93  1591.12  1663.63
                             1733.63  1743.01  1845.94  1877.20  1933.92
                             1963.50  2031.54  2046.79  2072.89  2089.37
                             2105.67  2172.12  2187.15  2194.18  2200.15
                             2219.61  2265.41  3290.08  4381.09  4387.01
                             4400.94  4473.89  4499.53  4512.10  4543.08
                             4708.42  4747.13

 Zero-point correction=                           0.165000 (Hartree/Particle)
 Thermal correction to Energy=                    0.176343
 Thermal correction to Enthalpy=                  0.177287
 Thermal correction to Gibbs Free Energy=         0.125569
 Sum of electronic and zero-point Energies=           -582.806684
 Sum of electronic and thermal Energies=              -582.795341
 Sum of electronic and thermal Enthalpies=            -582.794397
 Sum of electronic and thermal Free Energies=         -582.846115

                     E (Thermal)             CV                S
                      KCal/Mol        Cal/Mol-Kelvin    Cal/Mol-Kelvin
 Total                  110.657             40.394            108.850
 Electronic               0.000              0.000              0.000
 Translational            0.889              2.981             41.248
 Rotational               0.889              2.981             30.973
 Vibrational            108.880             34.432             36.629
 Vibration     1          0.593              1.985              6.459
 Vibration     2          0.595              1.978              4.902
 Vibration     3          0.600              1.961              3.807
 Vibration     4          0.602              1.955              3.617
 Vibration     5          0.605              1.946              3.368
 Vibration     6          0.626              1.877              2.412
 Vibration     7          0.652              1.795              1.879
 Vibration     8          0.674              1.727              1.591
 Vibration     9          0.719              1.599              1.220
 Vibration    10          0.724              1.584              1.186
 Vibration    11          0.805              1.370              0.808
 Vibration    12          0.814              1.349              0.779
 Vibration    13          0.845              1.274              0.686
 Vibration    14          0.894              1.163              0.567
 Vibration    15          0.898              1.156              0.560

                           ! Non-Optimized Parameters !
 Normal termination of Gaussian 16 at Wed Dec  9 16:49:37 2020.

 ----------------------------------------------------------------------
 # B3LYP/6-311++G(d,p) empiricaldispersion=gd3bj scf=xqc pop=npa geom=c
 heck
 ----------------------------------------------------------------------

 ---------------------------------------
 CID_152723346_JID_2048_Energie_neutraal
 ---------------------------------------
 Structure from the checkpoint file:  "JID_2048.chk"
 Charge =  0 Multiplicity = 1

 SCF Done:  E(RB3LYP) =  -583.133929971     A.U. after   15 cycles
 Normal termination of Gaussian 16 at Wed Dec  9 16:51:03 2020.

 ----------------------------------------------------------------------
 # B3LYP/6-311++G(d,p) empiricaldispersion=gd3bj scf=xqc pop=npa geom=c
 heck
 ----------------------------------------------------------------------

 -------------------------------------
 CID_152723346_JID_2048_Energie_kation
 -------------------------------------
 Structure from the checkpoint file:  "JID_2048.chk"
 Charge =  1 Multiplicity = 2

 SCF Done:  E(UB3LYP) =  -582.822926754     A.U. after   25 cycles
 Normal termination of Gaussian 16 at Wed Dec  9 16:54:09 2020.
 Gaussian 16:  ES64L-G16RevA.03 25-Dec-2016

 ----------------------------------------------------------------------
 # B3LYP/6-311++G(d,p) empiricaldispersion=gd3bj scf=xqc pop=npa geom=c
 heck
 ----------------------------------------------------------------------

 ------------------------------------
 CID_152723346_JID_2048_Energie_anion
 ------------------------------------
 Structure from the checkpoint file:  "JID_2048.chk"
 Charge = -1 Multiplicity = 2

                         Standard orientation:
 ---------------------------------------------------------------------
 Center     Atomic      Atomic             Coordinates (Angstroms)
 Number     Number       Type             X           Y           Z
 ---------------------------------------------------------------------
      1          6           0        3.824503    0.064039    0.727540
      2          6           0        2.556768   -0.762254    0.922035
      3          8           0        2.056403   -1.336759   -0.287628
      4          6           0        1.532818   -0.434572   -1.219262
      5          7           0        0.416993    0.346723   -0.718507
      6          6           0        0.427893    1.646751   -0.306481
      7          6           0       -0.818641    1.920351    0.213976
      8          6           0       -1.517665    0.696104    0.077645
      9          7           0       -0.774596   -0.258394   -0.479038
     10          7           0       -2.849730    0.503243    0.475400
     11          7           0       -3.329313   -0.626694    0.287807
     12          7           0       -3.898983   -1.605624    0.178073
     13          1           0        4.590786   -0.523761    0.211963
     14          1           0        4.220341    0.371899    1.701630
     15          1           0        3.642837    0.975451    0.147070
     16          1           0        2.761319   -1.623449    1.563390
     17          1           0        1.771793   -0.166344    1.406684
     18          1           0        2.277673    0.290213   -1.573128
     19          1           0        1.179374   -1.040397   -2.054208
     20          1           0        1.306682    2.264604   -0.423751
     21          1           0       -1.186683    2.848556    0.622517
 ---------------------------------------------------------------------

 SCF Done:  E(UB3LYP) =  -583.126575803     A.U. after   33 cycles
 SCF Done:  E(UB3LYP) =  -583.126575803     a.u. after    1 cycles

 The electronic state is 2-A.
 Alpha  occ. eigenvalues --  -19.03575 -14.35152 -14.28752 -14.25999 -14.24938
 Alpha  occ. eigenvalues --  -14.22378 -10.16351 -10.13081 -10.12061 -10.10942
 Alpha  occ. eigenvalues --  -10.06722 -10.06224  -1.02346  -0.96909  -0.93608
 Alpha  occ. eigenvalues --   -0.86999  -0.73977  -0.69107  -0.66174  -0.60980
 Alpha  occ. eigenvalues --   -0.55243  -0.51600  -0.49128  -0.44475  -0.41749
 Alpha  occ. eigenvalues --   -0.41503  -0.39482  -0.39367  -0.37759  -0.34576
 Alpha  occ. eigenvalues --   -0.34312  -0.33847  -0.32110  -0.31102  -0.30539
 Alpha  occ. eigenvalues --   -0.28636  -0.26833  -0.22732  -0.21256  -0.20971
 Alpha  occ. eigenvalues --   -0.19917  -0.18214  -0.15376  -0.11710   0.04443
 Alpha virt. eigenvalues --    0.06010   0.07692   0.08071   0.08655   0.09291
 Alpha virt. eigenvalues --    0.10165   0.10906   0.11928   0.12068   0.12530
 Alpha virt. eigenvalues --    0.13017   0.13516   0.15134   0.16282   0.16559

  Beta  occ. eigenvalues --  -19.03576 -14.34872 -14.28756 -14.25686 -14.24968
  Beta  occ. eigenvalues --  -14.22380 -10.16330 -10.13030 -10.12051 -10.10908
  Beta  occ. eigenvalues --  -10.06716 -10.06168  -1.01851  -0.96897  -0.93594
  Beta  occ. eigenvalues --   -0.86781  -0.73928  -0.69073  -0.66120  -0.60853
  Beta  occ. eigenvalues --   -0.55100  -0.51532  -0.49048  -0.44351  -0.41706
  Beta  occ. eigenvalues --   -0.41482  -0.39250  -0.38580  -0.37333  -0.34523
  Beta  occ. eigenvalues --   -0.33981  -0.33506  -0.32052  -0.30833  -0.30472
  Beta  occ. eigenvalues --   -0.28582  -0.26791  -0.22713  -0.21191  -0.20547
  Beta  occ. eigenvalues --   -0.19666  -0.18175  -0.15371  -0.11650
  Beta virt. eigenvalues --    0.07170   0.08231   0.08300   0.09021   0.09368
  Beta virt. eigenvalues --    0.09674   0.10677   0.11457   0.12127   0.12501
  Beta virt. eigenvalues --    0.12956   0.13064   0.14060   0.15313   0.16478

 Mulliken charges and spin densities:
               1          2
     1  C    1.455988  -1.794366
     2  C   -1.078132   0.717474
     3  O   -0.091673   0.017772
     4  C    0.338939  -0.584645
     5  N    0.353811   0.020232
     6  C    0.552354  -0.804065
     7  C    0.057313   0.230361
     8  C    0.423605  -1.013533
     9  N   -0.579762   0.153798
    10  N   -0.185816   0.196105
    11  N    0.265432  -0.001061
    12  N   -0.158443   0.046623
    13  H   -0.129322   0.282741
    14  H   -0.432628   0.569049
    15  H   -0.508409   0.643312
    16  H   -0.117835   0.277645
    17  H    0.324560  -0.162501
    18  H   -0.303291   0.492039
    19  H    0.127194   0.040234
    20  H   -0.937677   1.109926
    21  H   -0.376207   0.562861
 Sum of Mulliken charges =  -1.00000   1.00000

 Dipole moment (field-independent basis, Debye):
    X=             -2.4592    Y=             -2.3326    Z=             -0.5607  Tot=              3.4356
 Quadrupole moment (field-independent basis, Debye-Ang):
   XX=           -147.1157   YY=           -109.8137   ZZ=            -90.5819
   XY=            -14.6843   XZ=             -0.3514   YZ=              0.2548

 Summary of Natural Population Analysis:

                                       Natural Population
                Natural  -----------------------------------------------
    Atom  No    Charge         Core      Valence    Rydberg      Total
 -----------------------------------------------------------------------
      C    1   -0.30295      0.99967     2.29808    0.00520     3.30295
      C    2   -0.01513      0.99959     2.00321    0.01233     3.01513
      O    3   -0.29395      0.99989     3.28550    0.00856     4.29395
      C    4    0.08431      0.99958     1.89921    0.01689     2.91569
      N    5   -0.12534      0.99966     2.61291    0.01276     3.62534
      C    6    0.00338      0.99956     1.98471    0.01236     2.99662
      C    7   -0.16664      0.99951     2.15768    0.00945     3.16664
      C    8    0.15474      0.99953     1.82865    0.01707     2.84526
      N    9   -0.17395      0.99968     2.66347    0.01079     3.67395
      N   10   -0.19704      0.99964     2.68405    0.01335     3.69704
      N   11    0.14937      0.99971     2.33515    0.01578     3.35063
      N   12   -0.00149      0.99982     2.48781    0.01386     3.50149
      H   13    0.09976      0.00000     0.39881    0.00143     0.40024
      H   14    0.10439      0.00000     0.39407    0.00154     0.39561
      H   15    0.10090      0.00000     0.39582    0.00328     0.39910
      H   16    0.08860      0.00000     0.41011    0.00129     0.41140
      H   17    0.08487      0.00000     0.41373    0.00140     0.41513
      H   18    0.08693      0.00000     0.41140    0.00167     0.41307
      H   19    0.09616      0.00000     0.40256    0.00128     0.40384
      H   20    0.11050      0.00000     0.38575    0.00375     0.38950
      H   21    0.11257      0.00000     0.38608    0.00135     0.38743
 =======================================================================
   * Total *   -0.00000     11.99584    31.83878    0.16538    44.00000

 Normal termination of Gaussian 16 at Wed Dec  9 16:58:16 2020.
