 Gaussian 16, Revision A.03,

 -----------------------------------------------------------
 # opt freq B3LYP/6-31G(d) empiricaldispersion=gd3bj scf=xqc
 -----------------------------------------------------------

 -----------------------------
 CID_141820045_JID_41_neutraal
 -----------------------------
 Symbolic Z-matrix:
 Charge =  0 Multiplicity = 1

 SCF Done:  E(RB3LYP) =  -426.581367932     A.U. after   14 cycles
 SCF Done:  E(RB3LYP) =  -426.583082617     A.U. after   12 cycles
 SCF Done:  E(RB3LYP) =  -426.583190889     A.U. after   11 cycles
 SCF Done:  E(RB3LYP) =  -426.583407737     A.U. after   11 cycles
 SCF Done:  E(RB3LYP) =  -426.583431317     A.U. after   10 cycles
 SCF Done:  E(RB3LYP) =  -426.583452097     A.U. after   10 cycles
 SCF Done:  E(RB3LYP) =  -426.583459592     A.U. after   10 cycles
 SCF Done:  E(RB3LYP) =  -426.583467607     A.U. after   11 cycles
 SCF Done:  E(RB3LYP) =  -426.583473169     A.U. after   10 cycles
 SCF Done:  E(RB3LYP) =  -426.583475485     A.U. after    9 cycles
 SCF Done:  E(RB3LYP) =  -426.583475577     A.U. after    8 cycles
 Optimization completed.
    -- Stationary point found.

 1\1\GINC-NODE320\FOpt\RB3LYP\6-31G(d)\C9H14O1\VSC10255\08-Dec-2020\0\\
 # opt freq B3LYP/6-31G(d) empiricaldispersion=gd3bj scf=xqc\\CID_14182
 0045_JID_41_neutraal\\0,1\C,1.0992443694,0.0972508816,-0.1164555262\C,
 1.0121613892,-1.3371170264,-0.6422392161\C,1.6413188531,-2.3965618019,
 0.259527937\O,0.9227527621,-2.544402884,1.4870864309\C,1.3705499545,-2
 .0158731623,2.6633247763\C,2.4190906607,-1.15649425,2.7778229047\C,2.9
 445791653,-0.6041419798,4.0085485375\C,3.971755092,0.2609891079,4.0608
 505122\C,0.5680685324,-2.4836681828,3.7928977878\C,-0.4478031702,-3.35

 Normal termination of Gaussian 16 at Tue Dec  8 10:16:00 2020.

 --------------------------------------------------------------------
 #N Geom=AllCheck Guess=TCheck SCRF=Check GenChk RB3LYP/6-31G(d) Freq
 --------------------------------------------------------------------

 Structure from the checkpoint file:  "JID_41.chk"
 -----------------------------
 CID_141820045_JID_41_neutraal
 -----------------------------
 Charge =  0 Multiplicity = 1

 SCF Done:  E(RB3LYP) =  -426.583475577     A.U. after    1 cycles

  Exact polarizability: 122.623  29.142 150.485  -6.356   9.016  58.552
 Approx polarizability: 168.673  69.327 254.790  -7.183  19.093  82.494

                      1                      2                      3
                      A                      A                      A
 Frequencies --     38.2155                60.9785               106.4111
 Red. masses --      3.7344                 3.2383                 2.4048
 Frc consts  --      0.0032                 0.0071                 0.0160
 IR Inten    --      0.7069                 0.2698                 0.2017

                      4                      5                      6
                      A                      A                      A
 Frequencies --    111.4742               146.5476               182.7611
 Red. masses --      2.0771                 2.0196                 2.4958
 Frc consts  --      0.0152                 0.0256                 0.0491
 IR Inten    --      0.7547                 0.3155                 0.4414

                      7                      8                      9
                      A                      A                      A
 Frequencies --    204.8420               220.1476               261.8677
 Red. masses --      3.2993                 2.5456                 1.2721
 Frc consts  --      0.0816                 0.0727                 0.0514
 IR Inten    --      1.0264                 0.5164                 1.6430

                     10                     11                     12
                      A                      A                      A
 Frequencies --    314.7088               365.6708               409.3470
 Red. masses --      2.2178                 2.7143                 2.9919
 Frc consts  --      0.1294                 0.2138                 0.2954
 IR Inten    --      1.5801                 0.9453                 2.8693

                     13                     14                     15
                      A                      A                      A
 Frequencies --    462.1261               486.1578               549.7553
 Red. masses --      1.8637                 2.1722                 3.8807
 Frc consts  --      0.2345                 0.3025                 0.6910
 IR Inten    --      2.2927                 0.3266                17.0882

                     16                     17                     18
                      A                      A                      A
 Frequencies --    607.2673               670.7133               754.0121
 Red. masses --      2.7771                 1.4333                 2.4879
 Frc consts  --      0.6034                 0.3799                 0.8334
 IR Inten    --      0.5854                11.2917                 3.8815

                     19                     20                     21
                      A                      A                      A
 Frequencies --    780.2455               813.8774               866.3773
 Red. masses --      1.4968                 2.2781                 1.4034
 Frc consts  --      0.5369                 0.8891                 0.6206
 IR Inten    --      2.4224                 3.6755                 2.6102

                     22                     23                     24
                      A                      A                      A
 Frequencies --    871.6250               895.6431               928.9989
 Red. masses --      2.6564                 1.4746                 1.2665
 Frc consts  --      1.1891                 0.6969                 0.6440
 IR Inten    --      1.5640                54.4394                 3.1093

                     25                     26                     27
                      A                      A                      A
 Frequencies --    938.4226               973.9549              1006.7392
 Red. masses --      1.3780                 2.0017                 1.1545
 Frc consts  --      0.7150                 1.1188                 0.6894
 IR Inten    --     29.9633                11.4692                 3.2377

                     28                     29                     30
                      A                      A                      A
 Frequencies --   1009.0750              1026.7019              1062.6944
 Red. masses --      1.3767                 1.0924                 1.6671
 Frc consts  --      0.8259                 0.6785                 1.1093
 IR Inten    --      5.0861                29.0323                10.9362

                     31                     32                     33
                      A                      A                      A
 Frequencies --   1115.4364              1143.1380              1181.0368
 Red. masses --      2.3674                 2.2776                 1.9629
 Frc consts  --      1.7354                 1.7536                 1.6132
 IR Inten    --     66.9154                51.4950                19.8502

                     34                     35                     36
                      A                      A                      A
 Frequencies --   1221.9670              1272.7088              1306.8773
 Red. masses --      2.4811                 1.9938                 1.2260
 Frc consts  --      2.1828                 1.9028                 1.2337
 IR Inten    --     35.1558               167.9040                13.6468

                     37                     38                     39
                      A                      A                      A
 Frequencies --   1324.4895              1334.2930              1369.3742
 Red. masses --      1.2838                 1.2580                 1.3318
 Frc consts  --      1.3270                 1.3195                 1.4714
 IR Inten    --      4.9928                35.6922                 2.0233

                     40                     41                     42
                      A                      A                      A
 Frequencies --   1386.6128              1408.4012              1422.4799
 Red. masses --      1.5159                 1.3943                 1.3338
 Frc consts  --      1.7173                 1.6295                 1.5901
 IR Inten    --     36.8767                 3.0618                 6.8202

                     43                     44                     45
                      A                      A                      A
 Frequencies --   1448.1920              1461.7989              1488.8672
 Red. masses --      1.2655                 1.3293                 1.4093
 Frc consts  --      1.5637                 1.6735                 1.8406
 IR Inten    --      5.8108                12.3980                12.3876

                     46                     47                     48
                      A                      A                      A
 Frequencies --   1507.8691              1530.7869              1535.0690
 Red. masses --      1.0799                 1.0496                 1.0549
 Frc consts  --      1.4467                 1.4491                 1.4646
 IR Inten    --      0.8213                 6.5246                10.2938

                     49                     50                     51
                      A                      A                      A
 Frequencies --   1544.8658              1642.1972              1700.0563
 Red. masses --      1.0831                 4.6891                 4.1112
 Frc consts  --      1.5230                 7.4506                 7.0007
 IR Inten    --      5.8990                74.8048                67.6360

                     52                     53                     54
                      A                      A                      A
 Frequencies --   1711.4657              3037.8941              3053.1942
 Red. masses --      4.6121                 1.0626                 1.0379
 Frc consts  --      7.9595                 5.7778                 5.7004
 IR Inten    --     26.2754                25.4909                18.8669

                     55                     56                     57
                      A                      A                      A
 Frequencies --   3062.0988              3077.7281              3106.9508
 Red. masses --      1.0611                 1.0968                 1.1075
 Frc consts  --      5.8620                 6.1214                 6.2989
 IR Inten    --     40.5843                26.1429                18.5241

                     58                     59                     60
                      A                      A                      A
 Frequencies --   3116.1130              3137.5113              3161.7432
 Red. masses --      1.1021                 1.1016                 1.0587
 Frc consts  --      6.3052                 6.3889                 6.2358
 IR Inten    --     52.8891                28.6499                10.4512

                     61                     62                     63
                      A                      A                      A
 Frequencies --   3175.6008              3183.1308              3211.3830
 Red. masses --      1.0875                 1.0610                 1.0864
 Frc consts  --      6.4617                 6.3338                 6.6015
 IR Inten    --      5.4947                 3.9348                10.6161

                     64                     65                     66
                      A                      A                      A
 Frequencies --   3218.3665              3248.3300              3271.7888
 Red. masses --      1.0905                 1.1149                 1.1156
 Frc consts  --      6.6552                 6.9315                 7.0363
 IR Inten    --     12.0139                21.6278                10.6878

 - Thermochemistry -
 -------------------
 Temperature   298.150 Kelvin.  Pressure   1.00000 Atm.
 Atom     1 has atomic number  6 and mass  12.00000

 Molecular mass:   138.10447 amu.
 Principal axes and moments of inertia in atomic units:
                           1         2         3
     Eigenvalues --  1359.379901826.006602863.93460
           X            0.99945  -0.03321  -0.00052
           Y            0.03321   0.99945   0.00120
           Z            0.00048  -0.00122   1.00000
 This molecule is an asymmetric top.
 Rotational symmetry number  1.
 Warning -- assumption of classical behavior for rotation
           may cause significant error
 Rotational temperatures (Kelvin)      0.06372     0.04743     0.03024
 Rotational constants (GHZ):           1.32762     0.98835     0.63016
 Zero-point vibrational energy     551760.6 (Joules/Mol)
                                  131.87396 (Kcal/Mol)
 Warning -- explicit consideration of  16 degrees of freedom as
           vibrations may cause significant error
 Vibrational temperatures:     54.98    87.73   153.10   160.39   210.85
          (Kelvin)            262.95   294.72   316.74   376.77   452.80
                              526.12   588.96   664.90   699.47   790.98
                              873.72   965.01  1084.86  1122.60  1170.99
                             1246.52  1254.07  1288.63  1336.62  1350.18
                             1401.30  1448.47  1451.83  1477.20  1528.98
                             1604.86  1644.72  1699.25  1758.14  1831.14
                             1880.30  1905.64  1919.75  1970.22  1995.03
                             2026.38  2046.63  2083.63  2103.20  2142.15
                             2169.49  2202.46  2208.62  2222.72  2362.76
                             2446.00  2462.42  4370.85  4392.87  4405.68
                             4428.16  4470.21  4483.39  4514.18  4549.04
                             4568.98  4579.82  4620.46  4630.51  4673.62
                             4707.37

 Zero-point correction=                           0.210155 (Hartree/Particle)
 Thermal correction to Energy=                    0.221780
 Thermal correction to Enthalpy=                  0.222725
 Thermal correction to Gibbs Free Energy=         0.172117
 Sum of electronic and zero-point Energies=           -426.373321
 Sum of electronic and thermal Energies=              -426.361695
 Sum of electronic and thermal Enthalpies=            -426.360751
 Sum of electronic and thermal Free Energies=         -426.411358

                     E (Thermal)             CV                S
                      KCal/Mol        Cal/Mol-Kelvin    Cal/Mol-Kelvin
 Total                  139.169             42.171            106.512
 Electronic               0.000              0.000              0.000
 Translational            0.889              2.981             40.680
 Rotational               0.889              2.981             30.342
 Vibrational            137.392             36.210             35.489
 Vibration     1          0.594              1.982              5.350
 Vibration     2          0.597              1.973              4.425
 Vibration     3          0.605              1.944              3.333
 Vibration     4          0.607              1.940              3.243
 Vibration     5          0.617              1.906              2.717
 Vibration     6          0.630              1.863              2.300
 Vibration     7          0.640              1.833              2.089
 Vibration     8          0.647              1.810              1.958
 Vibration     9          0.669              1.743              1.649
 Vibration    10          0.702              1.646              1.337
 Vibration    11          0.739              1.543              1.098
 Vibration    12          0.774              1.450              0.929
 Vibration    13          0.820              1.334              0.760
 Vibration    14          0.842              1.281              0.694
 Vibration    15          0.905              1.140              0.545
 Vibration    16          0.966              1.016              0.437

 Optimization completed.
    -- Stationary point found.

 1\1\GINC-NODE320\Freq\RB3LYP\6-31G(d)\C9H14O1\VSC10255\08-Dec-2020\0\\
 #N Geom=AllCheck Guess=TCheck SCRF=Check GenChk RB3LYP/6-31G(d) Freq\\
 CID_141820045_JID_41_neutraal\\0,1\C,1.0992443694,0.0972508816,-0.1164
 555262\C,1.0121613892,-1.3371170264,-0.6422392161\C,1.6413188531,-2.39
 65618019,0.259527937\O,0.9227527621,-2.544402884,1.4870864309\C,1.3705
 499545,-2.0158731623,2.6633247763\C,2.4190906607,-1.15649425,2.7778229
 047\C,2.9445791653,-0.6041419798,4.0085485375\C,3.971755092,0.26098910
 79,4.0608505122\C,0.5680685324,-2.4836681828,3.7928977878\C,-0.4478031

 Normal termination of Gaussian 16 at Tue Dec  8 10:19:54 2020.

 ----------------------------------------------------------------------
 # B3LYP/6-311++G(d,p) empiricaldispersion=gd3bj scf=xqc pop=npa geom=c
 heck
 ----------------------------------------------------------------------

 -------------------------------------
 CID_141820045_JID_41_Energie_neutraal
 -------------------------------------
 Structure from the checkpoint file:  "JID_41.chk"
 Charge =  0 Multiplicity = 1

 SCF Done:  E(RB3LYP) =  -426.707451588     A.U. after   14 cycles
 Normal termination of Gaussian 16 at Tue Dec  8 10:21:20 2020.

 ----------------------------------------------------------------------
 # B3LYP/6-311++G(d,p) empiricaldispersion=gd3bj scf=xqc pop=npa geom=c
 heck
 ----------------------------------------------------------------------

 -----------------------------------
 CID_141820045_JID_41_Energie_kation
 -----------------------------------
 Structure from the checkpoint file:  "JID_41.chk"
 Charge =  1 Multiplicity = 2

 SCF Done:  E(UB3LYP) =  -426.433890952     A.U. after   20 cycles
 Normal termination of Gaussian 16 at Tue Dec  8 10:23:57 2020.
 Gaussian 16:  ES64L-G16RevA.03 25-Dec-2016

 ----------------------------------
 CID_141820045_JID_41_Energie_anion
 ----------------------------------
 Structure from the checkpoint file:  "JID_41.chk"
 Charge = -1 Multiplicity = 2

                         Standard orientation:
 ---------------------------------------------------------------------
 Center     Atomic      Atomic             Coordinates (Angstroms)
 Number     Number       Type             X           Y           Z
 ---------------------------------------------------------------------
      1          6           0        2.012423   -1.605243    1.052024
      2          6           0        2.709482   -0.712021    0.023576
      3          6           0        1.783092   -0.055062   -0.997038
      4          8           0        0.917796    0.906715   -0.387661
      5          6           0       -0.396879    0.645590   -0.129117
      6          6           0       -0.981109   -0.577947   -0.241865
      7          6           0       -2.376748   -0.886227   -0.011491
      8          6           0       -2.896482   -2.121225   -0.116063
      9          6           0       -1.101762    1.853272    0.299122
     10          6           0       -0.541878    3.066807    0.386305
     11          1           0        1.261898   -1.045895    1.618175
     12          1           0        2.738742   -2.012917    1.763450
     13          1           0        1.507207   -2.451348    0.571755
     14          1           0        3.259257    0.085515    0.538749
     15          1           0        3.454451   -1.294538   -0.536191
     16          1           0        2.378097    0.518777   -1.715662
     17          1           0        1.206261   -0.794470   -1.562647
     18          1           0       -0.368311   -1.427045   -0.524071
     19          1           0       -3.045438   -0.071907    0.257792
     20          1           0       -3.949296   -2.312510    0.064242
     21          1           0       -2.281919   -2.977157   -0.385904
     22          1           0       -2.144666    1.727197    0.568973
     23          1           0       -1.118551    3.924336    0.718555
     24          1           0        0.499071    3.230577    0.131354
 ---------------------------------------------------------------------

 SCF Done:  E(UB3LYP) =  -426.699780689     A.U. after   32 cycles

 The electronic state is 2-A.
 Alpha  occ. eigenvalues --  -19.01367 -10.10238 -10.08196 -10.05447 -10.04493
 Alpha  occ. eigenvalues --  -10.03663 -10.02756 -10.01523 -10.01516 -10.01418
 Alpha  occ. eigenvalues --   -0.92911  -0.68402  -0.66052  -0.63276  -0.58583
 Alpha  occ. eigenvalues --   -0.56422  -0.49598  -0.45908  -0.44540  -0.40409
 Alpha  occ. eigenvalues --   -0.36929  -0.36356  -0.34258  -0.31913  -0.30538
 Alpha  occ. eigenvalues --   -0.29661  -0.28108  -0.26914  -0.26146  -0.24316
 Alpha  occ. eigenvalues --   -0.23673  -0.22983  -0.22167  -0.20511  -0.19404
 Alpha  occ. eigenvalues --   -0.16819  -0.13910  -0.07001   0.05262
 Alpha virt. eigenvalues --    0.07290   0.09057   0.09244   0.09504   0.10458
 Alpha virt. eigenvalues --    0.10860   0.11958   0.12841   0.12988   0.13623
 Alpha virt. eigenvalues --    0.14021   0.14499   0.15241   0.16256   0.17119

  Beta  occ. eigenvalues --  -19.01352 -10.10233 -10.07981 -10.05415 -10.04477
  Beta  occ. eigenvalues --  -10.03637 -10.02707 -10.01395 -10.01314 -10.01140
  Beta  occ. eigenvalues --   -0.92817  -0.68158  -0.65843  -0.62922  -0.58311
  Beta  occ. eigenvalues --   -0.56235  -0.49333  -0.45448  -0.44266  -0.40277
  Beta  occ. eigenvalues --   -0.36753  -0.36232  -0.34145  -0.31858  -0.30422
  Beta  occ. eigenvalues --   -0.29516  -0.27955  -0.26713  -0.25963  -0.24211
  Beta  occ. eigenvalues --   -0.23574  -0.22774  -0.21778  -0.20372  -0.19308
  Beta  occ. eigenvalues --   -0.16091  -0.12843  -0.05629
  Beta virt. eigenvalues --    0.07963   0.09139   0.09388   0.09697   0.09948
  Beta virt. eigenvalues --    0.10554   0.11205   0.12083   0.12892   0.13208
  Beta virt. eigenvalues --    0.13651   0.14344   0.14612   0.15405   0.16194

 Mulliken charges and spin densities:
               1          2
     1  C   -0.456572  -0.040501
     2  C    1.136385  -1.279220
     3  C   -0.377525   0.102492
     4  O   -0.010937   0.005103
     5  C   -0.237766   0.514856
     6  C    0.824374  -0.418050
     7  C   -0.087480  -0.055903
     8  C   -0.524926   0.210868
     9  C   -0.375990   0.080753
    10  C   -0.746917   0.290484
    11  H    0.134228   0.023555
    12  H   -0.256439   0.383562
    13  H    0.121889   0.018082
    14  H    0.010971   0.131683
    15  H   -0.577420   0.702044
    16  H   -0.137341   0.305718
    17  H   -0.016062   0.147786
    18  H    0.105091  -0.134903
    19  H    0.055572   0.010883
    20  H    0.110682  -0.017236
    21  H    0.032381   0.039424
    22  H    0.080160  -0.007913
    23  H    0.096536   0.006573
    24  H    0.097108  -0.020141
 Sum of Mulliken charges =  -1.00000   1.00000

 Dipole moment (field-independent basis, Debye):
    X=             -1.6991    Y=              0.5802    Z=              0.2088  Tot=              1.8076
 Quadrupole moment (field-independent basis, Debye-Ang):
   XX=           -108.8317   YY=            -95.6835   ZZ=            -81.9666
   XY=              2.0030   XZ=             -0.7736   YZ=             -1.0443

 Summary of Natural Population Analysis:

                                       Natural Population
                Natural  -----------------------------------------------
    Atom  No    Charge         Core      Valence    Rydberg      Total
 -----------------------------------------------------------------------
      C    1   -0.28912      0.99966     2.28328    0.00618     3.28912
      C    2   -0.20133      0.99964     2.19282    0.00887     3.20133
      C    3   -0.00674      0.99955     1.99442    0.01277     3.00674
      O    4   -0.28448      0.99985     3.27365    0.01098     4.28448
      C    5    0.19647      0.99937     1.79012    0.01403     2.80353
      C    6   -0.14857      0.99949     2.13951    0.00957     3.14857
      C    7   -0.09589      0.99957     2.08788    0.00844     3.09589
      C    8   -0.17829      0.99960     2.16983    0.00885     3.17829
      C    9   -0.11898      0.99954     2.11088    0.00857     3.11898
      C   10   -0.13344      0.99960     2.12563    0.00821     3.13344
      H   11    0.10548      0.00000     0.39343    0.00109     0.39452
      H   12    0.09560      0.00000     0.40350    0.00089     0.40440
      H   13    0.09487      0.00000     0.40408    0.00105     0.40513
      H   14    0.09581      0.00000     0.40285    0.00133     0.40419
      H   15    0.09616      0.00000     0.40058    0.00326     0.40384
      H   16    0.08752      0.00000     0.41130    0.00118     0.41248
      H   17    0.08403      0.00000     0.41441    0.00156     0.41597
      H   18    0.09050      0.00000     0.40745    0.00205     0.40950
      H   19    0.08635      0.00000     0.41221    0.00144     0.41365
      H   20    0.08234      0.00000     0.41671    0.00095     0.41766
      H   21    0.08125      0.00000     0.41761    0.00114     0.41875
      H   22    0.08891      0.00000     0.40970    0.00139     0.41109
      H   23    0.07998      0.00000     0.41905    0.00097     0.42002
      H   24    0.09156      0.00000     0.40726    0.00119     0.40844
 =======================================================================
   * Total *   -0.00000      9.99588    27.88816    0.11596    38.00000

 Normal termination of Gaussian 16 at Tue Dec  8 10:28:06 2020.
