 Gaussian 16, Revision A.03,

 -----------------------------------------------------------
 # opt freq B3LYP/6-31G(d) empiricaldispersion=gd3bj scf=xqc
 -----------------------------------------------------------

 -------------------------------
 CID_117417936_JID_8779_neutraal
 -------------------------------
 Symbolic Z-matrix:
 Charge =  0 Multiplicity = 1

 SCF Done:  E(RB3LYP) =  -1148.35925583     A.U. after   14 cycles
 SCF Done:  E(RB3LYP) =  -1148.36626654     A.U. after   12 cycles
 SCF Done:  E(RB3LYP) =  -1148.36207205     A.U. after   14 cycles
 SCF Done:  E(RB3LYP) =  -1148.36478846     A.U. after   13 cycles
 SCF Done:  E(RB3LYP) =  -1148.36776947     A.U. after    9 cycles
 SCF Done:  E(RB3LYP) =  -1148.36759654     A.U. after   12 cycles
 SCF Done:  E(RB3LYP) =  -1148.36821776     A.U. after   12 cycles
 SCF Done:  E(RB3LYP) =  -1148.36837851     A.U. after   12 cycles
 SCF Done:  E(RB3LYP) =  -1148.36873827     A.U. after   11 cycles
 SCF Done:  E(RB3LYP) =  -1148.36880248     A.U. after   10 cycles
 SCF Done:  E(RB3LYP) =  -1148.36886017     A.U. after   10 cycles
 SCF Done:  E(RB3LYP) =  -1148.36886510     A.U. after   10 cycles
 SCF Done:  E(RB3LYP) =  -1148.36887059     A.U. after    9 cycles
 SCF Done:  E(RB3LYP) =  -1148.36887098     A.U. after    9 cycles
 SCF Done:  E(RB3LYP) =  -1148.36887101     A.U. after    7 cycles
 Optimization completed.
    -- Stationary point found.
 Normal termination of Gaussian 16 at Fri Dec 11 21:15:21 2020.

 --------------------------------------------------------------------
 #N Geom=AllCheck Guess=TCheck SCRF=Check GenChk RB3LYP/6-31G(d) Freq
 --------------------------------------------------------------------

 Structure from the checkpoint file:  "JID_8779.chk"
 -------------------------------
 CID_117417936_JID_8779_neutraal
 -------------------------------
 Charge =  0 Multiplicity = 1

 SCF Done:  E(RB3LYP) =  -1148.36887101     A.U. after    1 cycles

  Exact polarizability: 196.023  -2.054 178.106  20.329   6.308 134.511
 Approx polarizability: 279.935  -2.736 293.734  45.111   7.477 209.948

                      1                      2                      3
                      A                      A                      A
 Frequencies --     37.3765                48.8800                82.0257
 Red. masses --      4.0804                 4.3338                 3.3239
 Frc consts  --      0.0034                 0.0061                 0.0132
 IR Inten    --      0.4057                 0.2378                 0.9951

                      4                      5                      6
                      A                      A                      A
 Frequencies --     85.9110                94.5879               115.1959
 Red. masses --      2.4215                 3.7185                 4.5638
 Frc consts  --      0.0105                 0.0196                 0.0357
 IR Inten    --      4.8433                 3.5190                 1.6716

                      7                      8                      9
                      A                      A                      A
 Frequencies --    145.5005               166.4615               179.9153
 Red. masses --      2.9843                 1.4675                 2.7342
 Frc consts  --      0.0372                 0.0240                 0.0521
 IR Inten    --      0.3266                 0.8615                 0.6759

                     10                     11                     12
                      A                      A                      A
 Frequencies --    183.8426               200.8151               241.4177
 Red. masses --      3.7215                 4.8701                 4.6793
 Frc consts  --      0.0741                 0.1157                 0.1607
 IR Inten    --      0.7629                 0.4954                 0.6732

                     13                     14                     15
                      A                      A                      A
 Frequencies --    276.1913               303.4787               322.1592
 Red. masses --      2.4185                 5.3330                 3.2400
 Frc consts  --      0.1087                 0.2894                 0.1981
 IR Inten    --      0.1431                 0.3880                 0.8273

                     16                     17                     18
                      A                      A                      A
 Frequencies --    366.3936               378.7046               417.8744
 Red. masses --      2.4074                 2.9116                 2.2546
 Frc consts  --      0.1904                 0.2460                 0.2320
 IR Inten    --      2.4479                 1.3799                 2.5534

                     19                     20                     21
                      A                      A                      A
 Frequencies --    430.8842               454.8758               474.9486
 Red. masses --      3.7981                 3.3309                 5.0906
 Frc consts  --      0.4155                 0.4061                 0.6766
 IR Inten    --      0.8625                 1.4343                 2.1176

                     22                     23                     24
                      A                      A                      A
 Frequencies --    505.0424               525.5678               549.3272
 Red. masses --      2.7420                 3.6698                 3.5613
 Frc consts  --      0.4121                 0.5972                 0.6332
 IR Inten    --      1.7850                 0.6634                 1.7632

                     25                     26                     27
                      A                      A                      A
 Frequencies --    627.6805               640.6036               704.3737
 Red. masses --      4.3879                 5.7833                 6.2727
 Frc consts  --      1.0185                 1.3983                 1.8336
 IR Inten    --      1.2514                 2.1994                 1.7307

                     28                     29                     30
                      A                      A                      A
 Frequencies --    716.5014               719.3680               751.7693
 Red. masses --      4.3775                 4.8531                 6.1662
 Frc consts  --      1.3241                 1.4797                 2.0532
 IR Inten    --      2.1817                 4.3942                 2.8720

                     31                     32                     33
                      A                      A                      A
 Frequencies --    763.9997               793.1235               807.7226
 Red. masses --      4.5644                 1.7308                 2.2441
 Frc consts  --      1.5697                 0.6415                 0.8626
 IR Inten    --      4.1197                54.6737                13.7025

                     34                     35                     36
                      A                      A                      A
 Frequencies --    831.0665               858.5332               872.5198
 Red. masses --      1.6077                 2.8538                 1.9335
 Frc consts  --      0.6542                 1.2393                 0.8673
 IR Inten    --     25.3206                 1.6310                11.9977

                     37                     38                     39
                      A                      A                      A
 Frequencies --    904.8305               919.6388               929.4207
 Red. masses --      1.8367                 2.9093                 1.9320
 Frc consts  --      0.8860                 1.4497                 0.9833
 IR Inten    --     17.6249                11.3769                 8.0813

                     40                     41                     42
                      A                      A                      A
 Frequencies --    939.4060               953.1249               961.1274
 Red. masses --      1.5542                 2.0469                 2.5833
 Frc consts  --      0.8081                 1.0956                 1.4060
 IR Inten    --      1.3682                38.5022                 1.6307

                     43                     44                     45
                      A                      A                      A
 Frequencies --    980.6466              1000.1505              1002.2835
 Red. masses --      6.6197                 1.2272                 2.2616
 Frc consts  --      3.7507                 0.7233                 1.3386
 IR Inten    --     78.6014                 7.1697                 0.8253

                     46                     47                     48
                      A                      A                      A
 Frequencies --   1022.4734              1041.0119              1072.6211
 Red. masses --      1.4793                 2.0139                 2.0886
 Frc consts  --      0.9112                 1.2859                 1.4158
 IR Inten    --     10.7704                 9.0784                 1.4710

                     49                     50                     51
                      A                      A                      A
 Frequencies --   1086.2083              1100.7283              1132.8873
 Red. masses --      4.3402                 1.7502                 2.9944
 Frc consts  --      3.0170                 1.2494                 2.2643
 IR Inten    --    146.1449                 9.0199                21.4907

                     52                     53                     54
                      A                      A                      A
 Frequencies --   1154.0299              1158.7523              1162.8251
 Red. masses --      1.5132                 1.5431                 3.5312
 Frc consts  --      1.1873                 1.2208                 2.8132
 IR Inten    --     15.8965                 0.4582                 7.5059

                     55                     56                     57
                      A                      A                      A
 Frequencies --   1173.4890              1192.7356              1216.2141
 Red. masses --      1.4749                 1.2117                 1.1037
 Frc consts  --      1.1966                 1.0157                 0.9619
 IR Inten    --      9.6637                 9.5915                 2.8302

                     58                     59                     60
                      A                      A                      A
 Frequencies --   1234.2409              1256.9102              1268.1520
 Red. masses --      1.5059                 1.4953                 2.6106
 Frc consts  --      1.3516                 1.3919                 2.4736
 IR Inten    --      6.2794                22.3232                21.5726

                     61                     62                     63
                      A                      A                      A
 Frequencies --   1297.8910              1305.4283              1343.4640
 Red. masses --      1.2522                 2.1437                 1.5135
 Frc consts  --      1.2428                 2.1524                 1.6095
 IR Inten    --     10.7908               156.4479                 7.8903

                     64                     65                     66
                      A                      A                      A
 Frequencies --   1352.9847              1373.1383              1378.8324
 Red. masses --      1.5219                 1.4287                 1.2513
 Frc consts  --      1.6415                 1.5871                 1.4017
 IR Inten    --      6.1839                 3.9449                 1.0415

                     67                     68                     69
                      A                      A                      A
 Frequencies --   1385.5628              1397.1217              1402.7176
 Red. masses --      1.1752                 1.5074                 1.9779
 Frc consts  --      1.3293                 1.7336                 2.2930
 IR Inten    --      2.0466                 5.6296                 9.2387

                     70                     71                     72
                      A                      A                      A
 Frequencies --   1413.8289              1419.3798              1424.4959
 Red. masses --      1.5164                 1.3205                 1.3986
 Frc consts  --      1.7859                 1.5675                 1.6721
 IR Inten    --      5.2373                11.1857                10.8923

                     73                     74                     75
                      A                      A                      A
 Frequencies --   1446.9175              1484.7675              1497.8312
 Red. masses --      1.4230                 3.2258                 1.2117
 Frc consts  --      1.7553                 4.1900                 1.6017
 IR Inten    --      9.3995               119.8765                 6.5838

                     76                     77                     78
                      A                      A                      A
 Frequencies --   1501.4119              1505.3062              1509.8114
 Red. masses --      1.8554                 1.3122                 1.1011
 Frc consts  --      2.4642                 1.7519                 1.4789
 IR Inten    --    129.4976                35.4921                 5.3264

                     79                     80                     81
                      A                      A                      A
 Frequencies --   1513.0859              1519.4423              1522.3734
 Red. masses --      1.1003                 1.1065                 1.0608
 Frc consts  --      1.4842                 1.5052                 1.4486
 IR Inten    --      1.5096                13.1374                 8.8326

                     82                     83                     84
                      A                      A                      A
 Frequencies --   1527.9571              1532.5578              1572.6780
 Red. masses --      1.1246                 1.1349                 1.1231
 Frc consts  --      1.5469                 1.5705                 1.6366
 IR Inten    --     10.8618                 4.2387                 2.5132

                     85                     86                     87
                      A                      A                      A
 Frequencies --   1647.7268              1668.2477              3003.8516
 Red. masses --      7.4180                 7.7891                 1.0794
 Frc consts  --     11.8661                12.7720                 5.7383
 IR Inten    --      9.2283                 2.8881                11.0571

                     88                     89                     90
                      A                      A                      A
 Frequencies --   3018.8880              3021.0664              3028.6398
 Red. masses --      1.0662                 1.0671                 1.0695
 Frc consts  --      5.7252                 5.7382                 5.7801
 IR Inten    --     18.0647                37.6312               109.3716

                     91                     92                     93
                      A                      A                      A
 Frequencies --   3035.3193              3036.2287              3046.5334
 Red. masses --      1.0657                 1.0673                 1.0712
 Frc consts  --      5.7850                 5.7971                 5.8576
 IR Inten    --    152.3844                43.7081                53.9136

                     94                     95                     96
                      A                      A                      A
 Frequencies --   3067.9801              3077.9929              3079.6739
 Red. masses --      1.1007                 1.0917                 1.0349
 Frc consts  --      6.1044                 6.0936                 5.7830
 IR Inten    --     45.9545                38.2669                20.2289

                     97                     98                     99
                      A                      A                      A
 Frequencies --   3090.1363              3099.3010              3109.8658
 Red. masses --      1.0926                 1.0970                 1.0942
 Frc consts  --      6.1471                 6.2084                 6.2351
 IR Inten    --     18.2864                54.9939                15.0996

                    100                    101                    102
                      A                      A                      A
 Frequencies --   3124.7195              3165.4224              3182.3070
 Red. masses --      1.1060                 1.1046                 1.1076
 Frc consts  --      6.3627                 6.5212                 6.6087
 IR Inten    --     44.6334                 5.5857                 1.9630

                    103                    104                    105
                      A                      A                      A
 Frequencies --   3191.3808              3232.2109              3506.8646
 Red. masses --      1.0889                 1.0936                 1.0728
 Frc consts  --      6.5343                 6.7314                 7.7736
 IR Inten    --     10.0932                 3.9158                 8.9127

 - Thermochemistry -
 -------------------
 Temperature   298.150 Kelvin.  Pressure   1.00000 Atm.
 Atom     1 has atomic number  6 and mass  12.00000

 Molecular mass:   265.11365 amu.
 Principal axes and moments of inertia in atomic units:
                           1         2         3
     Eigenvalues --  3113.222955782.264646999.39546
           X            0.99998   0.00514   0.00386
           Y           -0.00529   0.99915   0.04083
           Z           -0.00365  -0.04085   0.99916
 This molecule is an asymmetric top.
 Rotational symmetry number  1.
 Warning -- assumption of classical behavior for rotation
           may cause significant error
 Rotational temperatures (Kelvin)      0.02782     0.01498     0.01237
 Rotational constants (GHZ):           0.57970     0.31212     0.25784
 Zero-point vibrational energy     829023.4 (Joules/Mol)
                                  198.14135 (Kcal/Mol)
 Warning -- explicit consideration of  24 degrees of freedom as
           vibrations may cause significant error
 Vibrational temperatures:     53.78    70.33   118.02   123.61   136.09
          (Kelvin)            165.74   209.34   239.50   258.86   264.51
                              288.93   347.35   397.38   436.64   463.52
                              527.16   544.87   601.23   619.95   654.46
                              683.35   726.64   756.17   790.36   903.09
                              921.69  1013.44  1030.89  1035.01  1081.63
                             1099.23  1141.13  1162.13  1195.72  1235.24
                             1255.36  1301.85  1323.16  1337.23  1351.60
                             1371.33  1382.85  1410.93  1438.99  1442.06
                             1471.11  1497.78  1543.26  1562.81  1583.70
                             1629.97  1660.39  1667.19  1673.05  1688.39
                             1716.08  1749.86  1775.80  1808.41  1824.59
                             1867.38  1878.22  1932.94  1946.64  1975.64
                             1983.83  1993.52  2010.15  2018.20  2034.18
                             2042.17  2049.53  2081.79  2136.25  2155.04
                             2160.20  2165.80  2172.28  2176.99  2186.14
                             2190.36  2198.39  2205.01  2262.73  2370.71
                             2400.24  4321.87  4343.51  4346.64  4357.54
                             4367.15  4368.46  4383.28  4414.14  4428.55
                             4430.96  4446.02  4459.20  4474.40  4495.77
                             4554.34  4578.63  4591.69  4650.43  5045.60

 Zero-point correction=                           0.315758 (Hartree/Particle)
 Thermal correction to Energy=                    0.332419
 Thermal correction to Enthalpy=                  0.333363
 Thermal correction to Gibbs Free Energy=         0.271184
 Sum of electronic and zero-point Energies=          -1148.053113
 Sum of electronic and thermal Energies=             -1148.036452
 Sum of electronic and thermal Enthalpies=           -1148.035508
 Sum of electronic and thermal Free Energies=        -1148.097687

                     E (Thermal)             CV                S
                      KCal/Mol        Cal/Mol-Kelvin    Cal/Mol-Kelvin
 Total                  208.596             64.676            130.867
 Electronic               0.000              0.000              0.000
 Translational            0.889              2.981             42.624
 Rotational               0.889              2.981             33.199
 Vibrational            206.819             58.714             55.044
 Vibration     1          0.594              1.982              5.394
 Vibration     2          0.595              1.978              4.862
 Vibration     3          0.600              1.961              3.842
 Vibration     4          0.601              1.959              3.751
 Vibration     5          0.603              1.953              3.563
 Vibration     6          0.608              1.937              3.179
 Vibration     7          0.617              1.908              2.730
 Vibration     8          0.624              1.884              2.475
 Vibration     9          0.629              1.867              2.329
 Vibration    10          0.631              1.862              2.289
 Vibration    11          0.638              1.839              2.126
 Vibration    12          0.658              1.777              1.792
 Vibration    13          0.678              1.717              1.557
 Vibration    14          0.695              1.667              1.398
 Vibration    15          0.707              1.631              1.299
 Vibration    16          0.739              1.541              1.095
 Vibration    17          0.749              1.516              1.044
 Vibration    18          0.781              1.431              0.899
 Vibration    19          0.792              1.403              0.856
 Vibration    20          0.813              1.350              0.781
 Vibration    21          0.832              1.306              0.724
 Vibration    22          0.860              1.239              0.646
 Vibration    23          0.881              1.193              0.597
 Vibration    24          0.905              1.141              0.546

 Optimization completed.
    -- Stationary point found.
 Normal termination of Gaussian 16 at Fri Dec 11 21:37:40 2020.

 ----------------------------------------------------------------------
 # B3LYP/6-311++G(d,p) empiricaldispersion=gd3bj scf=xqc pop=npa geom=c
 heck
 ----------------------------------------------------------------------

 ---------------------------------------
 CID_117417936_JID_8779_Energie_neutraal
 ---------------------------------------
 Structure from the checkpoint file:  "JID_8779.chk"
 Charge =  0 Multiplicity = 1

 SCF Done:  E(RB3LYP) =  -1148.59731183     A.U. after   15 cycles
 Normal termination of Gaussian 16 at Fri Dec 11 21:47:48 2020.

 ----------------------------------------------------------------------
 # B3LYP/6-311++G(d,p) empiricaldispersion=gd3bj scf=xqc pop=npa geom=c
 heck
 ----------------------------------------------------------------------

 -------------------------------------
 CID_117417936_JID_8779_Energie_kation
 -------------------------------------
 Structure from the checkpoint file:  "JID_8779.chk"
 Charge =  1 Multiplicity = 2

 SCF Done:  E(UB3LYP) =  -1148.32930028     A.U. after   28 cycles
 Normal termination of Gaussian 16 at Fri Dec 11 22:14:44 2020.
 Gaussian 16:  ES64L-G16RevA.03 25-Dec-2016

 ----------------------------------------------------------------------
 # B3LYP/6-311++G(d,p) empiricaldispersion=gd3bj scf=xqc pop=npa geom=c
 heck
 ----------------------------------------------------------------------

 ------------------------------------
 CID_117417936_JID_8779_Energie_anion
 ------------------------------------
 Structure from the checkpoint file:  "JID_8779.chk"
 Charge = -1 Multiplicity = 2

                         Standard orientation:
 ---------------------------------------------------------------------
 Center     Atomic      Atomic             Coordinates (Angstroms)
 Number     Number       Type             X           Y           Z
 ---------------------------------------------------------------------
      1          6           0        0.982864    2.816873    0.919501
      2         16           0        0.731737    2.287329   -0.816176
      3          6           0        0.799787    0.507928   -0.668317
      4          6           0       -0.224792   -0.348161   -1.161807
      5          6           0       -0.034813   -1.734976   -1.113128
      6          6           0        1.098088   -2.340129   -0.544009
      7          6           0        2.060604   -1.488480   -0.045031
      8          6           0        1.920600   -0.107328   -0.127589
      9          8           0        3.030907    0.498410    0.413472
     10          6           0        3.959697   -0.561475    0.678943
     11          8           0        3.256475   -1.801163    0.560130
     12          6           0       -1.511510    0.192740   -1.751507
     13          6           0       -2.761030    0.281700   -0.831501
     14          6           0       -2.615515    1.234155    0.376309
     15          6           0       -1.950980    0.581651    1.598670
     16          6           0       -2.643079   -0.743641    1.943688
     17          7           0       -2.684322   -1.681693    0.820823
     18          6           0       -3.313591   -1.085536   -0.359356
     19          1           0        0.152754    2.490543    1.548867
     20          1           0        1.012751    3.909368    0.897827
     21          1           0        1.928383    2.435366    1.306782
     22          1           0       -0.803622   -2.374723   -1.537189
     23          1           0        1.217097   -3.416958   -0.509768
     24          1           0        4.771226   -0.524658   -0.060605
     25          1           0        4.346652   -0.457168    1.695725
     26          1           0       -1.333527    1.191841   -2.158138
     27          1           0       -1.785057   -0.443915   -2.602857
     28          1           0       -3.532205    0.712621   -1.486863
     29          1           0       -2.074452    2.137738    0.075940
     30          1           0       -3.624837    1.554230    0.673664
     31          1           0       -0.892447    0.382160    1.398949
     32          1           0       -1.992098    1.268083    2.455869
     33          1           0       -2.145998   -1.236065    2.787646
     34          1           0       -3.680462   -0.547981    2.253240
     35          1           0       -1.729505   -1.948572    0.591101
     36          1           0       -4.377734   -0.952789   -0.116448
     37          1           0       -3.271487   -1.814433   -1.178694
 ---------------------------------------------------------------------

 SCF Done:  E(UB3LYP) =  -1148.58687294     A.U. after   33 cycles
 SCF Done:  E(UB3LYP) =  -1148.58687294     a.u. after    1 cycles

 The electronic state is 2-A.
 Alpha  occ. eigenvalues --  -88.73428 -19.06642 -19.06398 -14.19470 -10.18706
 Alpha  occ. eigenvalues --  -10.12919 -10.12709 -10.09694 -10.09513 -10.09037
 Alpha  occ. eigenvalues --  -10.08185 -10.07964 -10.07469 -10.07377 -10.07207
 Alpha  occ. eigenvalues --  -10.07055 -10.06517 -10.05889  -7.81988  -5.78395
 Alpha  occ. eigenvalues --   -5.78023  -5.77362  -1.02741  -0.93616  -0.81297
 Alpha  occ. eigenvalues --   -0.76635  -0.70639  -0.68865  -0.67165  -0.65520
 Alpha  occ. eigenvalues --   -0.63429  -0.60021  -0.56379  -0.54615  -0.53897
 Alpha  occ. eigenvalues --   -0.52330  -0.50043  -0.49053  -0.45522  -0.42338
 Alpha  occ. eigenvalues --   -0.41892  -0.40917  -0.39402  -0.38632  -0.36306
 Alpha  occ. eigenvalues --   -0.35731  -0.34613  -0.33822  -0.33275  -0.31997
 Alpha  occ. eigenvalues --   -0.31404  -0.30699  -0.30531  -0.29334  -0.29175
 Alpha  occ. eigenvalues --   -0.28373  -0.28169  -0.26757  -0.26669  -0.26042
 Alpha  occ. eigenvalues --   -0.25494  -0.24939  -0.24493  -0.23251  -0.21745
 Alpha  occ. eigenvalues --   -0.21107  -0.19945  -0.15817  -0.12742  -0.11038
 Alpha  occ. eigenvalues --   -0.10733   0.04505
 Alpha virt. eigenvalues --    0.06348   0.06992   0.07604   0.08054   0.08431
 Alpha virt. eigenvalues --    0.09036   0.09318   0.09705   0.09804   0.10552
 Alpha virt. eigenvalues --    0.10788   0.11423   0.11886   0.12241   0.12698

  Beta  occ. eigenvalues --  -88.73420 -19.06644 -19.06379 -14.19471 -10.18666
  Beta  occ. eigenvalues --  -10.12928 -10.12634 -10.09694 -10.09412 -10.09030
  Beta  occ. eigenvalues --  -10.08174 -10.07963 -10.07376 -10.07356 -10.07085
  Beta  occ. eigenvalues --  -10.07029 -10.06511 -10.05871  -7.81981  -5.78367
  Beta  occ. eigenvalues --   -5.78021  -5.77356  -1.02705  -0.93590  -0.81293
  Beta  occ. eigenvalues --   -0.76493  -0.70597  -0.68687  -0.67113  -0.65468
  Beta  occ. eigenvalues --   -0.63256  -0.59955  -0.56307  -0.54425  -0.53879
  Beta  occ. eigenvalues --   -0.52300  -0.49993  -0.48935  -0.45494  -0.42267
  Beta  occ. eigenvalues --   -0.41814  -0.40848  -0.39377  -0.38570  -0.36260
  Beta  occ. eigenvalues --   -0.35702  -0.34581  -0.33777  -0.33151  -0.31961
  Beta  occ. eigenvalues --   -0.31328  -0.30640  -0.30347  -0.29279  -0.29055
  Beta  occ. eigenvalues --   -0.28324  -0.28100  -0.26691  -0.26645  -0.26004
  Beta  occ. eigenvalues --   -0.25358  -0.24910  -0.24464  -0.23177  -0.21685
  Beta  occ. eigenvalues --   -0.20981  -0.19760  -0.15408  -0.12678  -0.10819
  Beta  occ. eigenvalues --   -0.10500
  Beta virt. eigenvalues --    0.06285   0.07213   0.07553   0.08168   0.08307
  Beta virt. eigenvalues --    0.09075   0.09436   0.09592   0.09830   0.09973
  Beta virt. eigenvalues --    0.10768   0.11063   0.11463   0.12052   0.12259

 Mulliken charges and spin densities:
               1          2
     1  C    0.510871  -1.190885
     2  S   -0.291357   0.092977
     3  C    0.352741   0.169595
     4  C    1.189166  -0.193561
     5  C   -0.741334   0.254645
     6  C   -0.755443   0.487813
     7  C    0.059217  -0.200120
     8  C   -0.154380   0.031969
     9  O   -0.184372   0.071964
    10  C    1.238122  -1.285999
    11  O   -0.176541   0.038558
    12  C   -1.029798  -0.005343
    13  C    0.480073   0.116887
    14  C   -0.378622  -0.151183
    15  C   -0.173732   0.046726
    16  C   -0.212962  -0.453255
    17  N   -0.130706   0.016938
    18  C   -0.561070  -0.149506
    19  H   -0.378618   0.523244
    20  H   -0.484543   0.646707
    21  H   -0.186272   0.400887
    22  H    0.108422   0.033562
    23  H    0.061391   0.098084
    24  H   -0.245205   0.431522
    25  H   -0.540304   0.728355
    26  H    0.129283   0.024043
    27  H    0.131205   0.007520
    28  H    0.174847   0.006004
    29  H    0.190317  -0.038186
    30  H   -0.001489   0.145850
    31  H    0.715380  -0.510435
    32  H   -0.298322   0.471087
    33  H   -0.109038   0.294468
    34  H    0.116763   0.018507
    35  H    0.310695  -0.005890
    36  H    0.103614   0.027491
    37  H    0.162001  -0.001043
 Sum of Mulliken charges =  -1.00000   1.00000

 Dipole moment (field-independent basis, Debye):
    X=             -5.2206    Y=             -3.6660    Z=             -5.0354  Tot=              8.1271
 Quadrupole moment (field-independent basis, Debye-Ang):
   XX=           -175.6411   YY=           -166.2255   ZZ=           -152.0922
   XY=             -6.5766   XZ=             -1.6238   YZ=             -3.9027

 Summary of Natural Population Analysis:

                                       Natural Population
                Natural  -----------------------------------------------
    Atom  No    Charge         Core      Valence    Rydberg      Total
 -----------------------------------------------------------------------
      C    1   -0.33974      0.99961     2.33363    0.00650     3.33974
      S    2    0.10842      4.99957     2.87273    0.01928     7.89158
      C    3   -0.09587      0.99931     2.08354    0.01302     3.09587
      C    4   -0.02253      0.99946     2.01198    0.01108     3.02253
      C    5   -0.11682      0.99953     2.10937    0.00793     3.11682
      C    6   -0.10278      0.99952     2.09378    0.00948     3.10278
      C    7    0.12936      0.99931     1.85779    0.01354     2.87064
      C    8    0.14317      0.99925     1.84350    0.01408     2.85683
      O    9   -0.26844      0.99987     3.26048    0.00809     4.26844
      C   10    0.15805      0.99962     1.82692    0.01541     2.84195
      O   11   -0.27436      0.99987     3.26695    0.00754     4.27436
      C   12   -0.19575      0.99958     2.18693    0.00924     3.19575
      C   13   -0.10933      0.99958     2.10156    0.00819     3.10933
      C   14   -0.19565      0.99961     2.18584    0.01020     3.19565
      C   15   -0.20605      0.99962     2.19765    0.00877     3.20605
      C   16   -0.08671      0.99963     2.07508    0.01200     3.08671
      N   17   -0.34636      0.99976     2.83396    0.01264     3.84636
      C   18   -0.08858      0.99961     2.07778    0.01119     3.08858
      H   19    0.10156      0.00000     0.39627    0.00217     0.39844
      H   20    0.10547      0.00000     0.39257    0.00195     0.39453
      H   21    0.11036      0.00000     0.38711    0.00253     0.38964
      H   22    0.09699      0.00000     0.40164    0.00136     0.40301
      H   23    0.10363      0.00000     0.39550    0.00087     0.39637
      H   24    0.07206      0.00000     0.42575    0.00219     0.42794
      H   25    0.08319      0.00000     0.41405    0.00275     0.41681
      H   26    0.10928      0.00000     0.38944    0.00128     0.39072
      H   27    0.09700      0.00000     0.40194    0.00106     0.40300
      H   28    0.09245      0.00000     0.40598    0.00156     0.40755
      H   29    0.10789      0.00000     0.39068    0.00143     0.39211
      H   30    0.09172      0.00000     0.40706    0.00123     0.40828
      H   31    0.10192      0.00000     0.39559    0.00249     0.39808
      H   32    0.09846      0.00000     0.40018    0.00136     0.40154
      H   33    0.09518      0.00000     0.40390    0.00093     0.40482
      H   34    0.08344      0.00000     0.41547    0.00109     0.41656
      H   35    0.17926      0.00000     0.31712    0.00363     0.32074
      H   36    0.08843      0.00000     0.41047    0.00110     0.41157
      H   37    0.09167      0.00000     0.40737    0.00096     0.40833
 =======================================================================
   * Total *    0.00000     21.99232    48.77754    0.23015    71.00000

 Normal termination of Gaussian 16 at Fri Dec 11 22:45:42 2020.
