 Gaussian 16, Revision A.03,

 -----------------------------------------------------------
 # opt freq B3LYP/6-31G(d) empiricaldispersion=gd3bj scf=xqc
 -----------------------------------------------------------

 -------------------------------
 CID_131524554_JID_4008_neutraal
 -------------------------------
 Symbolic Z-matrix:
 Charge =  0 Multiplicity = 1

 SCF Done:  E(RB3LYP) =  -717.387822378     A.U. after   15 cycles
 SCF Done:  E(RB3LYP) =  -717.396777907     A.U. after   15 cycles
 SCF Done:  E(RB3LYP) =  -717.391746555     A.U. after   16 cycles
 SCF Done:  E(RB3LYP) =  -717.403406214     A.U. after   15 cycles
 SCF Done:  E(RB3LYP) =  -717.405896108     A.U. after   16 cycles
 SCF Done:  E(RB3LYP) =  -717.406431976     A.U. after   14 cycles
 SCF Done:  E(RB3LYP) =  -717.406928573     A.U. after   13 cycles
 SCF Done:  E(RB3LYP) =  -717.407101803     A.U. after   12 cycles
 SCF Done:  E(RB3LYP) =  -717.407204816     A.U. after   11 cycles
 SCF Done:  E(RB3LYP) =  -717.407292075     A.U. after   12 cycles
 SCF Done:  E(RB3LYP) =  -717.407500439     A.U. after    9 cycles
 SCF Done:  E(RB3LYP) =  -717.407500858     A.U. after    9 cycles
 SCF Done:  E(RB3LYP) =  -717.407501327     A.U. after   10 cycles
 SCF Done:  E(RB3LYP) =  -717.407501529     A.U. after    9 cycles
 SCF Done:  E(RB3LYP) =  -717.407501661     A.U. after    9 cycles
 SCF Done:  E(RB3LYP) =  -717.407501692     A.U. after    8 cycles
 Optimization completed.
    -- Stationary point found.
 Normal termination of Gaussian 16 at Thu Dec 10 09:19:01 2020.

 --------------------------------------------------------------------
 #N Geom=AllCheck Guess=TCheck SCRF=Check GenChk RB3LYP/6-31G(d) Freq
 --------------------------------------------------------------------

 Structure from the checkpoint file:  "JID_4008.chk"
 -------------------------------
 CID_131524554_JID_4008_neutraal
 -------------------------------
 Charge =  0 Multiplicity = 1

 SCF Done:  E(RB3LYP) =  -717.407501692     A.U. after    1 cycles

  Exact polarizability: 157.515  -3.558 137.438  -0.001   0.004  56.892
 Approx polarizability: 244.385   5.132 232.088  -0.010   0.024  86.438

                      1                      2                      3
                      A                      A                      A
 Frequencies --     23.1489                57.7321               113.2873
 Red. masses --      6.1307                 5.6224                 3.1696
 Frc consts  --      0.0019                 0.0110                 0.0240
 IR Inten    --      0.1686                 0.4845                 7.1528

                      4                      5                      6
                      A                      A                      A
 Frequencies --    116.0385               132.2124               170.5463
 Red. masses --      1.1413                 2.5961                 3.1508
 Frc consts  --      0.0091                 0.0267                 0.0540
 IR Inten    --      0.1666                 0.2156                 0.3998

                      7                      8                      9
                      A                      A                      A
 Frequencies --    174.0202               219.9705               242.2299
 Red. masses --      1.2561                 4.3866                 3.0520
 Frc consts  --      0.0224                 0.1251                 0.1055
 IR Inten    --      0.1710                 0.0664                 2.1092

                     10                     11                     12
                      A                      A                      A
 Frequencies --    246.2928               264.0536               304.7719
 Red. masses --      3.8753                 1.1694                 6.3004
 Frc consts  --      0.1385                 0.0480                 0.3448
 IR Inten    --      5.1804                 2.4230                 9.0464

                     13                     14                     15
                      A                      A                      A
 Frequencies --    306.1192               353.9071               393.7428
 Red. masses --      9.1600                 3.3791                 6.6864
 Frc consts  --      0.5057                 0.2494                 0.6108
 IR Inten    --      7.3125                 2.9253                 1.6459

                     16                     17                     18
                      A                      A                      A
 Frequencies --    411.5483               491.1360               554.6518
 Red. masses --      6.4767                 4.8793                 8.5844
 Frc consts  --      0.6463                 0.6934                 1.5560
 IR Inten    --      7.2186                 4.7606                 0.7815

                     19                     20                     21
                      A                      A                      A
 Frequencies --    602.8840               629.3345               631.7166
 Red. masses --      3.7381                 5.6109                 1.0963
 Frc consts  --      0.8005                 1.3093                 0.2578
 IR Inten    --      1.0404                 5.8034                76.2847

                     22                     23                     24
                      A                      A                      A
 Frequencies --    660.6800               717.1959               739.2237
 Red. masses --      4.8540                10.1327                 5.3782
 Frc consts  --      1.2483                 3.0708                 1.7316
 IR Inten    --      9.8110                 0.8234                 6.6928

                     25                     26                     27
                      A                      A                      A
 Frequencies --    761.9444               797.3853               861.6459
 Red. masses --     12.1152                11.1352                12.3119
 Frc consts  --      4.1441                 4.1714                 5.3856
 IR Inten    --      2.6287                34.6897                19.5192

                     28                     29                     30
                      A                      A                      A
 Frequencies --    977.7717              1011.8111              1044.5755
 Red. masses --      5.3788                 2.8683                 2.2842
 Frc consts  --      3.0298                 1.7301                 1.4685
 IR Inten    --     11.1443                18.6616                17.8843

                     31                     32                     33
                      A                      A                      A
 Frequencies --   1066.6092              1108.9843              1141.4624
 Red. masses --      1.5983                 4.6834                 4.4006
 Frc consts  --      1.0713                 3.3936                 3.3782
 IR Inten    --      2.7322                10.0864               124.6669

                     34                     35                     36
                      A                      A                      A
 Frequencies --   1162.7984              1186.1040              1187.6112
 Red. masses --      1.2748                 1.2682                 1.7720
 Frc consts  --      1.0156                 1.0512                 1.4725
 IR Inten    --      0.1669                 0.5884                 0.1357

                     37                     38                     39
                      A                      A                      A
 Frequencies --   1194.3913              1253.4458              1303.7406
 Red. masses --      2.3731                 2.4195                 3.4833
 Frc consts  --      1.9946                 2.2397                 3.4884
 IR Inten    --      0.5086                26.3861               292.3681

                     40                     41                     42
                      A                      A                      A
 Frequencies --   1328.0224              1397.7045              1417.1106
 Red. masses --      7.7099                 4.0094                 2.3487
 Frc consts  --      8.0114                 4.6149                 2.7789
 IR Inten    --    345.5970               186.7323               212.5651

                     43                     44                     45
                      A                      A                      A
 Frequencies --   1439.4435              1455.1474              1474.1344
 Red. masses --      1.6346                 1.9168                 1.2545
 Frc consts  --      1.9955                 2.3914                 1.6062
 IR Inten    --     11.4476                30.6221                68.0330

                     46                     47                     48
                      A                      A                      A
 Frequencies --   1500.3290              1504.6261              1506.2719
 Red. masses --      1.4112                 1.0469                 1.0425
 Frc consts  --      1.8716                 1.3965                 1.3936
 IR Inten    --     66.9242                 7.9916                 3.3572

                     49                     50                     51
                      A                      A                      A
 Frequencies --   1512.1460              1517.9329              1523.9067
 Red. masses --      1.0481                 1.5219                 1.2138
 Frc consts  --      1.4121                 2.0661                 1.6608
 IR Inten    --     10.2961                84.1129                 1.2504

                     52                     53                     54
                      A                      A                      A
 Frequencies --   1534.6996              1577.6919              1594.6131
 Red. masses --      1.1208                 4.2966                 7.5087
 Frc consts  --      1.5554                 6.3012                11.2492
 IR Inten    --     29.0571                69.9442               386.3278

                     55                     56                     57
                      A                      A                      A
 Frequencies --   1629.7049              1658.2242              3063.2591
 Red. masses --      4.5495                 4.6383                 1.0334
 Frc consts  --      7.1192                 7.5144                 5.7135
 IR Inten    --    338.2502               781.8286                40.1775

                     58                     59                     60
                      A                      A                      A
 Frequencies --   3071.9216              3080.7829              3121.1262
 Red. masses --      1.0299                 1.0351                 1.1050
 Frc consts  --      5.7262                 5.7881                 6.3423
 IR Inten    --     40.6232                 1.9348                19.9355

                     61                     62                     63
                      A                      A                      A
 Frequencies --   3143.5336              3144.9318              3161.9477
 Red. masses --      1.0992                 1.1073                 1.1039
 Frc consts  --      6.3996                 6.4526                 6.5026
 IR Inten    --      3.4618                23.0127                17.6391

                     64                     65                     66
                      A                      A                      A
 Frequencies --   3176.0091              3180.8905              3560.3781
 Red. masses --      1.1059                 1.1066                 1.0779
 Frc consts  --      6.5723                 6.5967                 8.0504
 IR Inten    --     11.3727                23.7897               124.4653

 - Thermochemistry -
 -------------------
 Temperature   298.150 Kelvin.  Pressure   1.00000 Atm.
 Atom     1 has atomic number  6 and mass  12.00000

 Molecular mass:   198.07529 amu.
 Principal axes and moments of inertia in atomic units:
                           1         2         3
     Eigenvalues --  1809.155693082.745884858.23930
           X            0.99800  -0.06321   0.00001
           Y            0.06321   0.99800  -0.00001
           Z           -0.00001   0.00001   1.00000
 This molecule is an asymmetric top.
 Rotational symmetry number  1.
 Warning -- assumption of classical behavior for rotation
           may cause significant error
 Rotational temperatures (Kelvin)      0.04788     0.02810     0.01783
 Rotational constants (GHZ):           0.99756     0.58543     0.37148
 Zero-point vibrational energy     489830.2 (Joules/Mol)
                                  117.07223 (Kcal/Mol)
 Warning -- explicit consideration of  19 degrees of freedom as
           vibrations may cause significant error
 Vibrational temperatures:     33.31    83.06   163.00   166.95   190.22
          (Kelvin)            245.38   250.38   316.49   348.51   354.36
                              379.91   438.50   440.44   509.19   566.51
                              592.13   706.64   798.02   867.42   905.47
                              908.90   950.57  1031.88  1063.58  1096.27
                             1147.26  1239.72  1406.80  1455.77  1502.91
                             1534.61  1595.58  1642.31  1673.01  1706.54
                             1708.71  1718.46  1803.43  1875.79  1910.73
                             2010.98  2038.91  2071.04  2093.63  2120.95
                             2158.64  2164.82  2167.19  2175.64  2183.97
                             2192.56  2208.09  2269.95  2294.29  2344.78
                             2385.81  4407.35  4419.81  4432.56  4490.60
                             4522.84  4524.86  4549.34  4569.57  4576.59
                             5122.59

 Zero-point correction=                           0.186566 (Hartree/Particle)
 Thermal correction to Energy=                    0.199986
 Thermal correction to Enthalpy=                  0.200930
 Thermal correction to Gibbs Free Energy=         0.145690
 Sum of electronic and zero-point Energies=           -717.220935
 Sum of electronic and thermal Energies=              -717.207516
 Sum of electronic and thermal Enthalpies=            -717.206572
 Sum of electronic and thermal Free Energies=         -717.261812

                     E (Thermal)             CV                S
                      KCal/Mol        Cal/Mol-Kelvin    Cal/Mol-Kelvin
 Total                  125.493             48.546            116.262
 Electronic               0.000              0.000              0.000
 Translational            0.889              2.981             41.755
 Rotational               0.889              2.981             31.672
 Vibrational            123.715             42.585             42.834
 Vibration     1          0.593              1.985              6.344
 Vibration     2          0.596              1.974              4.533
 Vibration     3          0.607              1.938              3.212
 Vibration     4          0.608              1.936              3.165
 Vibration     5          0.612              1.921              2.914
 Vibration     6          0.626              1.879              2.429
 Vibration     7          0.627              1.874              2.392
 Vibration     8          0.647              1.811              1.959
 Vibration     9          0.658              1.776              1.786
 Vibration    10          0.661              1.769              1.757
 Vibration    11          0.671              1.739              1.635
 Vibration    12          0.696              1.665              1.391
 Vibration    13          0.697              1.662              1.383
 Vibration    14          0.730              1.567              1.149
 Vibration    15          0.761              1.484              0.986
 Vibration    16          0.776              1.445              0.921
 Vibration    17          0.847              1.270              0.681
 Vibration    18          0.910              1.130              0.535
 Vibration    19          0.961              1.026              0.445

                           ! Non-Optimized Parameters !
 Normal termination of Gaussian 16 at Thu Dec 10 09:24:47 2020.

 ----------------------------------------------------------------------
 # B3LYP/6-311++G(d,p) empiricaldispersion=gd3bj scf=xqc pop=npa geom=c
 heck
 ----------------------------------------------------------------------

 ---------------------------------------
 CID_131524554_JID_4008_Energie_neutraal
 ---------------------------------------
 Structure from the checkpoint file:  "JID_4008.chk"
 Charge =  0 Multiplicity = 1

 SCF Done:  E(RB3LYP) =  -717.612037278     A.U. after   15 cycles
 Normal termination of Gaussian 16 at Thu Dec 10 09:26:42 2020.

 ----------------------------------------------------------------------
 # B3LYP/6-311++G(d,p) empiricaldispersion=gd3bj scf=xqc pop=npa geom=c
 heck
 ----------------------------------------------------------------------

 -------------------------------------
 CID_131524554_JID_4008_Energie_kation
 -------------------------------------
 Structure from the checkpoint file:  "JID_4008.chk"
 Charge =  1 Multiplicity = 2

 SCF Done:  E(UB3LYP) =  -717.289365271     A.U. after   27 cycles
 Normal termination of Gaussian 16 at Thu Dec 10 09:31:21 2020.
 Gaussian 16:  ES64L-G16RevA.03 25-Dec-2016

 ----------------------------------------------------------------------
 # B3LYP/6-311++G(d,p) empiricaldispersion=gd3bj scf=xqc pop=npa geom=c
 heck
 ----------------------------------------------------------------------

 ------------------------------------
 CID_131524554_JID_4008_Energie_anion
 ------------------------------------
 Structure from the checkpoint file:  "JID_4008.chk"
 Charge = -1 Multiplicity = 2

                         Standard orientation:
 ---------------------------------------------------------------------
 Center     Atomic      Atomic             Coordinates (Angstroms)
 Number     Number       Type             X           Y           Z
 ---------------------------------------------------------------------
      1          6           0        1.589662   -2.643929    0.000433
      2          6           0        0.630129   -1.485675    0.000216
      3          6           0        1.006190   -0.115638    0.000055
      4          6           0       -0.052047    0.860231    0.000114
      5          7           0       -1.338827    0.454553    0.000110
      6          6           0       -1.559071   -0.850574    0.000032
      7          7           0       -0.653318   -1.841750    0.000154
      8          8           0       -2.820257   -1.287609   -0.000214
      9          6           0       -3.859667   -0.302418   -0.000207
     10          7           0        0.146050    2.184513    0.000060
     11          6           0       -0.945793    3.141064   -0.000020
     12          7           0        2.382483    0.284827   -0.000157
     13          8           0        2.656901    1.505270    0.000471
     14          8           0        3.267448   -0.573710   -0.001001
     15          1           0        2.246726   -2.616271    0.873617
     16          1           0        0.998041   -3.560463    0.001085
     17          1           0        2.246009   -2.617153   -0.873325
     18          1           0       -3.794979    0.330180    0.889228
     19          1           0       -3.795434    0.329657   -0.890065
     20          1           0       -4.789689   -0.871472    0.000167
     21          1           0        1.115313    2.480121    0.000472
     22          1           0       -0.514398    4.143744    0.000060
     23          1           0       -1.577620    3.018370   -0.885461
     24          1           0       -1.577828    3.018308    0.885264
 ---------------------------------------------------------------------

 SCF Done:  E(UB3LYP) =  -717.643721539     A.U. after   20 cycles

 The electronic state is 2-A.
 Alpha  occ. eigenvalues --  -19.03200 -18.93245 -18.92890 -14.30866 -14.19861
 Alpha  occ. eigenvalues --  -14.16785 -14.15611 -10.13936 -10.12180 -10.11567
 Alpha  occ. eigenvalues --  -10.09293 -10.07323 -10.06230 -10.02072  -1.01218
 Alpha  occ. eigenvalues --   -0.96598  -0.85418  -0.83660  -0.80296  -0.74110
 Alpha  occ. eigenvalues --   -0.66833  -0.61743  -0.59526  -0.58119  -0.52331
 Alpha  occ. eigenvalues --   -0.48515  -0.45901  -0.42108  -0.40525  -0.36668
 Alpha  occ. eigenvalues --   -0.36562  -0.36213  -0.34683  -0.33657  -0.33152
 Alpha  occ. eigenvalues --   -0.32351  -0.30038  -0.29443  -0.28742  -0.26787
 Alpha  occ. eigenvalues --   -0.25579  -0.24292  -0.23431  -0.22724  -0.19211
 Alpha  occ. eigenvalues --   -0.17832  -0.13887  -0.12726  -0.12228  -0.11528
 Alpha  occ. eigenvalues --   -0.09149  -0.08864   0.03580
 Alpha virt. eigenvalues --    0.07340   0.08647   0.10835   0.11149   0.11171
 Alpha virt. eigenvalues --    0.11888   0.12804   0.13153   0.13700   0.14213
 Alpha virt. eigenvalues --    0.14235   0.14986   0.15267   0.16784   0.17676

  Beta  occ. eigenvalues --  -19.03104 -18.92746 -18.92305 -14.30068 -14.19814
  Beta  occ. eigenvalues --  -14.16838 -14.15736 -10.13635 -10.12082 -10.11571
  Beta  occ. eigenvalues --  -10.09296 -10.06972 -10.06334 -10.02092  -0.99977
  Beta  occ. eigenvalues --   -0.96360  -0.85233  -0.82722  -0.80102  -0.74039
  Beta  occ. eigenvalues --   -0.66472  -0.61534  -0.59374  -0.57877  -0.51972
  Beta  occ. eigenvalues --   -0.48045  -0.45450  -0.41927  -0.40432  -0.36375
  Beta  occ. eigenvalues --   -0.36266  -0.35739  -0.33671  -0.33393  -0.32101
  Beta  occ. eigenvalues --   -0.31272  -0.29547  -0.28546  -0.28262  -0.26403
  Beta  occ. eigenvalues --   -0.25399  -0.24205  -0.23340  -0.22173  -0.19229
  Beta  occ. eigenvalues --   -0.17308  -0.13350  -0.12202  -0.11137  -0.09393
  Beta  occ. eigenvalues --   -0.08376  -0.08338
  Beta virt. eigenvalues --    0.07334   0.08641   0.10843   0.11142   0.11187
  Beta virt. eigenvalues --    0.11234   0.12815   0.12849   0.13162   0.13739
  Beta virt. eigenvalues --    0.14241   0.14669   0.14995   0.16795   0.17463

 Mulliken charges and spin densities:
               1          2
     1  C   -0.315472  -0.007329
     2  C    0.550313   0.231532
     3  C   -0.517715  -0.067825
     4  C   -0.163666   0.053029
     5  N   -0.279781  -0.027853
     6  C   -0.023032   0.162240
     7  N   -0.262618  -0.070307
     8  O   -0.129163   0.019823
     9  C   -0.212392  -0.001955
    10  N   -0.220284   0.020597
    11  C   -0.324343  -0.001891
    12  N   -0.373830   0.250637
    13  O   -0.207718   0.189585
    14  O   -0.211257   0.224348
    15  H    0.172760   0.008428
    16  H    0.123022   0.000201
    17  H    0.172805   0.008434
    18  H    0.154236   0.002841
    19  H    0.154183   0.002845
    20  H    0.132114  -0.000213
    21  H    0.357842  -0.004239
    22  H    0.115032  -0.000152
    23  H    0.154488   0.003607
    24  H    0.154476   0.003618
 Sum of Mulliken charges =  -1.00000   1.00000

 Dipole moment (field-independent basis, Debye):
    X=             -7.8610    Y=              2.6546    Z=              0.0012  Tot=              8.2971
 Quadrupole moment (field-independent basis, Debye-Ang):
   XX=           -123.6314   YY=            -98.5071   ZZ=            -85.7300
   XY=             -9.4585   XZ=              0.0054   YZ=             -0.0019

 Summary of Natural Population Analysis:

                                       Natural Population
                Natural  -----------------------------------------------
    Atom  No    Charge         Core      Valence    Rydberg      Total
 -----------------------------------------------------------------------
      C    1   -0.30270      0.99963     2.29793    0.00514     3.30270
      C    2    0.19938      0.99957     1.78748    0.01357     2.80062
      C    3   -0.04782      0.99938     2.03890    0.00955     3.04782
      C    4    0.23901      0.99956     1.74683    0.01460     2.76099
      N    5   -0.33324      0.99964     2.82372    0.00988     3.83324
      C    6    0.41647      0.99956     1.56551    0.01846     2.58353
      N    7   -0.30949      0.99964     2.79954    0.01030     3.80949
      O    8   -0.26223      0.99984     3.25195    0.01044     4.26223
      C    9   -0.10186      0.99961     2.09391    0.00835     3.10186
      N   10   -0.30106      0.99963     2.79164    0.00979     3.80106
      C   11   -0.17731      0.99967     2.17123    0.00641     3.17731
      N   12    0.32486      0.99970     2.14951    0.02592     3.17514
      O   13   -0.23090      0.99989     3.22225    0.00875     4.23090
      O   14   -0.18371      0.99990     3.17550    0.00831     4.18371
      H   15    0.11348      0.00000     0.38530    0.00122     0.38652
      H   16    0.09526      0.00000     0.40319    0.00155     0.40474
      H   17    0.11349      0.00000     0.38529    0.00122     0.38651
      H   18    0.08688      0.00000     0.41188    0.00124     0.41312
      H   19    0.08686      0.00000     0.41189    0.00124     0.41314
      H   20    0.08218      0.00000     0.41695    0.00087     0.41782
      H   21    0.21873      0.00000     0.27940    0.00187     0.28127
      H   22    0.08971      0.00000     0.40960    0.00069     0.41029
      H   23    0.09200      0.00000     0.40670    0.00130     0.40800
      H   24    0.09200      0.00000     0.40670    0.00130     0.40800
 =======================================================================
   * Total *   -0.00000     13.99522    37.83278    0.17200    52.00000

 Normal termination of Gaussian 16 at Thu Dec 10 09:34:51 2020.
