 Gaussian 16, Revision A.03,

 -----------------------------------------------------------
 # opt freq B3LYP/6-31G(d) empiricaldispersion=gd3bj scf=xqc
 -----------------------------------------------------------

 ------------------------------
 CID_71366138_JID_1141_neutraal
 ------------------------------
 Symbolic Z-matrix:
 Charge =  0 Multiplicity = 1

 SCF Done:  E(RB3LYP) =  -481.973860691     A.U. after   15 cycles
 SCF Done:  E(RB3LYP) =  -481.977568126     A.U. after   13 cycles
 SCF Done:  E(RB3LYP) =  -481.977436486     A.U. after   13 cycles
 SCF Done:  E(RB3LYP) =  -481.978714592     A.U. after   13 cycles
 SCF Done:  E(RB3LYP) =  -481.980978538     A.U. after   15 cycles
 SCF Done:  E(RB3LYP) =  -481.944233808     A.U. after   15 cycles
 SCF Done:  E(RB3LYP) =  -481.985307024     A.U. after   14 cycles
 SCF Done:  E(RB3LYP) =  -481.986296783     A.U. after   13 cycles
 SCF Done:  E(RB3LYP) =  -481.989788321     A.U. after   14 cycles
 SCF Done:  E(RB3LYP) =  -481.991113755     A.U. after   12 cycles
 SCF Done:  E(RB3LYP) =  -481.993512768     A.U. after   10 cycles
 SCF Done:  E(RB3LYP) =  -481.993516216     A.U. after    9 cycles
 SCF Done:  E(RB3LYP) =  -481.993516913     A.U. after    8 cycles
 SCF Done:  E(RB3LYP) =  -481.993517093     A.U. after    7 cycles
 SCF Done:  E(RB3LYP) =  -481.993517129     A.U. after    6 cycles
 Optimization completed.
    -- Stationary point found.
 Normal termination of Gaussian 16 at Tue Dec  8 19:20:13 2020.

 --------------------------------------------------------------------
 #N Geom=AllCheck Guess=TCheck SCRF=Check GenChk RB3LYP/6-31G(d) Freq
 --------------------------------------------------------------------

 Structure from the checkpoint file:  "JID_1141.chk"
 ------------------------------
 CID_71366138_JID_1141_neutraal
 ------------------------------
 Charge =  0 Multiplicity = 1

 SCF Done:  E(RB3LYP) =  -481.993517129     A.U. after    1 cycles

  Exact polarizability: 150.360   3.676 102.576  -3.555   1.590  73.604
 Approx polarizability: 194.696   9.666 155.886  -7.007   9.203 112.075

                      1                      2                      3
                      A                      A                      A
 Frequencies --     59.1635                70.1896                83.2280
 Red. masses --      2.8403                 3.1016                 3.1738
 Frc consts  --      0.0059                 0.0090                 0.0130
 IR Inten    --      0.7232                 2.0540                 0.6014

                      4                      5                      6
                      A                      A                      A
 Frequencies --    130.1533               167.2112               200.5098
 Red. masses --      1.0493                 2.3566                 3.1514
 Frc consts  --      0.0105                 0.0388                 0.0746
 IR Inten    --      0.1670                 2.8300                 3.5061

                      7                      8                      9
                      A                      A                      A
 Frequencies --    215.9619               232.6074               257.1986
 Red. masses --      1.3233                 3.7738                 1.6764
 Frc consts  --      0.0364                 0.1203                 0.0653
 IR Inten    --      0.9941                 8.3847                 0.1785

                     10                     11                     12
                      A                      A                      A
 Frequencies --    305.0328               333.2323               349.8127
 Red. masses --      3.1244                 2.8270                 3.5855
 Frc consts  --      0.1713                 0.1850                 0.2585
 IR Inten    --      0.1575                 4.2530                 1.1972

                     13                     14                     15
                      A                      A                      A
 Frequencies --    405.9388               522.7325               553.8675
 Red. masses --      2.9344                 3.2397                 4.8116
 Frc consts  --      0.2849                 0.5216                 0.8697
 IR Inten    --     12.3575                 3.8567                 9.5289

                     16                     17                     18
                      A                      A                      A
 Frequencies --    586.4194               628.7099               700.2287
 Red. masses --      1.8429                 2.6216                 3.4146
 Frc consts  --      0.3734                 0.6106                 0.9864
 IR Inten    --      1.2363                20.5065                 2.1087

                     19                     20                     21
                      A                      A                      A
 Frequencies --    743.8902               838.3651               884.2368
 Red. masses --      3.9500                 1.8907                 1.9892
 Frc consts  --      1.2879                 0.7830                 0.9163
 IR Inten    --      4.9902                 1.6511                 3.2997

                     22                     23                     24
                      A                      A                      A
 Frequencies --    893.7913               926.8128               933.0632
 Red. masses --      2.3278                 1.4157                 2.3598
 Frc consts  --      1.0956                 0.7165                 1.2105
 IR Inten    --     11.0075                26.2792                 2.5252

                     25                     26                     27
                      A                      A                      A
 Frequencies --    939.1325               983.6689               994.5470
 Red. masses --      1.4608                 1.7141                 1.5913
 Frc consts  --      0.7591                 0.9772                 0.9274
 IR Inten    --      1.2761                54.6171                26.1856

                     28                     29                     30
                      A                      A                      A
 Frequencies --   1040.5436              1044.3903              1059.4895
 Red. masses --      1.6806                 1.6608                 1.6495
 Frc consts  --      1.0721                 1.0673                 1.0910
 IR Inten    --      1.9499                 7.2902                 6.4489

                     31                     32                     33
                      A                      A                      A
 Frequencies --   1081.3983              1132.8386              1157.0554
 Red. masses --      1.4857                 3.4524                 1.6544
 Frc consts  --      1.0236                 2.6104                 1.3050
 IR Inten    --      2.8118                52.7021                 0.4772

                     34                     35                     36
                      A                      A                      A
 Frequencies --   1190.1445              1203.1447              1216.1035
 Red. masses --      1.7619                 1.4581                 2.0354
 Frc consts  --      1.4704                 1.2436                 1.7736
 IR Inten    --      6.8172                 5.6818                 0.9532

                     37                     38                     39
                      A                      A                      A
 Frequencies --   1254.9509              1269.1631              1288.5297
 Red. masses --      1.7093                 1.5883                 1.5177
 Frc consts  --      1.5860                 1.5073                 1.4846
 IR Inten    --     61.4913                36.3632                43.2576

                     40                     41                     42
                      A                      A                      A
 Frequencies --   1337.2778              1364.2898              1371.2047
 Red. masses --      1.3232                 1.3170                 1.4021
 Frc consts  --      1.3941                 1.4443                 1.5533
 IR Inten    --      1.1109                 3.0768                 3.7956

                     43                     44                     45
                      A                      A                      A
 Frequencies --   1380.3667              1404.8499              1440.5568
 Red. masses --      1.5201                 1.2821                 1.5064
 Frc consts  --      1.7066                 1.4908                 1.8419
 IR Inten    --     45.6895                19.0324               170.1869

                     46                     47                     48
                      A                      A                      A
 Frequencies --   1450.7111              1463.8352              1495.5459
 Red. masses --      1.6853                 2.3833                 1.0645
 Frc consts  --      2.0897                 3.0089                 1.4028
 IR Inten    --     66.0155                30.6113                20.8575

                     49                     50                     51
                      A                      A                      A
 Frequencies --   1502.9598              1519.8063              1521.3094
 Red. masses --      1.0538                 1.0907                 1.0481
 Frc consts  --      1.4025                 1.4844                 1.4292
 IR Inten    --      0.6691                 5.4149                15.4700

                     52                     53                     54
                      A                      A                      A
 Frequencies --   1526.5702              1540.2451              1540.9021
 Red. masses --      1.0948                 1.0951                 1.0790
 Frc consts  --      1.5032                 1.5307                 1.5094
 IR Inten    --      9.8832                 6.9414                 5.9786

                     55                     56                     57
                      A                      A                      A
 Frequencies --   1555.1760              1644.1955              1742.6916
 Red. masses --      1.1044                 4.9395                 7.8963
 Frc consts  --      1.5737                 7.8675                14.1291
 IR Inten    --     29.4306               379.8219               221.1687

                     58                     59                     60
                      A                      A                      A
 Frequencies --   3000.4706              3026.0363              3047.1040
 Red. masses --      1.0710                 1.0390                 1.0384
 Frc consts  --      5.6808                 5.6054                 5.6807
 IR Inten    --     75.0615                54.9711                16.0641

                     61                     62                     63
                      A                      A                      A
 Frequencies --   3057.2917              3067.9629              3069.9067
 Red. masses --      1.0692                 1.0686                 1.0996
 Frc consts  --      5.8882                 5.9258                 6.1055
 IR Inten    --     23.0734                 6.7655                27.6608

                     64                     65                     66
                      A                      A                      A
 Frequencies --   3076.0800              3083.5032              3103.7459
 Red. masses --      1.0645                 1.0876                 1.0992
 Frc consts  --      5.9348                 6.0927                 6.2388
 IR Inten    --     31.0579                51.0084                17.6665

                     67                     68                     69
                      A                      A                      A
 Frequencies --   3105.9497              3116.0137              3119.4762
 Red. masses --      1.0987                 1.0976                 1.0881
 Frc consts  --      6.2450                 6.2788                 6.2387
 IR Inten    --     16.7458                15.1758                43.5113

                     70                     71                     72
                      A                      A                      A
 Frequencies --   3124.7357              3132.8543              3163.0058
 Red. masses --      1.1020                 1.1026                 1.1011
 Frc consts  --      6.3398                 6.3762                 6.4903
 IR Inten    --     28.6143                34.8547                14.2085

 - Thermochemistry -
 -------------------
 Temperature   298.150 Kelvin.  Pressure   1.00000 Atm.
 Atom     1 has atomic number  6 and mass  12.00000

 Molecular mass:   153.11536 amu.
 Principal axes and moments of inertia in atomic units:
                           1         2         3
     Eigenvalues --   810.575152773.545923309.82992
           X            0.99992  -0.01048  -0.00645
           Y            0.01036   0.99979  -0.01779
           Z            0.00663   0.01772   0.99982
 This molecule is an asymmetric top.
 Rotational symmetry number  1.
 Warning -- assumption of classical behavior for rotation
           may cause significant error
 Rotational temperatures (Kelvin)      0.10685     0.03123     0.02617
 Rotational constants (GHZ):           2.22649     0.65070     0.54527
 Zero-point vibrational energy     603959.2 (Joules/Mol)
                                  144.34971 (Kcal/Mol)
 Warning -- explicit consideration of  16 degrees of freedom as
           vibrations may cause significant error
 Vibrational temperatures:     85.12   100.99   119.75   187.26   240.58
          (Kelvin)            288.49   310.72   334.67   370.05   438.87
                              479.45   503.30   584.06   752.10   796.89
                              843.73   904.57  1007.47  1070.29  1206.22
                             1272.22  1285.97  1333.48  1342.47  1351.20
                             1415.28  1430.93  1497.11  1502.64  1524.37
                             1555.89  1629.90  1664.74  1712.35  1731.06
                             1749.70  1805.59  1826.04  1853.91  1924.04
                             1962.91  1972.86  1986.04  2021.27  2072.64
                             2087.25  2106.13  2151.76  2162.42  2186.66
                             2188.82  2196.39  2216.07  2217.01  2237.55
                             2365.63  2507.34  4317.01  4353.79  4384.10
                             4398.76  4414.11  4416.91  4425.79  4436.47
                             4465.60  4468.77  4483.25  4488.23  4495.80
                             4507.48  4550.86

 Zero-point correction=                           0.230036 (Hartree/Particle)
 Thermal correction to Energy=                    0.241745
 Thermal correction to Enthalpy=                  0.242689
 Thermal correction to Gibbs Free Energy=         0.192275
 Sum of electronic and zero-point Energies=           -481.763481
 Sum of electronic and thermal Energies=              -481.751772
 Sum of electronic and thermal Enthalpies=            -481.750828
 Sum of electronic and thermal Free Energies=         -481.801242

                     E (Thermal)             CV                S
                      KCal/Mol        Cal/Mol-Kelvin    Cal/Mol-Kelvin
 Total                  151.697             43.224            106.105
 Electronic               0.000              0.000              0.000
 Translational            0.889              2.981             40.988
 Rotational               0.889              2.981             30.388
 Vibrational            149.920             37.263             34.730
 Vibration     1          0.597              1.974              4.485
 Vibration     2          0.598              1.968              4.148
 Vibration     3          0.600              1.961              3.813
 Vibration     4          0.612              1.923              2.944
 Vibration     5          0.624              1.883              2.467
 Vibration     6          0.638              1.839              2.128
 Vibration     7          0.645              1.817              1.993
 Vibration     8          0.653              1.791              1.859
 Vibration     9          0.667              1.751              1.681
 Vibration    10          0.696              1.664              1.389
 Vibration    11          0.715              1.609              1.244
 Vibration    12          0.727              1.576              1.167
 Vibration    13          0.771              1.457              0.941
 Vibration    14          0.878              1.200              0.604
 Vibration    15          0.909              1.131              0.536
 Vibration    16          0.943              1.061              0.474

                           ! Non-Optimized Parameters !
 Normal termination of Gaussian 16 at Tue Dec  8 19:25:41 2020.

 ----------------------------------------------------------------------
 # B3LYP/6-311++G(d,p) empiricaldispersion=gd3bj scf=xqc pop=npa geom=c
 heck
 ----------------------------------------------------------------------

 --------------------------------------
 CID_71366138_JID_1141_Energie_neutraal
 --------------------------------------
 Structure from the checkpoint file:  "JID_1141.chk"
 Charge =  0 Multiplicity = 1

 SCF Done:  E(RB3LYP) =  -482.128625738     A.U. after   15 cycles
 Normal termination of Gaussian 16 at Tue Dec  8 19:28:20 2020.

 ----------------------------------------------------------------------
 # B3LYP/6-311++G(d,p) empiricaldispersion=gd3bj scf=xqc pop=npa geom=c
 heck
 ----------------------------------------------------------------------

 ------------------------------------
 CID_71366138_JID_1141_Energie_kation
 ------------------------------------
 Structure from the checkpoint file:  "JID_1141.chk"
 Charge =  1 Multiplicity = 2

 SCF Done:  E(UB3LYP) =  -481.860673693     A.U. after   22 cycles
 Normal termination of Gaussian 16 at Tue Dec  8 19:33:48 2020.
 Gaussian 16:  ES64L-G16RevA.03 25-Dec-2016

 ----------------------------------------------------------------------
 # B3LYP/6-311++G(d,p) empiricaldispersion=gd3bj scf=xqc pop=npa geom=c
 heck
 ----------------------------------------------------------------------

 -----------------------------------
 CID_71366138_JID_1141_Energie_anion
 -----------------------------------
 Structure from the checkpoint file:  "JID_1141.chk"
 Charge = -1 Multiplicity = 2

                         Standard orientation:
 ---------------------------------------------------------------------
 Center     Atomic      Atomic             Coordinates (Angstroms)
 Number     Number       Type             X           Y           Z
 ---------------------------------------------------------------------
      1          6           0       -2.489658    1.744035    0.349348
      2          6           0       -1.443592    0.693787    0.031205
      3          6           0       -0.142797    1.114590   -0.098793
      4          7           0        1.011227    0.413028   -0.146650
      5          6           0        1.222214   -0.925497    0.416644
      6          6           0        2.711414   -0.926642    0.784290
      7          6           0        3.331519   -0.009414   -0.279955
      8          6           0        2.280489    1.095667   -0.431158
      9          6           0       -1.880361   -0.681381   -0.227149
     10          8           0       -1.182528   -1.527977   -0.792844
     11          6           0       -3.309526   -1.045177    0.164633
     12          1           0       -2.046669    2.745895    0.349948
     13          1           0       -2.941976    1.597095    1.339800
     14          1           0       -3.314200    1.751618   -0.375001
     15          1           0        0.026699    2.193095   -0.133171
     16          1           0        0.959138   -1.696610   -0.311532
     17          1           0        0.561321   -1.061348    1.279203
     18          1           0        2.858481   -0.495805    1.782282
     19          1           0        3.137510   -1.933830    0.785372
     20          1           0        4.312246    0.385394   -0.000372
     21          1           0        3.440888   -0.551835   -1.225916
     22          1           0        2.448102    1.909112    0.292309
     23          1           0        2.271596    1.535613   -1.434249
     24          1           0       -3.451337   -2.116161    0.008764
     25          1           0       -3.523339   -0.789895    1.209337
     26          1           0       -4.035026   -0.499520   -0.451855
 ---------------------------------------------------------------------

 SCF Done:  E(UB3LYP) =  -482.115828497     A.U. after   33 cycles
 SCF Done:  E(UB3LYP) =  -482.115828497     a.u. after    1 cycles

 The electronic state is 2-A.
 Alpha  occ. eigenvalues --  -18.95049 -14.21684 -10.10581 -10.08845 -10.08160
 Alpha  occ. eigenvalues --  -10.07614 -10.06331 -10.06002 -10.04898 -10.04811
 Alpha  occ. eigenvalues --  -10.03454  -0.88530  -0.83877  -0.69767  -0.65838
 Alpha  occ. eigenvalues --   -0.62275  -0.60612  -0.56117  -0.50815  -0.48244
 Alpha  occ. eigenvalues --   -0.46009  -0.41309  -0.38700  -0.36550  -0.33714
 Alpha  occ. eigenvalues --   -0.32263  -0.31359  -0.31188  -0.29584  -0.29443
 Alpha  occ. eigenvalues --   -0.28361  -0.28081  -0.26573  -0.25495  -0.24737
 Alpha  occ. eigenvalues --   -0.24136  -0.23840  -0.22267  -0.22097  -0.17501
 Alpha  occ. eigenvalues --   -0.10909  -0.07826   0.05065
 Alpha virt. eigenvalues --    0.07254   0.07748   0.08603   0.09467   0.09758
 Alpha virt. eigenvalues --    0.10143   0.10970   0.11481   0.12217   0.12378
 Alpha virt. eigenvalues --    0.12907   0.13404   0.14079   0.14498   0.15314

  Beta  occ. eigenvalues --  -18.94882 -14.21654 -10.10452 -10.08817 -10.08008
  Beta  occ. eigenvalues --  -10.07592 -10.06309 -10.05982 -10.04873 -10.04817
  Beta  occ. eigenvalues --  -10.03470  -0.88221  -0.83758  -0.69648  -0.65744
  Beta  occ. eigenvalues --   -0.62214  -0.60527  -0.55981  -0.50665  -0.48159
  Beta  occ. eigenvalues --   -0.45823  -0.41223  -0.38609  -0.36389  -0.33608
  Beta  occ. eigenvalues --   -0.32046  -0.31264  -0.31136  -0.29440  -0.29348
  Beta  occ. eigenvalues --   -0.28304  -0.28039  -0.26504  -0.25420  -0.24629
  Beta  occ. eigenvalues --   -0.23993  -0.23785  -0.22210  -0.21529  -0.16995
  Beta  occ. eigenvalues --   -0.10757  -0.07436
  Beta virt. eigenvalues --    0.07541   0.07945   0.08747   0.09013   0.09822
  Beta virt. eigenvalues --    0.10342   0.10594   0.11206   0.11750   0.12459
  Beta virt. eigenvalues --    0.12780   0.13234   0.13548   0.14256   0.14507

 Mulliken charges and spin densities:
               1          2
     1  C    0.491465  -1.351044
     2  C   -0.869532   1.601137
     3  C    0.607415  -1.101837
     4  N    0.075391   0.170005
     5  C    0.179639  -0.348468
     6  C   -0.086784  -0.491244
     7  C   -0.212867  -0.100927
     8  C    1.189592  -1.433316
     9  C   -0.600850   0.893283
    10  O   -0.362473   0.059435
    11  C   -0.283029  -0.289380
    12  H   -0.360962   0.499001
    13  H   -0.058932   0.198078
    14  H    0.054676   0.057721
    15  H   -0.146093   0.282551
    16  H    0.220360  -0.000084
    17  H    0.060896   0.104937
    18  H   -0.104887   0.259058
    19  H   -0.094255   0.234855
    20  H   -0.519779   0.690533
    21  H    0.187908  -0.062491
    22  H   -0.678368   0.858595
    23  H    0.077234   0.076653
    24  H    0.114170   0.048461
    25  H   -0.004643   0.141088
    26  H    0.124708   0.003401
 Sum of Mulliken charges =  -1.00000   1.00000

 Dipole moment (field-independent basis, Debye):
    X=             -2.8454    Y=             -3.3467    Z=             -2.8850  Tot=              5.2554
 Quadrupole moment (field-independent basis, Debye-Ang):
   XX=           -123.2891   YY=           -106.9476   ZZ=            -92.6710
   XY=            -10.4238   XZ=             -6.6630   YZ=             -9.4812

 Summary of Natural Population Analysis:

                                       Natural Population
                Natural  -----------------------------------------------
    Atom  No    Charge         Core      Valence    Rydberg      Total
 -----------------------------------------------------------------------
      C    1   -0.28652      0.99965     2.28072    0.00615     3.28652
      C    2   -0.13226      0.99950     2.12223    0.01053     3.13226
      C    3    0.09208      0.99949     1.89570    0.01273     2.90792
      N    4   -0.22846      0.99966     2.71739    0.01141     3.72846
      C    5   -0.08201      0.99962     2.07135    0.01105     3.08201
      C    6   -0.19508      0.99963     2.18740    0.00804     3.19508
      C    7   -0.19398      0.99964     2.18582    0.00852     3.19398
      C    8   -0.07827      0.99962     2.06809    0.01056     3.07827
      C    9    0.26880      0.99960     1.70963    0.02196     2.73120
      O   10   -0.30873      0.99988     3.30233    0.00652     4.30873
      C   11   -0.32781      0.99964     2.32331    0.00486     3.32781
      H   12    0.10037      0.00000     0.39856    0.00107     0.39963
      H   13    0.09693      0.00000     0.40150    0.00157     0.40307
      H   14    0.09013      0.00000     0.40872    0.00115     0.40987
      H   15    0.08641      0.00000     0.41230    0.00130     0.41359
      H   16    0.10940      0.00000     0.38930    0.00130     0.39060
      H   17    0.09946      0.00000     0.39929    0.00125     0.40054
      H   18    0.09868      0.00000     0.39962    0.00170     0.40132
      H   19    0.09720      0.00000     0.40197    0.00083     0.40280
      H   20    0.10556      0.00000     0.39236    0.00208     0.39444
      H   21    0.09245      0.00000     0.40633    0.00123     0.40755
      H   22    0.09826      0.00000     0.39426    0.00749     0.40174
      H   23    0.09076      0.00000     0.40816    0.00107     0.40924
      H   24    0.10367      0.00000     0.39502    0.00131     0.39633
      H   25    0.10170      0.00000     0.39683    0.00147     0.39830
      H   26    0.10126      0.00000     0.39758    0.00116     0.39874
 =======================================================================
   * Total *    0.00000     10.99593    30.86577    0.13830    42.00000

 Normal termination of Gaussian 16 at Tue Dec  8 19:42:03 2020.
