 Gaussian 16, Revision A.03,

 -----------------------------------------------------------
 # opt freq B3LYP/6-31G(d) empiricaldispersion=gd3bj scf=xqc
 -----------------------------------------------------------

 -------------------------------
 CID_125476279_JID_3833_neutraal
 -------------------------------
 Symbolic Z-matrix:
 Charge =  0 Multiplicity = 1

 SCF Done:  E(RB3LYP) =  -555.689405167     A.U. after   16 cycles
 SCF Done:  E(RB3LYP) =  -555.708505272     A.U. after   13 cycles
 SCF Done:  E(RB3LYP) =  -555.709383628     A.U. after   15 cycles
 SCF Done:  E(RB3LYP) =  -555.703847594     A.U. after   15 cycles
 SCF Done:  E(RB3LYP) =  -555.705979763     A.U. after   13 cycles
 SCF Done:  E(RB3LYP) =  -555.710097852     A.U. after   11 cycles
 SCF Done:  E(RB3LYP) =  -555.710899995     A.U. after   12 cycles
 SCF Done:  E(RB3LYP) =  -555.709255244     A.U. after   14 cycles
 SCF Done:  E(RB3LYP) =  -555.710668281     A.U. after   12 cycles
 SCF Done:  E(RB3LYP) =  -555.710967184     A.U. after    9 cycles
 SCF Done:  E(RB3LYP) =  -555.711034730     A.U. after   10 cycles
 SCF Done:  E(RB3LYP) =  -555.711038952     A.U. after   10 cycles
 SCF Done:  E(RB3LYP) =  -555.711042151     A.U. after   10 cycles
 SCF Done:  E(RB3LYP) =  -555.711042343     A.U. after    8 cycles
 SCF Done:  E(RB3LYP) =  -555.711042409     A.U. after    8 cycles
 Optimization completed.
    -- Stationary point found.
 Normal termination of Gaussian 16 at Mon Dec 14 18:45:07 2020.

 --------------------------------------------------------------------
 #N Geom=AllCheck Guess=TCheck SCRF=Check GenChk RB3LYP/6-31G(d) Freq
 --------------------------------------------------------------------

 Structure from the checkpoint file:  "JID_3833.chk"
 -------------------------------
 CID_125476279_JID_3833_neutraal
 -------------------------------
 Charge =  0 Multiplicity = 1

 SCF Done:  E(RB3LYP) =  -555.711042409     A.U. after    1 cycles

  Exact polarizability: 140.693   6.443 142.716  -3.554  -7.162  63.214
 Approx polarizability: 195.518   0.209 242.281  -5.227 -18.510 100.247

                      1                      2                      3
                      A                      A                      A
 Frequencies --     28.1694                44.1872                70.6994
 Red. masses --      4.8532                 5.2631                 3.3891
 Frc consts  --      0.0023                 0.0061                 0.0100
 IR Inten    --      1.2960                 0.4392                 0.3707

                      4                      5                      6
                      A                      A                      A
 Frequencies --     98.5128               134.5097               162.0809
 Red. masses --      3.7080                 4.7463                 4.5665
 Frc consts  --      0.0212                 0.0506                 0.0707
 IR Inten    --      0.3295                 1.0630                 1.8057

                      7                      8                      9
                      A                      A                      A
 Frequencies --    177.2398               241.0111               251.6232
 Red. masses --      2.9745                 4.4052                 3.2162
 Frc consts  --      0.0551                 0.1508                 0.1200
 IR Inten    --      2.3857                 4.2447                 1.1451

                     10                     11                     12
                      A                      A                      A
 Frequencies --    338.7407               346.8549               368.4376
 Red. masses --      3.6008                 3.9076                 2.5485
 Frc consts  --      0.2434                 0.2770                 0.2038
 IR Inten    --      1.2473                 2.0295                 2.3295

                     13                     14                     15
                      A                      A                      A
 Frequencies --    457.7156               550.0216               601.3193
 Red. masses --      5.9593                 3.8056                 4.3204
 Frc consts  --      0.7356                 0.6783                 0.9204
 IR Inten    --      3.5179                 0.9217                 2.4175

                     16                     17                     18
                      A                      A                      A
 Frequencies --    611.9568               618.1419               623.8160
 Red. masses --      1.2083                 3.4578                 1.2620
 Frc consts  --      0.2666                 0.7784                 0.2894
 IR Inten    --     52.2894                 1.3057                47.5613

                     19                     20                     21
                      A                      A                      A
 Frequencies --    633.9746               660.4874               712.0546
 Red. masses --      3.9532                 3.8242                 1.4741
 Frc consts  --      0.9361                 0.9829                 0.4403
 IR Inten    --      0.7245                20.8089                 2.2184

                     22                     23                     24
                      A                      A                      A
 Frequencies --    724.2272               759.6532               832.8716
 Red. masses --      2.6215                 1.2623                 1.8671
 Frc consts  --      0.8101                 0.4292                 0.7631
 IR Inten    --     52.3115                60.5676                17.4533

                     25                     26                     27
                      A                      A                      A
 Frequencies --    857.9504               875.0072               879.2133
 Red. masses --      1.2605                 2.9229                 1.9884
 Frc consts  --      0.5466                 1.3185                 0.9056
 IR Inten    --      0.8340                 1.8568                12.5871

                     28                     29                     30
                      A                      A                      A
 Frequencies --    886.8115               890.7080               958.9414
 Red. masses --      5.7270                 1.3324                 2.9782
 Frc consts  --      2.6536                 0.6228                 1.6135
 IR Inten    --      0.9489                 2.2966                23.2352

                     31                     32                     33
                      A                      A                      A
 Frequencies --   1017.1704              1022.8412              1049.7647
 Red. masses --      2.2956                 1.3843                 1.5076
 Frc consts  --      1.3994                 0.8533                 0.9789
 IR Inten    --      3.2045                17.0513                21.3925

                     34                     35                     36
                      A                      A                      A
 Frequencies --   1062.5884              1098.5057              1105.7258
 Red. masses --      2.0151                 1.3863                 1.6680
 Frc consts  --      1.3406                 0.9856                 1.2016
 IR Inten    --      0.8656                45.1344                 7.1996

                     37                     38                     39
                      A                      A                      A
 Frequencies --   1118.1986              1180.2781              1211.8213
 Red. masses --      1.9039                 2.3154                 1.3321
 Frc consts  --      1.4026                 1.9004                 1.1526
 IR Inten    --     18.9153                32.6140                 2.9513

                     40                     41                     42
                      A                      A                      A
 Frequencies --   1246.0243              1288.5485              1331.5480
 Red. masses --      1.2071                 1.4933                 1.4167
 Frc consts  --      1.1042                 1.4608                 1.4799
 IR Inten    --      5.2879                 1.6368                 0.2214

                     43                     44                     45
                      A                      A                      A
 Frequencies --   1341.4372              1345.0494              1358.6357
 Red. masses --      1.7646                 1.8826                 1.3506
 Frc consts  --      1.8708                 2.0067                 1.4689
 IR Inten    --     11.8305                73.8381                 9.2190

                     46                     47                     48
                      A                      A                      A
 Frequencies --   1368.0425              1390.1706              1454.2679
 Red. masses --      3.9782                 1.4235                 3.7148
 Frc consts  --      4.3867                 1.6209                 4.6288
 IR Inten    --    345.8831                14.5643                23.7701

                     49                     50                     51
                      A                      A                      A
 Frequencies --   1505.0979              1514.7592              1517.9781
 Red. masses --      1.0881                 1.1614                 3.1156
 Frc consts  --      1.4523                 1.5701                 4.2298
 IR Inten    --      5.9467                 1.1447                89.5652

                     52                     53                     54
                      A                      A                      A
 Frequencies --   1607.9347              1724.1857              1781.5682
 Red. masses --      4.6208                 6.3135                11.0130
 Frc consts  --      7.0389                11.0583                20.5950
 IR Inten    --      3.3504                25.8991               300.0061

                     55                     56                     57
                      A                      A                      A
 Frequencies --   2241.1160              3044.0300              3054.2039
 Red. masses --      5.9677                 1.0590                 1.0631
 Frc consts  --     17.6599                 5.7816                 5.8430
 IR Inten    --      0.6295                18.9531                18.4289

                     58                     59                     60
                      A                      A                      A
 Frequencies --   3081.1270              3107.3324              3189.0535
 Red. masses --      1.1003                 1.1040                 1.0922
 Frc consts  --      6.1543                 6.2806                 6.5445
 IR Inten    --     21.7115                18.9256                 3.4029

                     61                     62                     63
                      A                      A                      A
 Frequencies --   3202.0164              3254.8407              3268.1003
 Red. masses --      1.0871                 1.0908                 1.0973
 Frc consts  --      6.5673                 6.8087                 6.9050
 IR Inten    --      6.4378                 7.3908                 4.8898

                     64                     65                     66
                      A                      A                      A
 Frequencies --   3315.5325              3320.4848              3495.0215
 Red. masses --      1.0984                 1.1003                 1.1603
 Frc consts  --      7.1140                 7.1474                 8.3506
 IR Inten    --      2.2610                 3.1971                53.6600

 - Thermochemistry -
 -------------------
 Temperature   298.150 Kelvin.  Pressure   1.00000 Atm.
 Atom     1 has atomic number  6 and mass  12.00000

 Molecular mass:   173.08406 amu.
 Principal axes and moments of inertia in atomic units:
                           1         2         3
     Eigenvalues --  1484.891433475.141654815.46081
           X            0.99955   0.02977  -0.00324
           Y           -0.02978   0.99955  -0.00237
           Z            0.00316   0.00247   0.99999
 This molecule is an asymmetric top.
 Rotational symmetry number  1.
 Warning -- assumption of classical behavior for rotation
           may cause significant error
 Rotational temperatures (Kelvin)      0.05833     0.02492     0.01799
 Rotational constants (GHZ):           1.21540     0.51933     0.37478
 Zero-point vibrational energy     506091.8 (Joules/Mol)
                                  120.95884 (Kcal/Mol)
 Warning -- explicit consideration of  17 degrees of freedom as
           vibrations may cause significant error
 Vibrational temperatures:     40.53    63.58   101.72   141.74   193.53
          (Kelvin)            233.20   255.01   346.76   362.03   487.37
                              499.05   530.10   658.55   791.36   865.16
                              880.47   889.37   897.53   912.15   950.29
                             1024.49  1042.00  1092.97  1198.32  1234.40
                             1258.94  1264.99  1275.92  1281.53  1379.70
                             1463.48  1471.64  1510.38  1528.83  1580.50
                             1590.89  1608.84  1698.16  1743.54  1792.75
                             1853.93  1915.80  1930.03  1935.23  1954.77
                             1968.31  2000.15  2092.37  2165.50  2179.40
                             2184.03  2313.46  2480.72  2563.28  3224.47
                             4379.68  4394.32  4433.05  4470.76  4588.34
                             4606.99  4682.99  4702.07  4770.31  4777.44
                             5028.56

 Zero-point correction=                           0.192760 (Hartree/Particle)
 Thermal correction to Energy=                    0.205183
 Thermal correction to Enthalpy=                  0.206127
 Thermal correction to Gibbs Free Energy=         0.152521
 Sum of electronic and zero-point Energies=           -555.518282
 Sum of electronic and thermal Energies=              -555.505860
 Sum of electronic and thermal Enthalpies=            -555.504916
 Sum of electronic and thermal Free Energies=         -555.558522

                     E (Thermal)             CV                S
                      KCal/Mol        Cal/Mol-Kelvin    Cal/Mol-Kelvin
 Total                  128.754             46.202            112.823
 Electronic               0.000              0.000              0.000
 Translational            0.889              2.981             41.353
 Rotational               0.889              2.981             31.586
 Vibrational            126.977             40.241             39.884
 Vibration     1          0.593              1.984              5.954
 Vibration     2          0.595              1.980              5.062
 Vibration     3          0.598              1.968              4.134
 Vibration     4          0.604              1.950              3.484
 Vibration     5          0.613              1.919              2.881
 Vibration     6          0.622              1.889              2.525
 Vibration     7          0.628              1.870              2.357
 Vibration     8          0.658              1.778              1.795
 Vibration     9          0.664              1.760              1.719
 Vibration    10          0.719              1.598              1.218
 Vibration    11          0.725              1.582              1.180
 Vibration    12          0.741              1.537              1.086
 Vibration    13          0.816              1.344              0.773
 Vibration    14          0.905              1.140              0.544
 Vibration    15          0.960              1.029              0.447
 Vibration    16          0.971              1.007              0.430
 Vibration    17          0.978              0.994              0.419

                           ! Non-Optimized Parameters !
 Normal termination of Gaussian 16 at Mon Dec 14 18:50:23 2020.

 ----------------------------------------------------------------------
 # B3LYP/6-311++G(d,p) empiricaldispersion=gd3bj scf=xqc pop=npa geom=c
 heck
 ----------------------------------------------------------------------

 ---------------------------------------
 CID_125476279_JID_3833_Energie_neutraal
 ---------------------------------------
 Structure from the checkpoint file:  "JID_3833.chk"
 Charge =  0 Multiplicity = 1

 SCF Done:  E(RB3LYP) =  -555.868459238     A.U. after   15 cycles
 Normal termination of Gaussian 16 at Mon Dec 14 18:52:39 2020.

 ----------------------------------------------------------------------
 # B3LYP/6-311++G(d,p) empiricaldispersion=gd3bj scf=xqc pop=npa geom=c
 heck
 ----------------------------------------------------------------------

 -------------------------------------
 CID_125476279_JID_3833_Energie_kation
 -------------------------------------
 Structure from the checkpoint file:  "JID_3833.chk"
 Charge =  1 Multiplicity = 2

 SCF Done:  E(UB3LYP) =  -555.560575375     A.U. after   33 cycles
 SCF Done:  E(UB3LYP) =  -555.560575375     a.u. after    1 cycles
 Normal termination of Gaussian 16 at Mon Dec 14 18:59:42 2020.
 Gaussian 16:  ES64L-G16RevA.03 25-Dec-2016

 ----------------------------------------------------------------------
 # B3LYP/6-311++G(d,p) empiricaldispersion=gd3bj scf=xqc pop=npa geom=c
 heck
 ----------------------------------------------------------------------

 ------------------------------------
 CID_125476279_JID_3833_Energie_anion
 ------------------------------------
 Structure from the checkpoint file:  "JID_3833.chk"
 Charge = -1 Multiplicity = 2

                         Standard orientation:
 ---------------------------------------------------------------------
 Center     Atomic      Atomic             Coordinates (Angstroms)
 Number     Number       Type             X           Y           Z
 ---------------------------------------------------------------------
      1          6           0       -2.872830    2.324814   -0.273603
      2          6           0       -3.141494    1.197593    0.066213
      3          6           0       -3.415503   -0.184240    0.458814
      4          6           0       -2.658617   -1.220912   -0.415521
      5          6           0       -1.187440   -0.936910   -0.444534
      6          6           0       -0.259215   -1.673834    0.177461
      7          6           0        1.204054   -1.447299    0.112377
      8          8           0        1.987050   -2.381450    0.088119
      9          7           0        1.678532   -0.119496    0.056833
     10          6           0        1.021606    1.068557    0.397577
     11          6           0        1.911502    2.095709    0.250346
     12          6           0        3.158466    1.536064   -0.190034
     13          6           0        2.993517    0.182929   -0.287361
     14          1           0       -2.655155    3.325397   -0.570843
     15          1           0       -3.122932   -0.327957    1.506825
     16          1           0       -4.493069   -0.383963    0.401415
     17          1           0       -2.854704   -2.221791   -0.016348
     18          1           0       -3.062809   -1.180674   -1.434517
     19          1           0       -0.890963   -0.045909   -0.991419
     20          1           0       -0.527406   -2.600382    0.679818
     21          1           0        0.001722    1.064674    0.742908
     22          1           0        1.704086    3.138985    0.446332
     23          1           0        4.068866    2.078290   -0.406171
     24          1           0        3.661962   -0.613416   -0.571192
 ---------------------------------------------------------------------

 SCF Done:  E(UB3LYP) =  -555.877751766     A.U. after   27 cycles

 The electronic state is 2-A.
 Alpha  occ. eigenvalues --  -18.93392 -14.23035 -10.10843 -10.08478 -10.07347
 Alpha  occ. eigenvalues --  -10.06212 -10.06075 -10.06025 -10.05860 -10.03685
 Alpha  occ. eigenvalues --  -10.03625 -10.02434 -10.02330  -0.89722  -0.83369
 Alpha  occ. eigenvalues --   -0.70471  -0.66758  -0.64637  -0.61285  -0.59492
 Alpha  occ. eigenvalues --   -0.54305  -0.49260  -0.45198  -0.44314  -0.42572
 Alpha  occ. eigenvalues --   -0.41923  -0.37721  -0.35239  -0.34620  -0.32191
 Alpha  occ. eigenvalues --   -0.30773  -0.30285  -0.29292  -0.28252  -0.27060
 Alpha  occ. eigenvalues --   -0.26883  -0.25733  -0.24393  -0.23110  -0.21667
 Alpha  occ. eigenvalues --   -0.17242  -0.16977  -0.13422  -0.12559  -0.11297
 Alpha  occ. eigenvalues --   -0.09823   0.04302
 Alpha virt. eigenvalues --    0.07426   0.08258   0.09189   0.09942   0.10331
 Alpha virt. eigenvalues --    0.11033   0.11520   0.12355   0.12604   0.12894
 Alpha virt. eigenvalues --    0.13326   0.14028   0.14581   0.15389   0.16002

  Beta  occ. eigenvalues --  -18.92946 -14.23107 -10.10510 -10.08400 -10.07346
  Beta  occ. eigenvalues --  -10.06121 -10.06100 -10.05959 -10.05853 -10.03685
  Beta  occ. eigenvalues --  -10.03592 -10.02323 -10.02030  -0.89108  -0.83113
  Beta  occ. eigenvalues --   -0.70256  -0.66485  -0.64417  -0.61100  -0.59317
  Beta  occ. eigenvalues --   -0.53984  -0.48932  -0.44964  -0.44088  -0.42455
  Beta  occ. eigenvalues --   -0.41772  -0.37515  -0.35046  -0.34381  -0.32031
  Beta  occ. eigenvalues --   -0.30321  -0.29945  -0.29004  -0.28151  -0.26835
  Beta  occ. eigenvalues --   -0.26713  -0.25646  -0.24138  -0.22245  -0.20703
  Beta  occ. eigenvalues --   -0.17165  -0.16920  -0.12193  -0.12100  -0.10406
  Beta  occ. eigenvalues --   -0.09386
  Beta virt. eigenvalues --    0.07521   0.08347   0.09161   0.09991   0.10398
  Beta virt. eigenvalues --    0.10685   0.11015   0.11567   0.12417   0.12611
  Beta virt. eigenvalues --    0.13328   0.13781   0.14123   0.14608   0.15377

 Mulliken charges and spin densities:
               1          2
     1  C   -2.066346   0.211590
     2  C    1.802575  -0.396988
     3  C    0.484186  -0.633193
     4  C   -0.671733   0.297859
     5  C    0.371417   0.226754
     6  C   -0.025804  -0.155884
     7  C   -0.315766   0.180905
     8  O   -0.408912   0.158866
     9  N    0.152292  -0.031525
    10  C   -0.564499   0.059681
    11  C    0.073401  -0.001413
    12  C   -0.509814   0.036945
    13  C    0.093548   0.039972
    14  H    0.038686   0.082008
    15  H    0.127182   0.048232
    16  H   -0.468589   0.636872
    17  H   -0.023516   0.161816
    18  H    0.073547   0.088580
    19  H    0.156626  -0.013016
    20  H    0.124010   0.034844
    21  H    0.150208  -0.026329
    22  H    0.124387   0.001030
    23  H    0.108479  -0.001730
    24  H    0.174438  -0.005876
 Sum of Mulliken charges =  -1.00000   1.00000

 Dipole moment (field-independent basis, Debye):
    X=              0.2634    Y=              3.7654    Z=             -0.1224  Tot=              3.7766
 Quadrupole moment (field-independent basis, Debye-Ang):
   XX=           -131.3958   YY=           -102.3180   ZZ=            -88.3698
   XY=              6.2491   XZ=             -1.8059   YZ=             -0.9712

 Summary of Natural Population Analysis:

                                       Natural Population
                Natural  -----------------------------------------------
    Atom  No    Charge         Core      Valence    Rydberg      Total
 -----------------------------------------------------------------------
      C    1   -0.14004      0.99927     2.13730    0.00347     3.14004
      C    2    0.01280      0.99938     1.97908    0.00874     2.98720
      C    3   -0.22524      0.99956     2.21590    0.00979     3.22524
      C    4   -0.19873      0.99962     2.18800    0.01111     3.19873
      C    5   -0.01089      0.99953     2.00186    0.00950     3.01089
      C    6   -0.14535      0.99949     2.13494    0.01093     3.14535
      C    7    0.37923      0.99964     1.60037    0.02076     2.62077
      O    8   -0.26598      0.99988     3.26072    0.00539     4.26598
      N    9   -0.22988      0.99963     2.72099    0.00926     3.72988
      C   10    0.00059      0.99957     1.98935    0.01050     2.99941
      C   11   -0.15574      0.99957     2.14692    0.00925     3.15574
      C   12   -0.14661      0.99958     2.13793    0.00911     3.14661
      C   13   -0.00082      0.99957     1.99001    0.01123     3.00082
      H   14    0.10863      0.00000     0.39023    0.00115     0.39137
      H   15    0.11019      0.00000     0.38846    0.00135     0.38981
      H   16    0.11289      0.00000     0.38307    0.00404     0.38711
      H   17    0.09868      0.00000     0.40008    0.00124     0.40132
      H   18    0.09980      0.00000     0.39921    0.00099     0.40020
      H   19    0.09186      0.00000     0.40637    0.00177     0.40814
      H   20    0.09514      0.00000     0.40352    0.00134     0.40486
      H   21    0.10942      0.00000     0.38924    0.00134     0.39058
      H   22    0.09689      0.00000     0.40223    0.00087     0.40311
      H   23    0.09568      0.00000     0.40349    0.00083     0.40432
      H   24    0.10750      0.00000     0.39143    0.00107     0.39250
 =======================================================================
   * Total *    0.00000     12.99428    32.86068    0.14503    46.00000

 Normal termination of Gaussian 16 at Mon Dec 14 19:05:24 2020.
