 Gaussian 16, Revision A.03,

 -----------------------------------------------------------
 # opt freq B3LYP/6-31G(d) empiricaldispersion=gd3bj scf=xqc
 -----------------------------------------------------------

 ------------------------------
 CID_53845305_JID_1165_neutraal
 ------------------------------
 Symbolic Z-matrix:
 Charge =  0 Multiplicity = 1

 SCF Done:  E(RB3LYP) =  -858.097829923     A.U. after   14 cycles
 SCF Done:  E(RB3LYP) =  -858.101720060     A.U. after   13 cycles
 SCF Done:  E(RB3LYP) =  -858.097751572     A.U. after   13 cycles
 SCF Done:  E(RB3LYP) =  -858.100656640     A.U. after   13 cycles
 SCF Done:  E(RB3LYP) =  -858.102245318     A.U. after   10 cycles
 SCF Done:  E(RB3LYP) =  -858.102084881     A.U. after   14 cycles
 SCF Done:  E(RB3LYP) =  -858.102525341     A.U. after   12 cycles
 SCF Done:  E(RB3LYP) =  -858.102922746     A.U. after   12 cycles
 SCF Done:  E(RB3LYP) =  -858.103015262     A.U. after   11 cycles
 SCF Done:  E(RB3LYP) =  -858.103037666     A.U. after   11 cycles
 SCF Done:  E(RB3LYP) =  -858.103044628     A.U. after   10 cycles
 SCF Done:  E(RB3LYP) =  -858.103047140     A.U. after    9 cycles
 SCF Done:  E(RB3LYP) =  -858.103048385     A.U. after    8 cycles
 SCF Done:  E(RB3LYP) =  -858.103048844     A.U. after    8 cycles
 SCF Done:  E(RB3LYP) =  -858.103048975     A.U. after    7 cycles
 Optimization completed.
    -- Stationary point found.
 Normal termination of Gaussian 16 at Tue Dec  8 19:17:16 2020.

 --------------------------------------------------------------------
 #N Geom=AllCheck Guess=TCheck SCRF=Check GenChk RB3LYP/6-31G(d) Freq
 --------------------------------------------------------------------

 Structure from the checkpoint file:  "JID_1165.chk"
 ------------------------------
 CID_53845305_JID_1165_neutraal
 ------------------------------
 Charge =  0 Multiplicity = 1

 SCF Done:  E(RB3LYP) =  -858.103048975     A.U. after    1 cycles

  Exact polarizability: 107.294   4.366 118.099   0.581   1.456  84.926
 Approx polarizability: 143.135   1.845 171.737   3.180   9.866 139.832

                      1                      2                      3
                      A                      A                      A
 Frequencies --     42.0209                63.5328                69.2242
 Red. masses --      3.9622                 2.8163                 4.1161
 Frc consts  --      0.0041                 0.0067                 0.0116
 IR Inten    --      2.8016                 2.0359                 2.8474

                      4                      5                      6
                      A                      A                      A
 Frequencies --     98.3086               122.0353               132.5580
 Red. masses --      2.2326                 1.9122                 3.6044
 Frc consts  --      0.0127                 0.0168                 0.0373
 IR Inten    --      1.4513                 1.1426                 1.8381

                      7                      8                      9
                      A                      A                      A
 Frequencies --    184.2396               197.8361               236.7187
 Red. masses --      2.0549                 1.9547                 2.6360
 Frc consts  --      0.0411                 0.0451                 0.0870
 IR Inten    --      0.1127                 3.3817                 6.5715

                     10                     11                     12
                      A                      A                      A
 Frequencies --    268.4143               332.3957               352.3373
 Red. masses --      3.7280                 3.0186                 2.9388
 Frc consts  --      0.1582                 0.1965                 0.2149
 IR Inten    --      9.1117                 5.0223                 0.6095

                     13                     14                     15
                      A                      A                      A
 Frequencies --    366.8945               470.5666               518.1701
 Red. masses --      4.2849                 2.9393                 1.2968
 Frc consts  --      0.3398                 0.3835                 0.2051
 IR Inten    --      8.5215                 6.2806               109.7932

                     16                     17                     18
                      A                      A                      A
 Frequencies --    589.5966               715.8064               729.1832
 Red. masses --      4.6806                 2.9586                 2.8285
 Frc consts  --      0.9587                 0.8932                 0.8861
 IR Inten    --      9.0579                 6.6242                12.9957

                     19                     20                     21
                      A                      A                      A
 Frequencies --    747.4421               765.2232               784.0114
 Red. masses --      4.7384                 2.5052                 1.6211
 Frc consts  --      1.5597                 0.8643                 0.5871
 IR Inten    --      7.9842                 3.0167                 8.8036

                     22                     23                     24
                      A                      A                      A
 Frequencies --    877.3045               905.3166               930.7958
 Red. masses --      1.8232                 1.6875                 3.5454
 Frc consts  --      0.8268                 0.8149                 1.8098
 IR Inten    --      0.4142                 1.9931                 1.6945

                     25                     26                     27
                      A                      A                      A
 Frequencies --    951.8352               997.6578              1018.7845
 Red. masses --      4.1221                 3.1845                 2.9780
 Frc consts  --      2.2003                 1.8675                 1.8211
 IR Inten    --     24.3062                 7.4295                24.7369

                     28                     29                     30
                      A                      A                      A
 Frequencies --   1043.8243              1063.4985              1067.8170
 Red. masses --      3.6344                 2.8815                 1.7143
 Frc consts  --      2.3331                 1.9202                 1.1517
 IR Inten    --     12.5526                18.3750                 2.6645

                     31                     32                     33
                      A                      A                      A
 Frequencies --   1119.2111              1141.5215              1162.6977
 Red. masses --      1.6745                 3.1808                 1.2102
 Frc consts  --      1.2358                 2.4421                 0.9639
 IR Inten    --      2.4377               115.5597                22.3617

                     34                     35                     36
                      A                      A                      A
 Frequencies --   1192.4963              1214.4524              1219.5729
 Red. masses --      1.2746                 1.1428                 1.5473
 Frc consts  --      1.0679                 0.9931                 1.3559
 IR Inten    --      1.2941                 5.4842                31.1239

                     37                     38                     39
                      A                      A                      A
 Frequencies --   1254.2139              1270.4588              1285.3725
 Red. masses --      1.1748                 1.3954                 1.3060
 Frc consts  --      1.0888                 1.3270                 1.2713
 IR Inten    --      0.4797                 4.2793                 9.7678

                     40                     41                     42
                      A                      A                      A
 Frequencies --   1295.6163              1299.9316              1329.0079
 Red. masses --      1.3447                 1.5028                 1.4432
 Frc consts  --      1.3299                 1.4962                 1.5019
 IR Inten    --      0.7849                 9.6468                36.5262

                     43                     44                     45
                      A                      A                      A
 Frequencies --   1356.9342              1365.6882              1433.1460
 Red. masses --      1.1126                 1.5246                 1.2206
 Frc consts  --      1.2070                 1.6754                 1.4771
 IR Inten    --      4.5480                19.2249                 9.1232

                     46                     47                     48
                      A                      A                      A
 Frequencies --   1487.9373              1499.0907              1501.0111
 Red. masses --      2.1180                 1.0998                 1.1047
 Frc consts  --      2.7627                 1.4563                 1.4664
 IR Inten    --     98.5953                 6.1502                 3.3518

                     49                     50                     51
                      A                      A                      A
 Frequencies --   1505.7769              1518.6765              1523.2310
 Red. masses --      1.0888                 1.0743                 1.0990
 Frc consts  --      1.4546                 1.4598                 1.5024
 IR Inten    --      2.4532                 5.9090                 4.2816

                     52                     53                     54
                      A                      A                      A
 Frequencies --   1528.1214              1543.4506              1554.9862
 Red. masses --      1.0899                 1.0684                 1.1203
 Frc consts  --      1.4995                 1.4996                 1.5961
 IR Inten    --      1.7389                13.0365                 3.6230

                     55                     56                     57
                      A                      A                      A
 Frequencies --   1705.0311              3002.3229              3014.8610
 Red. masses --      7.3213                 1.0383                 1.0725
 Frc consts  --     12.5401                 5.5143                 5.7433
 IR Inten    --     81.7308                51.4376                68.5169

                     58                     59                     60
                      A                      A                      A
 Frequencies --   3037.9216              3042.5360              3053.1505
 Red. masses --      1.0696                 1.0631                 1.1008
 Frc consts  --      5.8162                 5.7982                 6.0457
 IR Inten    --     43.6030                20.9350                39.0203

                     61                     62                     63
                      A                      A                      A
 Frequencies --   3077.6111              3087.1924              3105.0791
 Red. masses --      1.0655                 1.0585                 1.0910
 Frc consts  --      5.9460                 5.9441                 6.1977
 IR Inten    --      9.9288                19.8116                36.1391

                     64                     65                     66
                      A                      A                      A
 Frequencies --   3108.4706              3113.2067              3132.9303
 Red. masses --      1.1018                 1.0990                 1.0990
 Frc consts  --      6.2725                 6.2757                 6.3558
 IR Inten    --     16.0522                41.7356                45.3002

                     67                     68                     69
                      A                      A                      A
 Frequencies --   3141.6222              3154.8474              3599.2292
 Red. masses --      1.1072                 1.0994                 1.0774
 Frc consts  --      6.4387                 6.4470                 8.2235
 IR Inten    --     17.1198                 3.5717                15.2268

 - Thermochemistry -
 -------------------
 Temperature   298.150 Kelvin.  Pressure   1.00000 Atm.
 Atom     1 has atomic number  6 and mass  12.00000

 Molecular mass:   174.08268 amu.
 Principal axes and moments of inertia in atomic units:
                           1         2         3
     Eigenvalues --  1644.364732304.938203421.19818
           X            0.99995  -0.00508  -0.00885
           Y            0.00494   0.99987  -0.01545
           Z            0.00893   0.01540   0.99984
 This molecule is an asymmetric top.
 Rotational symmetry number  1.
 Warning -- assumption of classical behavior for rotation
           may cause significant error
 Rotational temperatures (Kelvin)      0.05267     0.03758     0.02532
 Rotational constants (GHZ):           1.09753     0.78299     0.52752
 Zero-point vibrational energy     565965.0 (Joules/Mol)
                                  135.26889 (Kcal/Mol)
 Warning -- explicit consideration of  16 degrees of freedom as
           vibrations may cause significant error
 Vibrational temperatures:     60.46    91.41    99.60   141.44   175.58
          (Kelvin)            190.72   265.08   284.64   340.59   386.19
                              478.24   506.93   527.88   677.04   745.53
                              848.30  1029.89  1049.13  1075.40  1100.99
                             1128.02  1262.25  1302.55  1339.21  1369.48
                             1435.41  1465.80  1501.83  1530.14  1536.35
                             1610.30  1642.39  1672.86  1715.74  1747.33
                             1754.69  1804.53  1827.91  1849.36  1864.10
                             1870.31  1912.15  1952.33  1964.92  2061.98
                             2140.81  2156.86  2159.62  2166.48  2185.04
                             2191.59  2198.63  2220.68  2237.28  2453.16
                             4319.67  4337.71  4370.89  4377.53  4392.80
                             4428.00  4441.78  4467.52  4472.40  4479.21
                             4507.59  4520.09  4539.12  5178.49

 Zero-point correction=                           0.215565 (Hartree/Particle)
 Thermal correction to Energy=                    0.227868
 Thermal correction to Enthalpy=                  0.228812
 Thermal correction to Gibbs Free Energy=         0.175855
 Sum of electronic and zero-point Energies=           -857.887484
 Sum of electronic and thermal Energies=              -857.875181
 Sum of electronic and thermal Enthalpies=            -857.874237
 Sum of electronic and thermal Free Energies=         -857.927194

                     E (Thermal)             CV                S
                      KCal/Mol        Cal/Mol-Kelvin    Cal/Mol-Kelvin
 Total                  142.989             43.784            111.457
 Electronic               0.000              0.000              0.000
 Translational            0.889              2.981             41.370
 Rotational               0.889              2.981             30.940
 Vibrational            141.212             37.822             39.147
 Vibration     1          0.595              1.980              5.161
 Vibration     2          0.597              1.972              4.344
 Vibration     3          0.598              1.969              4.175
 Vibration     4          0.604              1.950              3.488
 Vibration     5          0.610              1.931              3.068
 Vibration     6          0.613              1.921              2.909
 Vibration     7          0.631              1.861              2.285
 Vibration     8          0.637              1.843              2.153
 Vibration     9          0.656              1.785              1.827
 Vibration    10          0.673              1.731              1.606
 Vibration    11          0.714              1.611              1.248
 Vibration    12          0.729              1.570              1.156
 Vibration    13          0.740              1.540              1.093
 Vibration    14          0.828              1.315              0.736
 Vibration    15          0.873              1.210              0.614
 Vibration    16          0.947              1.054              0.468

 Optimization completed.
    -- Stationary point found.
 Normal termination of Gaussian 16 at Tue Dec  8 19:22:52 2020.

 ----------------------------------------------------------------------
 # B3LYP/6-311++G(d,p) empiricaldispersion=gd3bj scf=xqc pop=npa geom=c
 heck
 ----------------------------------------------------------------------

 --------------------------------------
 CID_53845305_JID_1165_Energie_neutraal
 --------------------------------------
 Structure from the checkpoint file:  "JID_1165.chk"
 Charge =  0 Multiplicity = 1

 SCF Done:  E(RB3LYP) =  -858.265139348     A.U. after   14 cycles
 Normal termination of Gaussian 16 at Tue Dec  8 19:25:30 2020.

 ----------------------------------------------------------------------
 # B3LYP/6-311++G(d,p) empiricaldispersion=gd3bj scf=xqc pop=npa geom=c
 heck
 ----------------------------------------------------------------------

 ------------------------------------
 CID_53845305_JID_1165_Energie_kation
 ------------------------------------
 Structure from the checkpoint file:  "JID_1165.chk"
 Charge =  1 Multiplicity = 2

 SCF Done:  E(UB3LYP) =  -857.968890490     A.U. after   23 cycles
 Normal termination of Gaussian 16 at Tue Dec  8 19:31:30 2020.
 Gaussian 16:  ES64L-G16RevA.03 25-Dec-2016

 ----------------------------------------------------------------------
 # B3LYP/6-311++G(d,p) empiricaldispersion=gd3bj scf=xqc pop=npa geom=c
 heck
 ----------------------------------------------------------------------

 -----------------------------------
 CID_53845305_JID_1165_Energie_anion
 -----------------------------------
 Structure from the checkpoint file:  "JID_1165.chk"
 Charge = -1 Multiplicity = 2

                         Standard orientation:
 ---------------------------------------------------------------------
 Center     Atomic      Atomic             Coordinates (Angstroms)
 Number     Number       Type             X           Y           Z
 ---------------------------------------------------------------------
      1          6           0       -1.780397    2.381169   -0.149207
      2          8           0       -2.736166    1.340047   -0.070591
      3          6           0       -2.193674    0.106100    0.371332
      4          6           0       -1.469094   -0.631117   -0.757249
      5         16           0       -0.704607   -2.210389   -0.228139
      6          6           0        0.553575   -1.587383    0.970251
      7          6           0        1.296275   -0.383748    0.478755
      8          7           0        1.267220    0.748028    1.087870
      9          6           0        2.067612    1.675471    0.264489
     10          6           0        2.828847    0.787695   -0.755852
     11          7           0        1.992348   -0.418087   -0.724335
     12          1           0       -2.333680    3.304282   -0.341769
     13          1           0       -1.059212    2.230062   -0.967109
     14          1           0       -1.215590    2.480326    0.789139
     15          1           0       -1.510876    0.276329    1.214561
     16          1           0       -3.036438   -0.497045    0.722585
     17          1           0       -2.178644   -0.902762   -1.544695
     18          1           0       -0.691352   -0.009884   -1.209266
     19          1           0        0.098148   -1.337832    1.929171
     20          1           0        1.234876   -2.432196    1.121152
     21          1           0        2.735735    2.273472    0.890758
     22          1           0        1.385017    2.368297   -0.246734
     23          1           0        2.873839    1.219851   -1.759336
     24          1           0        3.854777    0.575249   -0.420091
     25          1           0        2.370600   -1.301015   -1.043288
 ---------------------------------------------------------------------

 SCF Done:  E(UB3LYP) =  -858.252543287     A.U. after   29 cycles

 The electronic state is 2-A.
 Alpha  occ. eigenvalues --  -88.74639 -19.03267 -14.21547 -14.18066 -10.13407
 Alpha  occ. eigenvalues --  -10.12248 -10.11416 -10.10729 -10.09938 -10.09077
 Alpha  occ. eigenvalues --  -10.08637  -7.83215  -5.79624  -5.79258  -5.78559
 Alpha  occ. eigenvalues --   -0.94371  -0.87690  -0.74847  -0.71874  -0.66756
 Alpha  occ. eigenvalues --   -0.62609  -0.59479  -0.54194  -0.51243  -0.49485
 Alpha  occ. eigenvalues --   -0.45496  -0.41194  -0.40150  -0.39296  -0.37796
 Alpha  occ. eigenvalues --   -0.36159  -0.34483  -0.33593  -0.30870  -0.30446
 Alpha  occ. eigenvalues --   -0.29819  -0.28151  -0.28008  -0.27104  -0.26919
 Alpha  occ. eigenvalues --   -0.23196  -0.22376  -0.21669  -0.17249  -0.16544
 Alpha  occ. eigenvalues --   -0.13197  -0.11758   0.04695
 Alpha virt. eigenvalues --    0.06980   0.07756   0.08288   0.08938   0.09420
 Alpha virt. eigenvalues --    0.09853   0.10422   0.11079   0.11641   0.12152
 Alpha virt. eigenvalues --    0.12578   0.13175   0.13929   0.14198   0.14653

  Beta  occ. eigenvalues --  -88.74637 -19.03261 -14.21501 -14.18065 -10.13399
  Beta  occ. eigenvalues --  -10.12244 -10.11397 -10.10706 -10.09928 -10.09027
  Beta  occ. eigenvalues --  -10.08616  -7.83212  -5.79622  -5.79254  -5.78557
  Beta  occ. eigenvalues --   -0.94358  -0.87651  -0.74791  -0.71850  -0.66721
  Beta  occ. eigenvalues --   -0.62565  -0.59429  -0.54159  -0.51150  -0.49456
  Beta  occ. eigenvalues --   -0.45406  -0.41106  -0.40129  -0.39276  -0.37749
  Beta  occ. eigenvalues --   -0.36139  -0.34438  -0.33566  -0.30823  -0.30419
  Beta  occ. eigenvalues --   -0.29753  -0.28125  -0.27970  -0.27065  -0.26866
  Beta  occ. eigenvalues --   -0.23169  -0.22346  -0.21639  -0.17238  -0.16529
  Beta  occ. eigenvalues --   -0.13188  -0.11710
  Beta virt. eigenvalues --    0.07104   0.08091   0.08193   0.08698   0.09375
  Beta virt. eigenvalues --    0.09790   0.10528   0.10712   0.11521   0.11893
  Beta virt. eigenvalues --    0.12521   0.13017   0.13541   0.14122   0.14299

 Mulliken charges and spin densities:
               1          2
     1  C    0.073001  -0.445709
     2  O   -0.144080   0.018307
     3  C   -0.405393  -0.253398
     4  C   -0.160117   0.222332
     5  S    0.136666  -0.164953
     6  C    0.742944  -1.601929
     7  C    0.129160  -0.316711
     8  N   -0.196739   0.209814
     9  C   -0.353693   0.206084
    10  C    1.481420  -1.740864
    11  N   -0.441349   0.437853
    12  H   -0.132873   0.281971
    13  H   -0.050427   0.187306
    14  H    0.003954   0.151580
    15  H    0.236748  -0.044736
    16  H    0.082813   0.055650
    17  H    0.078149   0.162205
    18  H    0.170117   0.038382
    19  H    0.138579   0.051618
    20  H   -0.548069   0.787784
    21  H   -0.268138   0.443683
    22  H    0.114288   0.005917
    23  H   -0.736990   0.909248
    24  H   -0.521593   0.691657
    25  H   -0.428376   0.706910
 Sum of Mulliken charges =  -1.00000   1.00000

 Dipole moment (field-independent basis, Debye):
    X=             -7.5303    Y=              0.1827    Z=              1.9227  Tot=              7.7741
 Quadrupole moment (field-independent basis, Debye-Ang):
   XX=           -141.8562   YY=           -118.9015   ZZ=           -106.4868
   XY=              6.2650   XZ=              4.6779   YZ=              0.9692

 Summary of Natural Population Analysis:

                                       Natural Population
                Natural  -----------------------------------------------
    Atom  No    Charge         Core      Valence    Rydberg      Total
 -----------------------------------------------------------------------
      C    1   -0.10266      0.99961     2.09283    0.01022     3.10266
      O    2   -0.29992      0.99989     3.29014    0.00989     4.29992
      C    3   -0.01711      0.99956     2.00554    0.01200     3.01711
      C    4   -0.26834      0.99959     2.25835    0.01040     3.26834
      S    5    0.09014      4.99965     2.89230    0.01791     7.90986
      C    6   -0.26709      0.99952     2.25601    0.01156     3.26709
      C    7    0.21143      0.99958     1.76905    0.01994     2.78857
      N    8   -0.27416      0.99968     2.76383    0.01066     3.77416
      C    9   -0.10266      0.99962     2.09204    0.01100     3.10266
      C   10   -0.09120      0.99964     2.08092    0.01064     3.09120
      N   11   -0.32973      0.99967     2.81682    0.01323     3.82973
      H   12    0.08676      0.00000     0.41228    0.00096     0.41324
      H   13    0.08051      0.00000     0.41776    0.00173     0.41949
      H   14    0.08570      0.00000     0.41318    0.00113     0.41430
      H   15    0.08846      0.00000     0.40983    0.00171     0.41154
      H   16    0.08735      0.00000     0.41124    0.00141     0.41265
      H   17    0.10606      0.00000     0.39280    0.00114     0.39394
      H   18    0.10975      0.00000     0.38799    0.00225     0.39025
      H   19    0.11103      0.00000     0.38718    0.00179     0.38897
      H   20    0.11933      0.00000     0.37835    0.00231     0.38067
      H   21    0.09595      0.00000     0.40261    0.00145     0.40405
      H   22    0.08997      0.00000     0.40829    0.00174     0.41003
      H   23    0.09803      0.00000     0.39901    0.00296     0.40197
      H   24    0.09083      0.00000     0.40447    0.00470     0.40917
      H   25    0.20156      0.00000     0.28576    0.01268     0.29844
 =======================================================================
   * Total *   -0.00000     14.99601    31.82858    0.17541    47.00000

 Normal termination of Gaussian 16 at Tue Dec  8 19:38:56 2020.
