 Gaussian 16, Revision A.03,

 -----------------------------------------------------------
 # opt freq B3LYP/6-31G(d) empiricaldispersion=gd3bj scf=xqc
 -----------------------------------------------------------

 -------------------------------
 CID_113619125_JID_8844_neutraal
 -------------------------------
 Symbolic Z-matrix:
 Charge =  0 Multiplicity = 1

 SCF Done:  E(RB3LYP) =  -805.569095193     A.U. after   14 cycles
 SCF Done:  E(RB3LYP) =  -805.572934316     A.U. after   12 cycles
 SCF Done:  E(RB3LYP) =  -805.573440769     A.U. after   11 cycles
 SCF Done:  E(RB3LYP) =  -805.573442418     A.U. after   12 cycles
 SCF Done:  E(RB3LYP) =  -805.573799052     A.U. after   11 cycles
 SCF Done:  E(RB3LYP) =  -805.573968131     A.U. after   12 cycles
 SCF Done:  E(RB3LYP) =  -805.574102627     A.U. after   12 cycles
 SCF Done:  E(RB3LYP) =  -805.574138066     A.U. after   12 cycles
 SCF Done:  E(RB3LYP) =  -805.574154682     A.U. after   10 cycles
 SCF Done:  E(RB3LYP) =  -805.574157204     A.U. after    9 cycles
 SCF Done:  E(RB3LYP) =  -805.574157337     A.U. after    8 cycles
 SCF Done:  E(RB3LYP) =  -805.574157396     A.U. after    8 cycles
 Optimization completed.
    -- Stationary point found.
 Normal termination of Gaussian 16 at Fri Dec 11 22:13:54 2020.

 --------------------------------------------------------------------
 #N Geom=AllCheck Guess=TCheck SCRF=Check GenChk RB3LYP/6-31G(d) Freq
 --------------------------------------------------------------------

 Structure from the checkpoint file:  "JID_8844.chk"
 -------------------------------
 CID_113619125_JID_8844_neutraal
 -------------------------------
 Charge =  0 Multiplicity = 1

 SCF Done:  E(RB3LYP) =  -805.574157396     A.U. after    1 cycles

  Exact polarizability: 190.858  22.739 132.519   6.690  -9.345 151.383
 Approx polarizability: 253.060  38.146 192.195  16.945 -20.430 247.823

                      1                      2                      3
                      A                      A                      A
 Frequencies --     17.8255                21.4668                37.9338
 Red. masses --      4.7177                 3.9843                 3.4229
 Frc consts  --      0.0009                 0.0011                 0.0029
 IR Inten    --      0.0534                 0.0387                 0.0677

                      4                      5                      6
                      A                      A                      A
 Frequencies --     62.2951                70.8831               104.3816
 Red. masses --      7.7307                 5.7178                 3.7055
 Frc consts  --      0.0177                 0.0169                 0.0238
 IR Inten    --      0.6873                 2.2528                 0.4593

                      7                      8                      9
                      A                      A                      A
 Frequencies --    130.5925               186.8392               196.6981
 Red. masses --      3.7024                 3.6485                 1.1426
 Frc consts  --      0.0372                 0.0750                 0.0260
 IR Inten    --      2.0481                 1.1002                 0.4942

                     10                     11                     12
                      A                      A                      A
 Frequencies --    199.4330               251.9257               274.3198
 Red. masses --      3.3157                 3.0304                 4.9110
 Frc consts  --      0.0777                 0.1133                 0.2177
 IR Inten    --      1.8109                 0.7094                 1.8102

                     13                     14                     15
                      A                      A                      A
 Frequencies --    305.5668               325.1319               339.5054
 Red. masses --      2.5242                 3.2878                 2.8410
 Frc consts  --      0.1389                 0.2048                 0.1929
 IR Inten    --      0.4243                 0.6012                 1.1234

                     16                     17                     18
                      A                      A                      A
 Frequencies --    384.2315               413.6182               423.2068
 Red. masses --      5.6429                 1.8458                 3.0733
 Frc consts  --      0.4908                 0.1861                 0.3243
 IR Inten    --      6.2249                 1.7438                 0.0637

                     19                     20                     21
                      A                      A                      A
 Frequencies --    458.5401               486.7757               491.0265
 Red. masses --      2.6057                 3.7850                 2.2713
 Frc consts  --      0.3228                 0.5284                 0.3226
 IR Inten    --      9.7715                35.1133                 1.6796

                     22                     23                     24
                      A                      A                      A
 Frequencies --    509.7261               530.0490               548.3292
 Red. masses --      2.8662                 1.5191                 2.4281
 Frc consts  --      0.4388                 0.2515                 0.4301
 IR Inten    --     20.1957                79.4016                 1.4461

                     25                     26                     27
                      A                      A                      A
 Frequencies --    623.0013               636.4097               642.5969
 Red. masses --      4.4628                 3.1413                 2.8095
 Frc consts  --      1.0205                 0.7496                 0.6835
 IR Inten    --      1.8113                 1.9975                38.9051

                     28                     29                     30
                      A                      A                      A
 Frequencies --    683.8659               702.3630               746.7850
 Red. masses --      4.6354                 2.2493                 3.0342
 Frc consts  --      1.2773                 0.6538                 0.9970
 IR Inten    --      5.7084                18.5453                 8.8868

                     31                     32                     33
                      A                      A                      A
 Frequencies --    751.4917               766.2884               808.7734
 Red. masses --      7.9695                 1.7845                 1.5996
 Frc consts  --      2.6517                 0.6174                 0.6165
 IR Inten    --     14.1939                49.9242                75.7937

                     34                     35                     36
                      A                      A                      A
 Frequencies --    838.6107               840.3433               880.5396
 Red. masses --      1.2568                 4.6389                 2.4220
 Frc consts  --      0.5208                 1.9301                 1.1064
 IR Inten    --      0.3205                 5.0097                 2.8017

                     37                     38                     39
                      A                      A                      A
 Frequencies --    904.2321               911.6894               921.5531
 Red. masses --      2.2984                 1.5949                 1.6210
 Frc consts  --      1.1072                 0.7811                 0.8111
 IR Inten    --      2.1957                 9.7574                12.7351

                     40                     41                     42
                      A                      A                      A
 Frequencies --    930.8650               957.3596               959.4033
 Red. masses --      2.3925                 2.2673                 1.3352
 Frc consts  --      1.2214                 1.2244                 0.7241
 IR Inten    --     13.5452                 8.7058                 0.1988

                     43                     44                     45
                      A                      A                      A
 Frequencies --    985.1632               986.8612              1023.2515
 Red. masses --      1.4101                 1.6421                 2.7243
 Frc consts  --      0.8063                 0.9422                 1.6806
 IR Inten    --      7.0657                14.8634                14.8989

                     46                     47                     48
                      A                      A                      A
 Frequencies --   1025.4026              1035.2480              1050.0718
 Red. masses --      2.9998                 1.8877                 1.5597
 Frc consts  --      1.8584                 1.1920                 1.0132
 IR Inten    --      3.1426                 7.0037                 0.4552

                     49                     50                     51
                      A                      A                      A
 Frequencies --   1057.1565              1089.7204              1108.9172
 Red. masses --      1.9995                 1.9284                 2.2203
 Frc consts  --      1.3166                 1.3492                 1.6087
 IR Inten    --      9.5572                15.8046                21.0856

                     52                     53                     54
                      A                      A                      A
 Frequencies --   1110.6221              1140.0765              1164.7157
 Red. masses --      1.4913                 2.4336                 1.6785
 Frc consts  --      1.0838                 1.8637                 1.3415
 IR Inten    --      7.6068                52.5340                 4.8532

                     55                     56                     57
                      A                      A                      A
 Frequencies --   1175.5490              1190.3064              1191.3459
 Red. masses --      2.9091                 2.3251                 1.1081
 Frc consts  --      2.3686                 1.9409                 0.9266
 IR Inten    --     11.8248                 2.8583                 1.3362

                     58                     59                     60
                      A                      A                      A
 Frequencies --   1201.6878              1229.0238              1250.8238
 Red. masses --      1.1529                 1.3882                 1.3021
 Frc consts  --      0.9809                 1.2354                 1.2003
 IR Inten    --     14.9204                 9.4685                11.2283

                     61                     62                     63
                      A                      A                      A
 Frequencies --   1258.9936              1277.7466              1315.9507
 Red. masses --      4.3814                 1.5098                 1.1983
 Frc consts  --      4.0918                 1.4523                 1.2226
 IR Inten    --    418.3316                77.7262                17.8728

                     64                     65                     66
                      A                      A                      A
 Frequencies --   1333.2184              1340.2678              1346.5625
 Red. masses --      1.3833                 1.2325                 1.7688
 Frc consts  --      1.4486                 1.3045                 1.8897
 IR Inten    --     31.4947                34.7020                 2.2130

                     67                     68                     69
                      A                      A                      A
 Frequencies --   1361.8677              1367.0021              1370.5802
 Red. masses --      1.7868                 2.1886                 1.7775
 Frc consts  --      1.9526                 2.4097                 1.9673
 IR Inten    --    162.6905                15.0330               161.5506

                     70                     71                     72
                      A                      A                      A
 Frequencies --   1388.9590              1410.8456              1417.0555
 Red. masses --      1.4023                 1.5590                 1.3543
 Frc consts  --      1.5939                 1.8284                 1.6023
 IR Inten    --     13.4217                45.7767                 9.3825

                     73                     74                     75
                      A                      A                      A
 Frequencies --   1429.1255              1438.0859              1454.7629
 Red. masses --      1.4687                 1.4344                 1.3743
 Frc consts  --      1.7674                 1.7478                 1.7136
 IR Inten    --     55.4508                 4.5091                 7.8803

                     76                     77                     78
                      A                      A                      A
 Frequencies --   1489.8473              1498.4307              1505.2719
 Red. masses --      1.4883                 1.2812                 2.2766
 Frc consts  --      1.9464                 1.6949                 3.0392
 IR Inten    --     32.3992                 3.7548                 3.6593

                     79                     80                     81
                      A                      A                      A
 Frequencies --   1509.7344              1517.8804              1524.8832
 Red. masses --      1.1177                 1.0785                 1.1139
 Frc consts  --      1.5010                 1.4640                 1.5261
 IR Inten    --     17.3317                14.3199                17.7487

                     82                     83                     84
                      A                      A                      A
 Frequencies --   1530.3683              1538.7171              1542.6132
 Red. masses --      1.0902                 1.0976                 1.0661
 Frc consts  --      1.5043                 1.5311                 1.4947
 IR Inten    --     13.3927                 2.4188                 2.3559

                     85                     86                     87
                      A                      A                      A
 Frequencies --   1546.8088              1655.2819              1663.4748
 Red. masses --      2.2693                 6.0149                 5.9304
 Frc consts  --      3.1990                 9.7101                 9.6687
 IR Inten    --     46.7569                10.5795                20.2676

                     88                     89                     90
                      A                      A                      A
 Frequencies --   1844.4719              2916.4078              2923.0276
 Red. masses --      9.8075                 1.0743                 1.0725
 Frc consts  --     19.6587                 5.3834                 5.3991
 IR Inten    --    502.0121                31.7819               121.9149

                     91                     92                     93
                      A                      A                      A
 Frequencies --   3026.3920              3039.8236              3043.9898
 Red. masses --      1.0826                 1.0813                 1.0598
 Frc consts  --      5.8420                 5.8873                 5.7856
 IR Inten    --      7.7024                38.8860                23.9652

                     94                     95                     96
                      A                      A                      A
 Frequencies --   3052.9343              3076.9987              3080.4461
 Red. masses --      1.0424                 1.0873                 1.0651
 Frc consts  --      5.7244                 6.0651                 5.9547
 IR Inten    --     26.0801                54.0868                16.3463

                     97                     98                     99
                      A                      A                      A
 Frequencies --   3080.8362              3086.4806              3105.8134
 Red. masses --      1.0911                 1.0972                 1.1002
 Frc consts  --      6.1016                 6.1584                 6.2529
 IR Inten    --     40.3941                61.3067                56.1659

                    100                    101                    102
                      A                      A                      A
 Frequencies --   3126.6286              3145.2864              3188.0376
 Red. masses --      1.1051                 1.0987                 1.0853
 Frc consts  --      6.3651                 6.4042                 6.4990
 IR Inten    --     24.5754                20.9492                 0.1710

                    103                    104                    105
                      A                      A                      A
 Frequencies --   3197.7457              3210.2094              3219.5766
 Red. masses --      1.0898                 1.0940                 1.0959
 Frc consts  --      6.5656                 6.6423                 6.6927
 IR Inten    --     15.5061                32.2349                 8.3008

                    106                    107                    108
                      A                      A                      A
 Frequencies --   3253.1957              3507.7244              3641.3258
 Red. masses --      1.0930                 1.0747                 1.0768
 Frc consts  --      6.8156                 7.7912                 8.4119
 IR Inten    --      1.8417                 1.4222                38.7173

 - Thermochemistry -
 -------------------
 Temperature   298.150 Kelvin.  Pressure   1.00000 Atm.
 Atom     1 has atomic number  6 and mass  12.00000

 Molecular mass:   248.15248 amu.
 Principal axes and moments of inertia in atomic units:
                           1         2         3
     Eigenvalues --  2318.822168942.841479632.09056
           X            0.99999   0.00540  -0.00019
           Y           -0.00540   0.99997  -0.00632
           Z            0.00015   0.00632   0.99998
 This molecule is an asymmetric top.
 Rotational symmetry number  1.
 Warning -- assumption of classical behavior for rotation
           may cause significant error
 Rotational temperatures (Kelvin)      0.03735     0.00969     0.00899
 Rotational constants (GHZ):           0.77830     0.20181     0.18737
 Zero-point vibrational energy     867855.5 (Joules/Mol)
                                  207.42244 (Kcal/Mol)
 Warning -- explicit consideration of  24 degrees of freedom as
           vibrations may cause significant error
 Vibrational temperatures:     25.65    30.89    54.58    89.63   101.99
          (Kelvin)            150.18   187.89   268.82   283.00   286.94
                              362.46   394.69   439.64   467.79   488.47
                              552.82   595.10   608.90   659.74   700.36
                              706.48   733.38   762.62   788.92   896.36
                              915.65   924.55   983.93  1010.54  1074.46
                             1081.23  1102.52  1163.64  1206.57  1209.07
                             1266.90  1300.99  1311.72  1325.91  1339.31
                             1377.43  1380.37  1417.43  1419.87  1472.23
                             1475.33  1489.49  1510.82  1521.01  1567.86
                             1595.48  1597.94  1640.32  1675.77  1691.35
                             1712.59  1714.08  1728.96  1768.29  1799.66
                             1811.41  1838.39  1893.36  1918.20  1928.35
                             1937.40  1959.42  1966.81  1971.96  1998.40
                             2029.89  2038.83  2056.19  2069.08  2093.08
                             2143.56  2155.91  2165.75  2172.17  2183.89
                             2193.97  2201.86  2213.87  2219.48  2225.51
                             2381.58  2393.37  2653.78  4196.06  4205.58
                             4354.30  4373.63  4379.62  4392.49  4427.11
                             4432.07  4432.64  4440.76  4468.57  4498.52
                             4525.37  4586.88  4600.84  4618.78  4632.25
                             4680.62  5046.83  5239.06

 Zero-point correction=                           0.330549 (Hartree/Particle)
 Thermal correction to Energy=                    0.347236
 Thermal correction to Enthalpy=                  0.348180
 Thermal correction to Gibbs Free Energy=         0.283724
 Sum of electronic and zero-point Energies=           -805.243609
 Sum of electronic and thermal Energies=              -805.226921
 Sum of electronic and thermal Enthalpies=            -805.225977
 Sum of electronic and thermal Free Energies=         -805.290433

                     E (Thermal)             CV                S
                      KCal/Mol        Cal/Mol-Kelvin    Cal/Mol-Kelvin
 Total                  217.894             64.891            135.660
 Electronic               0.000              0.000              0.000
 Translational            0.889              2.981             42.427
 Rotational               0.889              2.981             33.657
 Vibrational            216.117             58.929             59.576
 Vibration     1          0.593              1.986              6.863
 Vibration     2          0.593              1.985              6.494
 Vibration     3          0.594              1.982              5.364
 Vibration     4          0.597              1.972              4.383
 Vibration     5          0.598              1.968              4.129
 Vibration     6          0.605              1.946              3.371
 Vibration     7          0.612              1.923              2.937
 Vibration     8          0.632              1.858              2.259
 Vibration     9          0.636              1.844              2.164
 Vibration    10          0.638              1.841              2.138
 Vibration    11          0.664              1.760              1.717
 Vibration    12          0.677              1.721              1.569
 Vibration    13          0.696              1.663              1.386
 Vibration    14          0.709              1.625              1.284
 Vibration    15          0.719              1.597              1.214
 Vibration    16          0.753              1.504              1.022
 Vibration    17          0.777              1.441              0.914
 Vibration    18          0.785              1.420              0.881
 Vibration    19          0.817              1.342              0.770
 Vibration    20          0.843              1.279              0.692
 Vibration    21          0.847              1.270              0.681
 Vibration    22          0.865              1.228              0.634
 Vibration    23          0.885              1.184              0.587
 Vibration    24          0.904              1.143              0.548

                           ! Non-Optimized Parameters !
 Normal termination of Gaussian 16 at Fri Dec 11 22:30:30 2020.

 ----------------------------------------------------------------------
 # B3LYP/6-311++G(d,p) empiricaldispersion=gd3bj scf=xqc pop=npa geom=c
 heck
 ----------------------------------------------------------------------

 ---------------------------------------
 CID_113619125_JID_8844_Energie_neutraal
 ---------------------------------------
 Structure from the checkpoint file:  "JID_8844.chk"
 Charge =  0 Multiplicity = 1

 SCF Done:  E(RB3LYP) =  -805.802796521     A.U. after   15 cycles
 Normal termination of Gaussian 16 at Fri Dec 11 22:38:11 2020.

 ----------------------------------------------------------------------
 # B3LYP/6-311++G(d,p) empiricaldispersion=gd3bj scf=xqc pop=npa geom=c
 heck
 ----------------------------------------------------------------------

 -------------------------------------
 CID_113619125_JID_8844_Energie_kation
 -------------------------------------
 Structure from the checkpoint file:  "JID_8844.chk"
 Charge =  1 Multiplicity = 2

 SCF Done:  E(UB3LYP) =  -805.507953242     A.U. after   33 cycles
 SCF Done:  E(UB3LYP) =  -805.507953242     a.u. after    2 cycles
 Normal termination of Gaussian 16 at Fri Dec 11 23:22:01 2020.
 Gaussian 16:  ES64L-G16RevA.03 25-Dec-2016

 ----------------------------------------------------------------------
 # B3LYP/6-311++G(d,p) empiricaldispersion=gd3bj scf=xqc pop=npa geom=c
 heck
 ----------------------------------------------------------------------

 ------------------------------------
 CID_113619125_JID_8844_Energie_anion
 ------------------------------------
 Structure from the checkpoint file:  "JID_8844.chk"
 Charge = -1 Multiplicity = 2

                         Standard orientation:
 ---------------------------------------------------------------------
 Center     Atomic      Atomic             Coordinates (Angstroms)
 Number     Number       Type             X           Y           Z
 ---------------------------------------------------------------------
      1          6           0        3.708164    1.463864   -0.385351
      2          6           0        2.619072    0.446407   -0.750331
      3          6           0        3.211564   -0.736491   -1.534317
      4          7           0        4.090276   -1.521392   -0.667220
      5          6           0        3.344875   -2.147429    0.423606
      6          6           0        2.721709   -1.059841    1.301630
      7          6           0        1.842349   -0.118262    0.463711
      8          6           0        1.209789    0.961463    1.353000
      9          7           0        0.364221    1.911084    0.636863
     10          6           0       -0.866262    1.647306    0.116550
     11          8           0       -1.481939    2.379655   -0.629774
     12          8           0       -1.319113    0.435112    0.588892
     13          6           0       -2.559503   -0.047178    0.184293
     14          6           0       -3.352451   -0.606253    1.183207
     15          6           0       -4.572390   -1.189410    0.842467
     16          6           0       -4.994564   -1.206065   -0.487430
     17          6           0       -4.187193   -0.640398   -1.475934
     18          6           0       -2.961168   -0.060671   -1.150744
     19          1           0        4.185057    1.847199   -1.294604
     20          1           0        4.489479    1.005919    0.226431
     21          1           0        3.305209    2.326502    0.157928
     22          1           0        1.892218    0.941969   -1.407916
     23          1           0        2.377595   -1.340170   -1.945034
     24          1           0        3.798918   -0.367971   -2.383197
     25          1           0        4.567724   -2.233550   -1.214144
     26          1           0        4.033887   -2.763921    1.011646
     27          1           0        2.536907   -2.812089    0.056168
     28          1           0        3.524165   -0.493532    1.790580
     29          1           0        2.121575   -1.523279    2.095189
     30          1           0        1.015101   -0.717061    0.056771
     31          1           0        0.607470    0.484946    2.130920
     32          1           0        1.985190    1.544774    1.859303
     33          1           0        0.790129    2.736066    0.239946
     34          1           0       -3.002982   -0.578877    2.210150
     35          1           0       -5.192230   -1.627648    1.619370
     36          1           0       -5.946539   -1.656434   -0.752405
     37          1           0       -4.510315   -0.649515   -2.512973
     38          1           0       -2.335564    0.388447   -1.910708
 ---------------------------------------------------------------------

 SCF Done:  E(UB3LYP) =  -805.791130230     A.U. after   33 cycles
 SCF Done:  E(UB3LYP) =  -805.791130230     a.u. after    1 cycles

 The electronic state is 2-A.
 Alpha  occ. eigenvalues --  -19.09079 -19.01431 -14.25644 -14.20233 -10.24037
 Alpha  occ. eigenvalues --  -10.15736 -10.12114 -10.09806 -10.09753 -10.09710
 Alpha  occ. eigenvalues --  -10.09612 -10.09509 -10.09451 -10.09323 -10.08390
 Alpha  occ. eigenvalues --  -10.08202 -10.07556 -10.06549  -1.03285  -0.94324
 Alpha  occ. eigenvalues --   -0.85159  -0.81966  -0.77676  -0.72011  -0.67641
 Alpha  occ. eigenvalues --   -0.67443  -0.67089  -0.62684  -0.59209  -0.57448
 Alpha  occ. eigenvalues --   -0.53645  -0.52780  -0.52142  -0.49636  -0.45761
 Alpha  occ. eigenvalues --   -0.43913  -0.42662  -0.42477  -0.41525  -0.39846
 Alpha  occ. eigenvalues --   -0.38539  -0.37318  -0.36409  -0.35997  -0.35770
 Alpha  occ. eigenvalues --   -0.35387  -0.34733  -0.33547  -0.32550  -0.31270
 Alpha  occ. eigenvalues --   -0.30842  -0.29619  -0.29203  -0.28509  -0.28108
 Alpha  occ. eigenvalues --   -0.27316  -0.27249  -0.25471  -0.24654  -0.23526
 Alpha  occ. eigenvalues --   -0.22523  -0.21882  -0.20341  -0.17735  -0.17631
 Alpha  occ. eigenvalues --   -0.16128  -0.13605   0.03863
 Alpha virt. eigenvalues --    0.05209   0.06100   0.06381   0.06539   0.06741
 Alpha virt. eigenvalues --    0.07266   0.07500   0.08571   0.08784   0.09113
 Alpha virt. eigenvalues --    0.09553   0.09796   0.11103   0.11411   0.11906

  Beta  occ. eigenvalues --  -19.09073 -19.01428 -14.25632 -14.20207 -10.24036
  Beta  occ. eigenvalues --  -10.15737 -10.12101 -10.09785 -10.09745 -10.09695
  Beta  occ. eigenvalues --  -10.09592 -10.09496 -10.09445 -10.09313 -10.08387
  Beta  occ. eigenvalues --  -10.08197 -10.07545 -10.06521  -1.03277  -0.94318
  Beta  occ. eigenvalues --   -0.85139  -0.81929  -0.77656  -0.71987  -0.67613
  Beta  occ. eigenvalues --   -0.67418  -0.67065  -0.62652  -0.59165  -0.57420
  Beta  occ. eigenvalues --   -0.53614  -0.52738  -0.52094  -0.49608  -0.45733
  Beta  occ. eigenvalues --   -0.43872  -0.42625  -0.42414  -0.41499  -0.39826
  Beta  occ. eigenvalues --   -0.38514  -0.37291  -0.36389  -0.35967  -0.35744
  Beta  occ. eigenvalues --   -0.35349  -0.34708  -0.33518  -0.32529  -0.31241
  Beta  occ. eigenvalues --   -0.30806  -0.29595  -0.29178  -0.28483  -0.28078
  Beta  occ. eigenvalues --   -0.27296  -0.27219  -0.25438  -0.24633  -0.23501
  Beta  occ. eigenvalues --   -0.22494  -0.21855  -0.20334  -0.17720  -0.17609
  Beta  occ. eigenvalues --   -0.16116  -0.13549
  Beta virt. eigenvalues --    0.05729   0.06090   0.06467   0.06720   0.06931
  Beta virt. eigenvalues --    0.07005   0.07721   0.07877   0.08921   0.09262
  Beta virt. eigenvalues --    0.09484   0.09889   0.09992   0.11287   0.11660

 Mulliken charges and spin densities:
               1          2
     1  C    0.309330  -0.937887
     2  C   -0.439077   0.611354
     3  C    0.271935  -0.825141
     4  N   -0.386751   0.235584
     5  C    0.335830  -0.812558
     6  C   -0.473133  -0.003515
     7  C    0.270819   0.536013
     8  C    0.269792  -1.356845
     9  N   -0.275235   0.131485
    10  C    0.276805  -0.292638
    11  O   -0.266213   0.015971
    12  O    0.048402  -0.016915
    13  C   -0.144048  -0.286914
    14  C   -0.785449   0.740348
    15  C    0.326407  -0.466000
    16  C    0.901297  -1.183046
    17  C   -0.509115   0.278766
    18  C    0.440782  -0.092161
    19  H   -0.090092   0.235597
    20  H    0.154126   0.020975
    21  H   -0.369418   0.470386
    22  H    0.184647   0.040435
    23  H   -0.257211   0.367953
    24  H   -0.197919   0.374165
    25  H   -0.145778   0.413773
    26  H   -0.352728   0.533814
    27  H   -0.156469   0.277314
    28  H    0.130917   0.031154
    29  H   -0.073447   0.210589
    30  H    0.547235  -0.366003
    31  H    0.044586   0.175754
    32  H    0.037367   0.138687
    33  H    0.167177   0.164639
    34  H   -0.162644   0.310484
    35  H   -0.459086   0.641371
    36  H   -0.191652   0.340559
    37  H   -0.086891   0.261468
    38  H    0.104901   0.080986
 Sum of Mulliken charges =  -1.00000   1.00000

 Dipole moment (field-independent basis, Debye):
    X=             -1.1528    Y=              2.1795    Z=              0.9996  Tot=              2.6605
 Quadrupole moment (field-independent basis, Debye-Ang):
   XX=           -217.8343   YY=           -161.1477   ZZ=           -144.3266
   XY=              4.8205   XZ=              9.1615   YZ=              2.6772

 Summary of Natural Population Analysis:

                                       Natural Population
                Natural  -----------------------------------------------
    Atom  No    Charge         Core      Valence    Rydberg      Total
 -----------------------------------------------------------------------
      C    1   -0.29043      0.99964     2.28433    0.00646     3.29043
      C    2   -0.11640      0.99958     2.10565    0.01117     3.11640
      C    3   -0.08329      0.99960     2.07143    0.01226     3.08329
      N    4   -0.34307      0.99974     2.83078    0.01255     3.84307
      C    5   -0.08403      0.99962     2.07305    0.01136     3.08403
      C    6   -0.19419      0.99960     2.18585    0.00874     3.19419
      C    7   -0.11508      0.99956     2.10585    0.00967     3.11508
      C    8   -0.08716      0.99958     2.07597    0.01161     3.08716
      N    9   -0.32137      0.99967     2.81243    0.00927     3.82137
      C   10    0.46220      0.99967     1.51407    0.02405     2.53780
      O   11   -0.32266      0.99987     3.31758    0.00521     4.32266
      O   12   -0.28378      0.99984     3.27542    0.00852     4.28378
      C   13    0.15222      0.99935     1.83610    0.01233     2.84778
      C   14   -0.11509      0.99951     2.10558    0.01000     3.11509
      C   15   -0.09676      0.99957     2.08722    0.00996     3.09676
      C   16   -0.10971      0.99957     2.09980    0.01034     3.10971
      C   17   -0.09578      0.99957     2.08696    0.00925     3.09578
      C   18   -0.11488      0.99951     2.10682    0.00855     3.11488
      H   19    0.10103      0.00000     0.39808    0.00089     0.39897
      H   20    0.10535      0.00000     0.39321    0.00144     0.39465
      H   21    0.09302      0.00000     0.40598    0.00100     0.40698
      H   22    0.09920      0.00000     0.39906    0.00174     0.40080
      H   23    0.08050      0.00000     0.41778    0.00172     0.41950
      H   24    0.09657      0.00000     0.40226    0.00117     0.40343
      H   25    0.17800      0.00000     0.31839    0.00362     0.32200
      H   26    0.09600      0.00000     0.40280    0.00120     0.40400
      H   27    0.07731      0.00000     0.42095    0.00174     0.42269
      H   28    0.09704      0.00000     0.40159    0.00137     0.40296
      H   29    0.10070      0.00000     0.39823    0.00107     0.39930
      H   30    0.10160      0.00000     0.39577    0.00262     0.39840
      H   31    0.10495      0.00000     0.39363    0.00142     0.39505
      H   32    0.09907      0.00000     0.39987    0.00106     0.40093
      H   33    0.19895      0.00000     0.29899    0.00206     0.30105
      H   34    0.10861      0.00000     0.39024    0.00115     0.39139
      H   35    0.10333      0.00000     0.39536    0.00131     0.39667
      H   36    0.10239      0.00000     0.39652    0.00108     0.39761
      H   37    0.10140      0.00000     0.39779    0.00081     0.39860
      H   38    0.11423      0.00000     0.38467    0.00111     0.38577
 =======================================================================
   * Total *   -0.00000     17.99306    48.78605    0.22089    67.00000

 Normal termination of Gaussian 16 at Fri Dec 11 23:47:01 2020.
