 Gaussian 16, Revision A.03,

 -----------------------------------------------------------
 # opt freq B3LYP/6-31G(d) empiricaldispersion=gd3bj scf=xqc
 -----------------------------------------------------------

 ------------------------------
 CID_88514374_JID_1184_neutraal
 ------------------------------
 Symbolic Z-matrix:
 Charge =  0 Multiplicity = 1

 SCF Done:  E(RB3LYP) =  -520.335331923     A.U. after   14 cycles
 SCF Done:  E(RB3LYP) =  -520.327071215     A.U. after   14 cycles
 SCF Done:  E(RB3LYP) =  -520.336837954     A.U. after   13 cycles
 SCF Done:  E(RB3LYP) =  -520.336463484     A.U. after   14 cycles
 SCF Done:  E(RB3LYP) =  -520.338914154     A.U. after   11 cycles
 SCF Done:  E(RB3LYP) =  -520.337719287     A.U. after   12 cycles
 SCF Done:  E(RB3LYP) =  -520.339165744     A.U. after   11 cycles
 SCF Done:  E(RB3LYP) =  -520.339242184     A.U. after   10 cycles
 SCF Done:  E(RB3LYP) =  -520.339323289     A.U. after   11 cycles
 SCF Done:  E(RB3LYP) =  -520.339339259     A.U. after    9 cycles
 SCF Done:  E(RB3LYP) =  -520.339401765     A.U. after   10 cycles
 SCF Done:  E(RB3LYP) =  -520.339409619     A.U. after    9 cycles
 SCF Done:  E(RB3LYP) =  -520.339412096     A.U. after    8 cycles
 SCF Done:  E(RB3LYP) =  -520.339412187     A.U. after    7 cycles
 SCF Done:  E(RB3LYP) =  -520.339412220     A.U. after    6 cycles
 Optimization completed.
    -- Stationary point found.
 Normal termination of Gaussian 16 at Tue Dec  8 19:21:35 2020.

 --------------------------------------------------------------------
 #N Geom=AllCheck Guess=TCheck SCRF=Check GenChk RB3LYP/6-31G(d) Freq
 --------------------------------------------------------------------

 Structure from the checkpoint file:  "JID_1184.chk"
 ------------------------------
 CID_88514374_JID_1184_neutraal
 ------------------------------
 Charge =  0 Multiplicity = 1

 SCF Done:  E(RB3LYP) =  -520.339412220     A.U. after    1 cycles

  Exact polarizability: 111.606   1.580  93.983   1.648  -1.947  84.270
 Approx polarizability: 134.491   2.444 126.545   4.560  -6.443 133.795

                      1                      2                      3
                      A                      A                      A
 Frequencies --     45.6805                51.0381                58.8179
 Red. masses --      2.3913                 2.6970                 3.3681
 Frc consts  --      0.0029                 0.0041                 0.0069
 IR Inten    --      6.5456                 2.2520                 0.4631

                      4                      5                      6
                      A                      A                      A
 Frequencies --     86.2748               102.9834               123.9114
 Red. masses --      1.2336                 2.7160                 3.2094
 Frc consts  --      0.0054                 0.0170                 0.0290
 IR Inten    --      1.4751                 0.2212                 0.8247

                      7                      8                      9
                      A                      A                      A
 Frequencies --    173.7414               201.2142               216.1337
 Red. masses --      2.5468                 4.0028                 3.8306
 Frc consts  --      0.0453                 0.0955                 0.1054
 IR Inten    --      1.0378                 2.6664                 1.5954

                     10                     11                     12
                      A                      A                      A
 Frequencies --    242.5311               298.5773               311.8248
 Red. masses --      1.4311                 2.6083                 1.8415
 Frc consts  --      0.0496                 0.1370                 0.1055
 IR Inten    --      0.5179                 1.4327                 5.5167

                     13                     14                     15
                      A                      A                      A
 Frequencies --    351.7130               372.2546               414.2051
 Red. masses --      1.7878                 1.6840                 2.1763
 Frc consts  --      0.1303                 0.1375                 0.2200
 IR Inten    --     21.0796                71.4233                 3.4071

                     16                     17                     18
                      A                      A                      A
 Frequencies --    424.1232               500.4814               575.9805
 Red. masses --      2.1029                 3.1112                 2.3722
 Frc consts  --      0.2229                 0.4592                 0.4637
 IR Inten    --      9.4846                 8.7423                 0.2708

                     19                     20                     21
                      A                      A                      A
 Frequencies --    606.1249               680.3021               716.7548
 Red. masses --      2.8317                 2.7792                 2.9313
 Frc consts  --      0.6129                 0.7578                 0.8873
 IR Inten    --      4.4383                 1.7281                 4.7551

                     22                     23                     24
                      A                      A                      A
 Frequencies --    787.4604               848.1526               885.2688
 Red. masses --      1.4116                 2.6982                 1.8836
 Frc consts  --      0.5157                 1.1436                 0.8697
 IR Inten    --     10.3076                 7.3330                 5.2103

                     25                     26                     27
                      A                      A                      A
 Frequencies --    891.6338               916.3392               924.9832
 Red. masses --      2.5901                 1.4897                 1.5566
 Frc consts  --      1.2132                 0.7370                 0.7847
 IR Inten    --     18.0023                18.1405                44.0516

                     28                     29                     30
                      A                      A                      A
 Frequencies --    972.7207               992.0271              1036.9575
 Red. masses --      1.5743                 2.9475                 1.8078
 Frc consts  --      0.8777                 1.7091                 1.1453
 IR Inten    --     22.2157                 7.7761                 1.4929

                     31                     32                     33
                      A                      A                      A
 Frequencies --   1057.4891              1076.4434              1081.8751
 Red. masses --      1.7088                 1.7434                 2.2438
 Frc consts  --      1.1259                 1.1902                 1.5474
 IR Inten    --     41.9882                 4.4497                47.0873

                     34                     35                     36
                      A                      A                      A
 Frequencies --   1085.5140              1125.4369              1160.9532
 Red. masses --      1.8218                 2.2564                 1.8472
 Frc consts  --      1.2648                 1.6839                 1.4669
 IR Inten    --     14.7428                27.7676                22.8071

                     37                     38                     39
                      A                      A                      A
 Frequencies --   1181.5661              1211.2757              1267.8346
 Red. masses --      2.1461                 1.3280                 1.3222
 Frc consts  --      1.7653                 1.1480                 1.2522
 IR Inten    --     12.7257                 0.4976                 2.8516

                     40                     41                     42
                      A                      A                      A
 Frequencies --   1283.4583              1300.1173              1314.6574
 Red. masses --      1.5158                 2.0130                 1.2512
 Frc consts  --      1.4711                 2.0047                 1.2741
 IR Inten    --    140.7814               206.6674                23.6993

                     43                     44                     45
                      A                      A                      A
 Frequencies --   1378.9623              1386.1803              1389.8658
 Red. masses --      1.2822                 1.2448                 1.4487
 Frc consts  --      1.4365                 1.4092                 1.6489
 IR Inten    --     14.4215                 7.4475                 6.5235

                     46                     47                     48
                      A                      A                      A
 Frequencies --   1405.1079              1419.8966              1427.6552
 Red. masses --      1.4055                 1.2882                 1.3361
 Frc consts  --      1.6349                 1.5302                 1.6045
 IR Inten    --      0.3487                31.4233                32.9600

                     49                     50                     51
                      A                      A                      A
 Frequencies --   1445.1764              1457.1930              1459.8162
 Red. masses --      1.2757                 1.3395                 1.3712
 Frc consts  --      1.5697                 1.6759                 1.7217
 IR Inten    --      6.1657                33.9446                 0.7220

                     52                     53                     54
                      A                      A                      A
 Frequencies --   1491.6096              1500.5636              1506.3536
 Red. masses --      1.0988                 1.0568                 1.0535
 Frc consts  --      1.4404                 1.4020                 1.4084
 IR Inten    --      5.4249                15.1134                 7.8976

                     55                     56                     57
                      A                      A                      A
 Frequencies --   1520.0618              1524.2256              1531.8492
 Red. masses --      1.0806                 1.0603                 1.0593
 Frc consts  --      1.4710                 1.4514                 1.4645
 IR Inten    --      3.3519                 0.5186                 5.9648

                     58                     59                     60
                      A                      A                      A
 Frequencies --   1540.2291              1542.6561              1708.9931
 Red. masses --      1.0720                 1.0736                 1.1187
 Frc consts  --      1.4983                 1.5053                 1.9250
 IR Inten    --      2.7337                 6.3755                73.9787

                     61                     62                     63
                      A                      A                      A
 Frequencies --   1803.2965              2971.3736              3037.0468
 Red. masses --      8.0562                 1.0723                 1.0672
 Frc consts  --     15.4353                 5.5779                 5.7996
 IR Inten    --    183.4489                73.3353                20.7712

                     64                     65                     66
                      A                      A                      A
 Frequencies --   3044.0300              3045.4621              3048.9281
 Red. masses --      1.0578                 1.0476                 1.0673
 Frc consts  --      5.7747                 5.7244                 5.8458
 IR Inten    --      9.8917                16.1036                30.4241

                     67                     68                     69
                      A                      A                      A
 Frequencies --   3067.8434              3071.2750              3074.9465
 Red. masses --      1.0882                 1.0385                 1.0996
 Frc consts  --      6.0344                 5.7716                 6.1258
 IR Inten    --     47.6172                 1.9337                26.4980

                     70                     71                     72
                      A                      A                      A
 Frequencies --   3087.4030              3097.1361              3111.4650
 Red. masses --      1.0858                 1.0965                 1.1019
 Frc consts  --      6.0980                 6.1969                 6.2854
 IR Inten    --     43.0438                22.9117                52.5387

                     73                     74                     75
                      A                      A                      A
 Frequencies --   3115.6432              3140.0049              3156.0291
 Red. masses --      1.1012                 1.0973                 1.0908
 Frc consts  --      6.2984                 6.3743                 6.4014
 IR Inten    --     44.7973                 6.8293                10.8550

                     76                     77                     78
                      A                      A                      A
 Frequencies --   3181.2201              3477.6830              3562.4680
 Red. masses --      1.1049                 1.0507                 1.0915
 Frc consts  --      6.5882                 7.4869                 8.1613
 IR Inten    --      8.2714                24.3699                20.7132

 - Thermochemistry -
 -------------------
 Temperature   298.150 Kelvin.  Pressure   1.00000 Atm.
 Atom     1 has atomic number  6 and mass  12.00000

 Molecular mass:   159.12593 amu.
 Principal axes and moments of inertia in atomic units:
                           1         2         3
     Eigenvalues --  1299.753102439.160993109.70931
           X            0.99998  -0.00316  -0.00475
           Y            0.00311   0.99993  -0.01123
           Z            0.00479   0.01121   0.99993
 This molecule is an asymmetric top.
 Rotational symmetry number  1.
 Warning -- assumption of classical behavior for rotation
           may cause significant error
 Rotational temperatures (Kelvin)      0.06664     0.03551     0.02785
 Rotational constants (GHZ):           1.38853     0.73990     0.58036
 Zero-point vibrational energy     662052.2 (Joules/Mol)
                                  158.23427 (Kcal/Mol)
 Warning -- explicit consideration of  19 degrees of freedom as
           vibrations may cause significant error
 Vibrational temperatures:     65.72    73.43    84.63   124.13   148.17
          (Kelvin)            178.28   249.98   289.50   310.97   348.95
                              429.59   448.65   506.04   535.59   595.95
                              610.22   720.08   828.71   872.08   978.80
                             1031.25  1132.98  1220.30  1273.70  1282.86
                             1318.41  1330.84  1399.53  1427.31  1491.95
                             1521.49  1548.76  1556.58  1561.81  1619.25
                             1670.35  1700.01  1742.76  1824.13  1846.61
                             1870.58  1891.50  1984.02  1994.40  1999.71
                             2021.64  2042.91  2054.08  2079.29  2096.58
                             2100.35  2146.09  2158.98  2167.31  2187.03
                             2193.02  2203.99  2216.05  2219.54  2458.86
                             2594.54  4275.14  4369.63  4379.68  4381.74
                             4386.73  4413.94  4418.88  4424.16  4442.08
                             4456.09  4476.70  4482.72  4517.77  4540.82
                             4577.07  5003.61  5125.60

 Zero-point correction=                           0.252162 (Hartree/Particle)
 Thermal correction to Energy=                    0.265556
 Thermal correction to Enthalpy=                  0.266501
 Thermal correction to Gibbs Free Energy=         0.211596
 Sum of electronic and zero-point Energies=           -520.087250
 Sum of electronic and thermal Energies=              -520.073856
 Sum of electronic and thermal Enthalpies=            -520.072912
 Sum of electronic and thermal Free Energies=         -520.127816

                     E (Thermal)             CV                S
                      KCal/Mol        Cal/Mol-Kelvin    Cal/Mol-Kelvin
 Total                  166.639             47.931            115.556
 Electronic               0.000              0.000              0.000
 Translational            0.889              2.981             41.103
 Rotational               0.889              2.981             30.667
 Vibrational            164.862             41.970             43.787
 Vibration     1          0.595              1.979              4.996
 Vibration     2          0.595              1.977              4.777
 Vibration     3          0.596              1.974              4.496
 Vibration     4          0.601              1.959              3.743
 Vibration     5          0.605              1.947              3.397
 Vibration     6          0.610              1.929              3.038
 Vibration     7          0.627              1.875              2.395
 Vibration     8          0.638              1.838              2.122
 Vibration     9          0.645              1.816              1.991
 Vibration    10          0.659              1.775              1.784
 Vibration    11          0.692              1.676              1.425
 Vibration    12          0.700              1.651              1.353
 Vibration    13          0.728              1.572              1.159
 Vibration    14          0.744              1.529              1.070
 Vibration    15          0.778              1.439              0.912
 Vibration    16          0.786              1.418              0.878
 Vibration    17          0.856              1.249              0.657
 Vibration    18          0.932              1.083              0.493
 Vibration    19          0.965              1.019              0.439

                           ! Non-Optimized Parameters !
 Normal termination of Gaussian 16 at Tue Dec  8 19:28:02 2020.

 ----------------------------------------------------------------------
 # B3LYP/6-311++G(d,p) empiricaldispersion=gd3bj scf=xqc pop=npa geom=c
 heck
 ----------------------------------------------------------------------

 --------------------------------------
 CID_88514374_JID_1184_Energie_neutraal
 --------------------------------------
 Structure from the checkpoint file:  "JID_1184.chk"
 Charge =  0 Multiplicity = 1

 SCF Done:  E(RB3LYP) =  -520.500783788     A.U. after   14 cycles
 Normal termination of Gaussian 16 at Tue Dec  8 19:30:59 2020.

 ----------------------------------------------------------------------
 # B3LYP/6-311++G(d,p) empiricaldispersion=gd3bj scf=xqc pop=npa geom=c
 heck
 ----------------------------------------------------------------------

 ------------------------------------
 CID_88514374_JID_1184_Energie_kation
 ------------------------------------
 Structure from the checkpoint file:  "JID_1184.chk"
 Charge =  1 Multiplicity = 2

 SCF Done:  E(UB3LYP) =  -520.177954434     A.U. after   21 cycles
 Normal termination of Gaussian 16 at Tue Dec  8 19:37:10 2020.
 Gaussian 16:  ES64L-G16RevA.03 25-Dec-2016

 ----------------------------------------------------------------------
 # B3LYP/6-311++G(d,p) empiricaldispersion=gd3bj scf=xqc pop=npa geom=c
 heck
 ----------------------------------------------------------------------

 -----------------------------------
 CID_88514374_JID_1184_Energie_anion
 -----------------------------------
 Structure from the checkpoint file:  "JID_1184.chk"
 Charge = -1 Multiplicity = 2

                         Standard orientation:
 ---------------------------------------------------------------------
 Center     Atomic      Atomic             Coordinates (Angstroms)
 Number     Number       Type             X           Y           Z
 ---------------------------------------------------------------------
      1          6           0        3.533293   -0.919643    0.300035
      2          6           0        2.657807   -0.254037   -0.766944
      3          6           0        1.171254   -0.646419   -0.722096
      4          6           0        0.497534   -0.313929    0.612211
      5          6           0        0.475849    1.168946    1.015114
      6          6           0        0.019988    2.233663    0.008899
      7          7           0       -1.438080    2.309051   -0.120661
      8          8           0       -0.816256   -0.944051    0.771359
      9          6           0       -1.773357   -0.906822   -0.164809
     10          8           0       -1.680126   -0.381393   -1.258999
     11          6           0       -3.024893   -1.588494    0.338026
     12          1           0        3.280562   -0.582455    1.311753
     13          1           0        4.591616   -0.688958    0.136714
     14          1           0        3.421614   -2.010670    0.276883
     15          1           0        2.755679    0.836807   -0.693996
     16          1           0        3.039589   -0.522567   -1.759857
     17          1           0        0.638752   -0.164186   -1.542099
     18          1           0        1.079430   -1.729065   -0.881581
     19          1           0        1.045766   -0.832382    1.403579
     20          1           0       -0.134358    1.264752    1.920260
     21          1           0        1.508502    1.406807    1.304578
     22          1           0        0.361374    3.198970    0.401793
     23          1           0        0.547948    2.088379   -0.949803
     24          1           0       -1.685570    3.187436   -0.572542
     25          1           0       -1.753087    1.568971   -0.744426
     26          1           0       -2.783328   -2.510444    0.872896
     27          1           0       -3.531886   -0.917537    1.040918
     28          1           0       -3.689837   -1.793261   -0.501937
 ---------------------------------------------------------------------

 SCF Done:  E(UB3LYP) =  -520.484610085     A.U. after   33 cycles
 SCF Done:  E(UB3LYP) =  -520.484610085     a.u. after    1 cycles

 The electronic state is 2-A.
 Alpha  occ. eigenvalues --  -19.06529 -19.01320 -14.18121 -10.20916 -10.13162
 Alpha  occ. eigenvalues --  -10.08715 -10.08183 -10.06641 -10.06537 -10.06342
 Alpha  occ. eigenvalues --  -10.05443  -1.00486  -0.92344  -0.77542  -0.71437
 Alpha  occ. eigenvalues --   -0.66697  -0.64435  -0.60038  -0.56539  -0.50278
 Alpha  occ. eigenvalues --   -0.49044  -0.42867  -0.40644  -0.39432  -0.38549
 Alpha  occ. eigenvalues --   -0.36719  -0.36152  -0.34859  -0.33990  -0.32470
 Alpha  occ. eigenvalues --   -0.31846  -0.30674  -0.29441  -0.28589  -0.27677
 Alpha  occ. eigenvalues --   -0.25886  -0.25598  -0.24571  -0.23713  -0.23029
 Alpha  occ. eigenvalues --   -0.21643  -0.20077  -0.17803  -0.13789   0.04600
 Alpha virt. eigenvalues --    0.06538   0.07023   0.08104   0.08855   0.08960
 Alpha virt. eigenvalues --    0.09501   0.10332   0.10720   0.10803   0.11677
 Alpha virt. eigenvalues --    0.12263   0.12605   0.12810   0.13669   0.14466

  Beta  occ. eigenvalues --  -19.06525 -19.01314 -14.18100 -10.20912 -10.13153
  Beta  occ. eigenvalues --  -10.08694 -10.08149 -10.06621 -10.06518 -10.06331
  Beta  occ. eigenvalues --  -10.05396  -1.00475  -0.92332  -0.77508  -0.71406
  Beta  occ. eigenvalues --   -0.66656  -0.64387  -0.59984  -0.56485  -0.50217
  Beta  occ. eigenvalues --   -0.48970  -0.42823  -0.40604  -0.39405  -0.38519
  Beta  occ. eigenvalues --   -0.36683  -0.36114  -0.34824  -0.33956  -0.32431
  Beta  occ. eigenvalues --   -0.31812  -0.30629  -0.29405  -0.28552  -0.27640
  Beta  occ. eigenvalues --   -0.25848  -0.25550  -0.24529  -0.23679  -0.22996
  Beta  occ. eigenvalues --   -0.21607  -0.20059  -0.17789  -0.13756
  Beta virt. eigenvalues --    0.06745   0.07443   0.07901   0.08593   0.09162
  Beta virt. eigenvalues --    0.09620   0.09966   0.10740   0.11039   0.11245
  Beta virt. eigenvalues --    0.12203   0.12729   0.13061   0.13142   0.14067

 Mulliken charges and spin densities:
               1          2
     1  C    1.625105  -2.223212
     2  C   -1.108459   0.886005
     3  C    0.044306  -0.197997
     4  C   -0.175967   0.207969
     5  C    0.449005  -0.794498
     6  C    0.685369  -1.234943
     7  N   -0.574356   0.227680
     8  O    0.036967   0.037820
     9  C   -1.018363   1.075276
    10  O   -0.254675   0.026569
    11  C    1.419284  -2.099309
    12  H   -0.371870   0.498213
    13  H   -0.529980   0.678663
    14  H   -0.284571   0.424748
    15  H   -0.058192   0.201244
    16  H   -0.263585   0.415537
    17  H    0.075559   0.130772
    18  H   -0.039289   0.200338
    19  H   -0.092716   0.342088
    20  H    0.077374   0.113111
    21  H    0.039395   0.124151
    22  H   -0.359985   0.525110
    23  H   -0.059725   0.177430
    24  H   -0.046603   0.279733
    25  H    0.247317   0.002911
    26  H   -0.293667   0.460034
    27  H   -0.124082   0.306836
    28  H   -0.043596   0.207721
 Sum of Mulliken charges =  -1.00000   1.00000

 Dipole moment (field-independent basis, Debye):
    X=             -3.4197    Y=             -0.0444    Z=             -1.3353  Tot=              3.6714
 Quadrupole moment (field-independent basis, Debye-Ang):
   XX=           -140.7734   YY=           -116.5218   ZZ=           -101.2938
   XY=              2.8139   XZ=             -0.7780   YZ=             -0.3974

 Summary of Natural Population Analysis:

                                       Natural Population
                Natural  -----------------------------------------------
    Atom  No    Charge         Core      Valence    Rydberg      Total
 -----------------------------------------------------------------------
      C    1   -0.28805      0.99967     2.28319    0.00519     3.28805
      C    2   -0.19066      0.99964     2.18204    0.00899     3.19066
      C    3   -0.20774      0.99960     2.19879    0.00935     3.20774
      C    4    0.06889      0.99949     1.91806    0.01356     2.93111
      C    5   -0.20731      0.99959     2.19809    0.00963     3.20731
      C    6   -0.09133      0.99963     2.08038    0.01132     3.09133
      N    7   -0.43129      0.99977     2.92091    0.01061     3.93129
      O    8   -0.28424      0.99985     3.27367    0.01071     4.28424
      C    9    0.41427      0.99970     1.55989    0.02614     2.58573
      O   10   -0.32303      0.99987     3.31728    0.00589     4.32303
      C   11   -0.32924      0.99962     2.32492    0.00471     3.32924
      H   12    0.09610      0.00000     0.40237    0.00153     0.40390
      H   13    0.10182      0.00000     0.39657    0.00161     0.39818
      H   14    0.09664      0.00000     0.40188    0.00148     0.40336
      H   15    0.09517      0.00000     0.40338    0.00145     0.40483
      H   16    0.09695      0.00000     0.40203    0.00103     0.40305
      H   17    0.11156      0.00000     0.38699    0.00146     0.38844
      H   18    0.10013      0.00000     0.39864    0.00123     0.39987
      H   19    0.09611      0.00000     0.40189    0.00200     0.40389
      H   20    0.10637      0.00000     0.39205    0.00158     0.39363
      H   21    0.10595      0.00000     0.39247    0.00158     0.39405
      H   22    0.09184      0.00000     0.40664    0.00151     0.40816
      H   23    0.07978      0.00000     0.41843    0.00178     0.42022
      H   24    0.17202      0.00000     0.32626    0.00172     0.32798
      H   25    0.18417      0.00000     0.31346    0.00237     0.31583
      H   26    0.11197      0.00000     0.38653    0.00150     0.38803
      H   27    0.11554      0.00000     0.38310    0.00135     0.38446
      H   28    0.10759      0.00000     0.39138    0.00102     0.39241
 =======================================================================
   * Total *    0.00000     10.99642    32.86128    0.14231    44.00000

 Normal termination of Gaussian 16 at Tue Dec  8 19:46:54 2020.
