 Gaussian 16, Revision A.03,

 -----------------------------------------------------------
 # opt freq B3LYP/6-31G(d) empiricaldispersion=gd3bj scf=xqc
 -----------------------------------------------------------

 -------------------------------
 CID_113794350_JID_9912_neutraal
 -------------------------------
 Symbolic Z-matrix:
 Charge =  0 Multiplicity = 1

 SCF Done:  E(RB3LYP) =  -881.949836084     A.U. after   15 cycles
 SCF Done:  E(RB3LYP) =  -881.954751535     A.U. after   13 cycles
 SCF Done:  E(RB3LYP) =  -881.955932842     A.U. after   13 cycles
 SCF Done:  E(RB3LYP) =  -881.956296264     A.U. after   12 cycles
 SCF Done:  E(RB3LYP) =  -881.956362112     A.U. after   12 cycles
 SCF Done:  E(RB3LYP) =  -881.957396981     A.U. after   13 cycles
 SCF Done:  E(RB3LYP) =  -881.957315246     A.U. after   12 cycles
 SCF Done:  E(RB3LYP) =  -881.957435298     A.U. after   13 cycles
 SCF Done:  E(RB3LYP) =  -881.957644340     A.U. after   13 cycles
 SCF Done:  E(RB3LYP) =  -881.957844082     A.U. after   12 cycles
 SCF Done:  E(RB3LYP) =  -881.957938644     A.U. after    9 cycles
 SCF Done:  E(RB3LYP) =  -881.957939634     A.U. after    8 cycles
 SCF Done:  E(RB3LYP) =  -881.957940214     A.U. after    8 cycles
 SCF Done:  E(RB3LYP) =  -881.957940320     A.U. after    7 cycles
 SCF Done:  E(RB3LYP) =  -881.957940350     A.U. after    6 cycles
 Optimization completed.
    -- Stationary point found.
 Normal termination of Gaussian 16 at Mon Dec 14 13:40:43 2020.

 --------------------------------------------------------------------
 #N Geom=AllCheck Guess=TCheck SCRF=Check GenChk RB3LYP/6-31G(d) Freq
 --------------------------------------------------------------------

 Structure from the checkpoint file:  "JID_9912.chk"
 -------------------------------
 CID_113794350_JID_9912_neutraal
 -------------------------------
 Charge =  0 Multiplicity = 1

 SCF Done:  E(RB3LYP) =  -881.957940350     A.U. after    1 cycles

  Exact polarizability: 170.768 -10.820 178.939 -12.293  -4.482 131.181
 Approx polarizability: 227.671 -16.737 256.363 -27.789  -9.861 226.906

                      1                      2                      3
                      A                      A                      A
 Frequencies --     16.5841                31.6099                46.9090
 Red. masses --      3.9003                 7.5180                 4.7726
 Frc consts  --      0.0006                 0.0044                 0.0062
 IR Inten    --      0.3213                 3.2918                 1.0044

                      4                      5                      6
                      A                      A                      A
 Frequencies --     60.6293                67.4678                87.5893
 Red. masses --      6.8626                 4.7095                 5.4081
 Frc consts  --      0.0149                 0.0126                 0.0244
 IR Inten    --      0.5003                 0.4955                 4.0809

                      7                      8                      9
                      A                      A                      A
 Frequencies --    125.0814               151.3085               163.0680
 Red. masses --      3.4642                 4.4171                 2.3948
 Frc consts  --      0.0319                 0.0596                 0.0375
 IR Inten    --      0.7830                 0.2438                 0.0552

                     10                     11                     12
                      A                      A                      A
 Frequencies --    175.5590               204.4799               217.5883
 Red. masses --      3.3261                 3.5348                 2.5552
 Frc consts  --      0.0604                 0.0871                 0.0713
 IR Inten    --      0.1251                 0.5827                 4.4020

                     13                     14                     15
                      A                      A                      A
 Frequencies --    231.4699               278.6280               288.7590
 Red. masses --      1.1523                 2.3303                 2.0942
 Frc consts  --      0.0364                 0.1066                 0.1029
 IR Inten    --      0.3108                 0.9303                 0.4271

                     16                     17                     18
                      A                      A                      A
 Frequencies --    304.2212               338.8298               339.6159
 Red. masses --      3.3983                 2.5278                 2.2374
 Frc consts  --      0.1853                 0.1710                 0.1520
 IR Inten    --      0.9467                 0.6077                 0.6915

                     19                     20                     21
                      A                      A                      A
 Frequencies --    373.4520               416.8105               420.4253
 Red. masses --      5.2402                 3.5389                 3.1870
 Frc consts  --      0.4306                 0.3622                 0.3319
 IR Inten    --      2.2332                 0.0942                 0.0615

                     22                     23                     24
                      A                      A                      A
 Frequencies --    440.5540               451.5133               458.6109
 Red. masses --      1.9309                 2.5541                 2.7466
 Frc consts  --      0.2208                 0.3068                 0.3404
 IR Inten    --      0.8120                 0.3385                 0.7845

                     25                     26                     27
                      A                      A                      A
 Frequencies --    512.6877               540.4543               554.0060
 Red. masses --      4.3252                 2.1617                 3.1831
 Frc consts  --      0.6698                 0.3720                 0.5756
 IR Inten    --      3.5690                 1.8658                 3.0968

                     28                     29                     30
                      A                      A                      A
 Frequencies --    585.6152               645.3986               675.7968
 Red. masses --      1.8604                 4.9715                 2.2686
 Frc consts  --      0.3759                 1.2201                 0.6104
 IR Inten    --     36.2904                21.1469                86.8376

                     31                     32                     33
                      A                      A                      A
 Frequencies --    707.3675               720.1125               779.8187
 Red. masses --      2.9933                 2.2449                 1.8888
 Frc consts  --      0.8824                 0.6859                 0.6767
 IR Inten    --     86.1654                 3.4318                 0.9309

                     34                     35                     36
                      A                      A                      A
 Frequencies --    786.9394               791.9040               815.7495
 Red. masses --      2.7835                 4.2282                 1.8383
 Frc consts  --      1.0156                 1.5623                 0.7208
 IR Inten    --     91.5047                34.1039                 1.2113

                     37                     38                     39
                      A                      A                      A
 Frequencies --    836.9438               850.3192               868.9424
 Red. masses --      1.6162                 1.8019                 1.4682
 Frc consts  --      0.6670                 0.7676                 0.6532
 IR Inten    --      7.5860                 7.7474                 2.5523

                     40                     41                     42
                      A                      A                      A
 Frequencies --    899.4275               903.0853               921.1227
 Red. masses --      1.8502                 2.2415                 2.0759
 Frc consts  --      0.8819                 1.0771                 1.0377
 IR Inten    --     11.0927                 4.9517                 0.4410

                     43                     44                     45
                      A                      A                      A
 Frequencies --    951.9974               974.0200               991.6987
 Red. masses --      1.9260                 3.7836                 1.6569
 Frc consts  --      1.0285                 2.1149                 0.9601
 IR Inten    --     17.6002                12.8525                 0.2210

                     46                     47                     48
                      A                      A                      A
 Frequencies --    994.8471              1007.7713              1014.0164
 Red. masses --      2.3323                 1.5618                 7.2932
 Frc consts  --      1.3600                 0.9346                 4.4183
 IR Inten    --     17.5759                 1.0685                11.1994

                     49                     50                     51
                      A                      A                      A
 Frequencies --   1016.9382              1030.5874              1074.1626
 Red. masses --      5.2821                 1.9099                 1.5881
 Frc consts  --      3.2185                 1.1952                 1.0796
 IR Inten    --     16.7046                 1.6430                 1.1176

                     52                     53                     54
                      A                      A                      A
 Frequencies --   1081.1634              1087.7982              1105.0983
 Red. masses --      2.8425                 1.7280                 1.1486
 Frc consts  --      1.9576                 1.2047                 0.8265
 IR Inten    --      4.1328                 4.9576                 0.0976

                     55                     56                     57
                      A                      A                      A
 Frequencies --   1127.3022              1131.4202              1139.6429
 Red. masses --      2.1774                 1.7687                 2.5919
 Frc consts  --      1.6303                 1.3340                 1.9834
 IR Inten    --      7.7555                 3.2287                 0.2783

                     58                     59                     60
                      A                      A                      A
 Frequencies --   1159.6160              1177.2591              1186.8858
 Red. masses --      3.2645                 1.9324                 2.7368
 Frc consts  --      2.5864                 1.5780                 2.2715
 IR Inten    --     33.6406                22.4457               317.6939

                     61                     62                     63
                      A                      A                      A
 Frequencies --   1193.7691              1225.6761              1251.7590
 Red. masses --      2.0948                 1.8850                 1.2692
 Frc consts  --      1.7589                 1.6685                 1.1718
 IR Inten    --      7.6669                 4.5166                 0.6256

                     64                     65                     66
                      A                      A                      A
 Frequencies --   1252.9864              1281.1005              1305.5144
 Red. masses --      1.5769                 1.6031                 1.3231
 Frc consts  --      1.4586                 1.5502                 1.3286
 IR Inten    --      1.2869                 8.9145                 2.6105

                     67                     68                     69
                      A                      A                      A
 Frequencies --   1310.8493              1322.4950              1331.8872
 Red. masses --      1.4381                 1.2095                 1.3248
 Frc consts  --      1.4560                 1.2464                 1.3846
 IR Inten    --      4.9788                 1.5051                 0.7751

                     70                     71                     72
                      A                      A                      A
 Frequencies --   1347.9378              1354.8159              1366.2624
 Red. masses --      1.2810                 1.2570                 1.8720
 Frc consts  --      1.3713                 1.3594                 2.0588
 IR Inten    --      2.0998                 0.7197                19.1158

                     73                     74                     75
                      A                      A                      A
 Frequencies --   1376.8070              1391.3577              1396.3421
 Red. masses --      1.2824                 1.4194                 1.3719
 Frc consts  --      1.4322                 1.6189                 1.5760
 IR Inten    --     21.8521                 2.4693                 0.4625

                     76                     77                     78
                      A                      A                      A
 Frequencies --   1398.2994              1403.9065              1415.9983
 Red. masses --      1.3968                 1.4518                 1.6104
 Frc consts  --      1.6091                 1.6859                 1.9024
 IR Inten    --      0.2327                 4.0924                 1.3494

                     79                     80                     81
                      A                      A                      A
 Frequencies --   1424.9630              1425.8053              1441.8058
 Red. masses --      1.3568                 1.5371                 1.2505
 Frc consts  --      1.6231                 1.8410                 1.5316
 IR Inten    --      3.4384                 2.0901                 3.0051

                     82                     83                     84
                      A                      A                      A
 Frequencies --   1468.9045              1494.9388              1506.9444
 Red. masses --      6.1821                 1.0843                 1.0937
 Frc consts  --      7.8592                 1.4278                 1.4633
 IR Inten    --     43.2790                 0.9621                 2.8964

                     85                     86                     87
                      A                      A                      A
 Frequencies --   1510.8728              1514.8588              1515.5876
 Red. masses --      1.1047                 2.6461                 1.4305
 Frc consts  --      1.4857                 3.5777                 1.9360
 IR Inten    --      1.7767                67.9083                15.4762

                     88                     89                     90
                      A                      A                      A
 Frequencies --   1520.5544              1528.8379              1529.8399
 Red. masses --      1.0902                 1.0608                 1.0513
 Frc consts  --      1.4851                 1.4608                 1.4496
 IR Inten    --      6.2391                 0.9745                 5.1735

                     91                     92                     93
                      A                      A                      A
 Frequencies --   1531.5888              1534.1538              1557.7633
 Red. masses --      1.2421                 1.1045                 1.0790
 Frc consts  --      1.7166                 1.5317                 1.5426
 IR Inten    --     17.5990                14.9516                 5.8816

                     94                     95                     96
                      A                      A                      A
 Frequencies --   1638.3290              1849.8724              2988.7188
 Red. masses --      7.6130                10.3201                 1.0796
 Frc consts  --     12.0396                20.8074                 5.6815
 IR Inten    --      4.0993               255.7860                13.6332

                     97                     98                     99
                      A                      A                      A
 Frequencies --   3003.1705              3005.6527              3010.0686
 Red. masses --      1.0696                 1.0694                 1.0691
 Frc consts  --      5.6835                 5.6918                 5.7074
 IR Inten    --      1.5051                31.1258                 9.0648

                    100                    101                    102
                      A                      A                      A
 Frequencies --   3015.9454              3022.5146              3026.4152
 Red. masses --      1.0659                 1.0732                 1.0657
 Frc consts  --      5.7125                 5.7764                 5.7510
 IR Inten    --     20.1961                11.6513                36.3928

                    103                    104                    105
                      A                      A                      A
 Frequencies --   3030.2887              3040.7553              3048.9098
 Red. masses --      1.0647                 1.0430                 1.0907
 Frc consts  --      5.7604                 5.6819                 5.9739
 IR Inten    --     26.8081                54.9714                88.1090

                    106                    107                    108
                      A                      A                      A
 Frequencies --   3061.0101              3062.8011              3066.7213
 Red. masses --      1.0977                 1.0612                 1.0937
 Frc consts  --      6.0600                 5.8653                 6.0604
 IR Inten    --     31.8576                39.4554                51.7389

                    109                    110                    111
                      A                      A                      A
 Frequencies --   3072.0625              3074.8815              3088.9831
 Red. masses --      1.1016                 1.1028                 1.0909
 Frc consts  --      6.1256                 6.1433                 6.1327
 IR Inten    --     38.4934                92.3027                44.1999

                    112                    113                    114
                      A                      A                      A
 Frequencies --   3101.1853              3110.2933              3135.0739
 Red. masses --      1.0995                 1.1048                 1.0984
 Frc consts  --      6.2303                 6.2969                 6.3605
 IR Inten    --     48.0888                11.4959                24.2169

                    115                    116                    117
                      A                      A                      A
 Frequencies --   3308.8434              3523.8652              3693.6790
 Red. masses --      1.0989                 1.0736                 1.0641
 Frc consts  --      7.0887                 7.8550                 8.5535
 IR Inten    --      1.9127                 3.2270                83.1817

 - Thermochemistry -
 -------------------
 Temperature   298.150 Kelvin.  Pressure   1.00000 Atm.
 Atom     1 has atomic number  6 and mass  12.00000

 Molecular mass:   266.16304 amu.
 Principal axes and moments of inertia in atomic units:
                           1         2         3
     Eigenvalues --  3894.454736256.018828982.41637
           X            0.99952   0.03073  -0.00443
           Y           -0.03075   0.99951  -0.00498
           Z            0.00428   0.00512   0.99998
 This molecule is an asymmetric top.
 Rotational symmetry number  1.
 Warning -- assumption of classical behavior for rotation
           may cause significant error
 Rotational temperatures (Kelvin)      0.02224     0.01384     0.00964
 Rotational constants (GHZ):           0.46341     0.28848     0.20092
 Zero-point vibrational energy     937596.6 (Joules/Mol)
                                  224.09096 (Kcal/Mol)
 Warning -- explicit consideration of  28 degrees of freedom as
           vibrations may cause significant error
 Vibrational temperatures:     23.86    45.48    67.49    87.23    97.07
          (Kelvin)            126.02   179.96   217.70   234.62   252.59
                              294.20   313.06   333.03   400.88   415.46
                              437.71   487.50   488.63   537.31   599.70
                              604.90   633.86   649.63   659.84   737.64
                              777.59   797.09   842.57   928.58   972.32
                             1017.74  1036.08  1121.99  1132.23  1139.37
                             1173.68  1204.18  1223.42  1250.21  1294.08
                             1299.34  1325.29  1369.71  1401.40  1426.83
                             1431.36  1449.96  1458.94  1463.15  1482.79
                             1545.48  1555.55  1565.10  1589.99  1621.94
                             1627.86  1639.69  1668.43  1693.81  1707.66
                             1717.57  1763.47  1801.00  1802.77  1843.22
                             1878.34  1886.02  1902.78  1916.29  1939.38
                             1949.28  1965.75  1980.92  2001.85  2009.02
                             2011.84  2019.91  2037.31  2050.20  2051.42
                             2074.44  2113.43  2150.88  2168.16  2173.81
                             2179.54  2180.59  2187.74  2199.66  2201.10
                             2203.61  2207.31  2241.27  2357.19  2661.55
                             4300.10  4320.89  4324.46  4330.82  4339.27
                             4348.72  4354.34  4359.91  4374.97  4386.70
                             4404.11  4406.69  4412.33  4420.01  4424.07
                             4444.36  4461.91  4475.02  4510.67  4760.69
                             5070.06  5314.38

 Zero-point correction=                           0.357112 (Hartree/Particle)
 Thermal correction to Energy=                    0.375543
 Thermal correction to Enthalpy=                  0.376487
 Thermal correction to Gibbs Free Energy=         0.308896
 Sum of electronic and zero-point Energies=           -881.600829
 Sum of electronic and thermal Energies=              -881.582398
 Sum of electronic and thermal Enthalpies=            -881.581454
 Sum of electronic and thermal Free Energies=         -881.649045

                     E (Thermal)             CV                S
                      KCal/Mol        Cal/Mol-Kelvin    Cal/Mol-Kelvin
 Total                  235.656             70.700            142.257
 Electronic               0.000              0.000              0.000
 Translational            0.889              2.981             42.636
 Rotational               0.889              2.981             33.747
 Vibrational            233.879             64.739             65.874
 Vibration     1          0.593              1.986              7.006
 Vibration     2          0.594              1.983              5.726
 Vibration     3          0.595              1.979              4.944
 Vibration     4          0.597              1.973              4.437
 Vibration     5          0.598              1.970              4.226
 Vibration     6          0.601              1.958              3.713
 Vibration     7          0.610              1.928              3.020
 Vibration     8          0.619              1.901              2.656
 Vibration     9          0.623              1.888              2.514
 Vibration    10          0.628              1.872              2.375
 Vibration    11          0.640              1.834              2.092
 Vibration    12          0.646              1.814              1.979
 Vibration    13          0.653              1.793              1.868
 Vibration    14          0.679              1.713              1.542
 Vibration    15          0.685              1.695              1.481
 Vibration    16          0.695              1.666              1.394
 Vibration    17          0.719              1.598              1.218
 Vibration    18          0.720              1.596              1.214
 Vibration    19          0.745              1.527              1.066
 Vibration    20          0.780              1.434              0.903
 Vibration    21          0.783              1.426              0.891
 Vibration    22          0.800              1.382              0.825
 Vibration    23          0.810              1.358              0.791
 Vibration    24          0.817              1.342              0.770
 Vibration    25          0.868              1.222              0.627
 Vibration    26          0.896              1.161              0.564
 Vibration    27          0.909              1.131              0.536
 Vibration    28          0.943              1.062              0.475

                           ! Non-Optimized Parameters !
 Normal termination of Gaussian 16 at Mon Dec 14 14:05:34 2020.

 ----------------------------------------------------------------------
 # B3LYP/6-311++G(d,p) empiricaldispersion=gd3bj scf=xqc pop=npa geom=c
 heck
 ----------------------------------------------------------------------

 ---------------------------------------
 CID_113794350_JID_9912_Energie_neutraal
 ---------------------------------------
 Structure from the checkpoint file:  "JID_9912.chk"
 Charge =  0 Multiplicity = 1

 SCF Done:  E(RB3LYP) =  -882.210146563     A.U. after   16 cycles
 Normal termination of Gaussian 16 at Mon Dec 14 14:17:50 2020.

 ----------------------------------------------------------------------
 # B3LYP/6-311++G(d,p) empiricaldispersion=gd3bj scf=xqc pop=npa geom=c
 heck
 ----------------------------------------------------------------------

 -------------------------------------
 CID_113794350_JID_9912_Energie_kation
 -------------------------------------
 Structure from the checkpoint file:  "JID_9912.chk"
 Charge =  1 Multiplicity = 2

 SCF Done:  E(UB3LYP) =  -881.890487045     A.U. after   31 cycles
 Normal termination of Gaussian 16 at Mon Dec 14 14:52:30 2020.
 Gaussian 16:  ES64L-G16RevA.03 25-Dec-2016

 ----------------------------------------------------------------------
 # B3LYP/6-311++G(d,p) empiricaldispersion=gd3bj scf=xqc pop=npa geom=c
 heck
 ----------------------------------------------------------------------

 ------------------------------------
 CID_113794350_JID_9912_Energie_anion
 ------------------------------------
 Structure from the checkpoint file:  "JID_9912.chk"
 Charge = -1 Multiplicity = 2

                         Standard orientation:
 ---------------------------------------------------------------------
 Center     Atomic      Atomic             Coordinates (Angstroms)
 Number     Number       Type             X           Y           Z
 ---------------------------------------------------------------------
      1          6           0        0.358792    2.943838    0.439489
      2          6           0        1.330043    1.902503   -0.120478
      3          6           0        2.756254    2.461493   -0.235398
      4          6           0        3.739152    1.417448   -0.777383
      5          6           0        3.714423    0.137363    0.065515
      6          6           0        2.297234   -0.446589    0.179760
      7          6           0        1.330452    0.618017    0.724332
      8          6           0        2.310197   -1.736239    1.021074
      9          6           0        0.983362   -2.497072    1.066402
     10          7           0        0.645347   -3.064451   -0.247613
     11          6           0       -0.785912   -3.153116   -0.518727
     12          6           0       -1.482798   -1.821102   -0.533448
     13          6           0       -2.422176   -1.214121    0.243558
     14          6           0       -2.504053    0.106367   -0.284945
     15          7           0       -1.681953    0.287335   -1.300870
     16          8           0       -1.040421   -0.929995   -1.460739
     17          6           0       -3.348577    1.235382    0.178659
     18          8           0       -3.296612    2.372990   -0.226090
     19          8           0       -4.202295    0.823608    1.148624
     20          1           0        0.613881    3.199581    1.476555
     21          1           0        0.392355    3.868048   -0.149129
     22          1           0       -0.673408    2.581503    0.416989
     23          1           0        0.987663    1.631604   -1.130433
     24          1           0        2.756629    3.352887   -0.875862
     25          1           0        3.089440    2.792047    0.760650
     26          1           0        4.755679    1.829088   -0.809883
     27          1           0        3.467767    1.170583   -1.814046
     28          1           0        4.087690    0.359565    1.076913
     29          1           0        4.393490   -0.613413   -0.359750
     30          1           0        1.967806   -0.688704   -0.843692
     31          1           0        1.621953    0.866258    1.757666
     32          1           0        0.309663    0.223543    0.777026
     33          1           0        3.086508   -2.411867    0.635722
     34          1           0        2.600173   -1.484143    2.049887
     35          1           0        1.056288   -3.320647    1.789182
     36          1           0        0.195173   -1.823518    1.436860
     37          1           0        1.076442   -2.507037   -0.980293
     38          1           0       -0.926261   -3.649495   -1.486032
     39          1           0       -1.261636   -3.781377    0.241670
     40          1           0       -2.973113   -1.625892    1.073890
     41          1           0       -4.711673    1.613339    1.410683
 ---------------------------------------------------------------------

 SCF Done:  E(UB3LYP) =  -882.220905291     A.U. after   33 cycles
 SCF Done:  E(UB3LYP) =  -882.220905291     a.u. after    1 cycles

 The electronic state is 2-A.
 Alpha  occ. eigenvalues --  -19.03721 -19.01762 -18.94042 -14.18989 -14.17207
 Alpha  occ. eigenvalues --  -10.12496 -10.09260 -10.08483 -10.08208 -10.07027
 Alpha  occ. eigenvalues --  -10.06906 -10.06874 -10.06794 -10.06170 -10.05484
 Alpha  occ. eigenvalues --  -10.04883 -10.03615 -10.03517 -10.03369  -0.98341
 Alpha  occ. eigenvalues --   -0.95287  -0.85926  -0.80192  -0.73780  -0.70691
 Alpha  occ. eigenvalues --   -0.68004  -0.65683  -0.64972  -0.61331  -0.56475
 Alpha  occ. eigenvalues --   -0.55853  -0.52944  -0.52092  -0.49114  -0.46321
 Alpha  occ. eigenvalues --   -0.46025  -0.44977  -0.40597  -0.38771  -0.37447
 Alpha  occ. eigenvalues --   -0.36906  -0.36788  -0.34556  -0.34150  -0.33265
 Alpha  occ. eigenvalues --   -0.33115  -0.32295  -0.31269  -0.30700  -0.30298
 Alpha  occ. eigenvalues --   -0.29395  -0.28931  -0.28083  -0.27576  -0.26552
 Alpha  occ. eigenvalues --   -0.26144  -0.25720  -0.25493  -0.24578  -0.23878
 Alpha  occ. eigenvalues --   -0.23044  -0.22754  -0.22174  -0.20847  -0.19340
 Alpha  occ. eigenvalues --   -0.19015  -0.17933  -0.14876  -0.14504  -0.12887
 Alpha  occ. eigenvalues --   -0.12256  -0.11608   0.05074
 Alpha virt. eigenvalues --    0.06647   0.07717   0.08248   0.08798   0.09489
 Alpha virt. eigenvalues --    0.09732   0.09817   0.10822   0.11078   0.11647
 Alpha virt. eigenvalues --    0.12154   0.12590   0.13188   0.13795   0.13804

  Beta  occ. eigenvalues --  -19.03351 -19.01650 -18.93751 -14.18975 -14.16341
  Beta  occ. eigenvalues --  -10.12174 -10.09266 -10.08476 -10.08110 -10.07025
  Beta  occ. eigenvalues --  -10.06903 -10.06873 -10.06791 -10.06169 -10.05482
  Beta  occ. eigenvalues --  -10.04883 -10.03534 -10.03516 -10.03436  -0.97585
  Beta  occ. eigenvalues --   -0.94916  -0.85459  -0.80147  -0.73772  -0.69817
  Beta  occ. eigenvalues --   -0.67953  -0.65589  -0.64789  -0.61238  -0.56472
  Beta  occ. eigenvalues --   -0.55705  -0.52465  -0.51773  -0.49103  -0.46307
  Beta  occ. eigenvalues --   -0.45843  -0.44969  -0.40225  -0.38646  -0.37368
  Beta  occ. eigenvalues --   -0.36852  -0.36703  -0.34530  -0.34008  -0.32954
  Beta  occ. eigenvalues --   -0.32720  -0.31955  -0.31054  -0.30215  -0.29753
  Beta  occ. eigenvalues --   -0.28957  -0.28100  -0.27861  -0.27457  -0.26394
  Beta  occ. eigenvalues --   -0.26039  -0.25668  -0.25369  -0.24457  -0.23859
  Beta  occ. eigenvalues --   -0.22752  -0.22692  -0.22158  -0.20838  -0.19331
  Beta  occ. eigenvalues --   -0.18971  -0.16602  -0.13578  -0.13405  -0.12621
  Beta  occ. eigenvalues --   -0.11772  -0.09445
  Beta virt. eigenvalues --    0.06590   0.07653   0.08165   0.08705   0.09448
  Beta virt. eigenvalues --    0.09677   0.09727   0.10685   0.11025   0.11515
  Beta virt. eigenvalues --    0.12060   0.12454   0.12843   0.13112   0.13689

 Mulliken charges and spin densities:
               1          2
     1  C   -0.644929  -0.071248
     2  C    0.193603   0.048467
     3  C   -0.415906  -0.014837
     4  C   -0.346624  -0.004933
     5  C   -0.184086  -0.187901
     6  C    0.229657   0.234077
     7  C   -0.327374  -0.104714
     8  C   -0.448526  -0.082817
     9  C   -0.370620  -0.094052
    10  N    0.090312  -0.042632
    11  C   -1.133564   0.026852
    12  C    0.157095   0.016154
    13  C   -0.150693   0.011121
    14  C    0.178287  -0.025706
    15  N   -0.366128   0.414857
    16  O    0.182754   0.073171
    17  C    0.040876   0.220131
    18  O   -0.374555   0.102240
    19  O   -0.187111   0.016339
    20  H    0.077783   0.013486
    21  H    0.125375  -0.003956
    22  H    0.186070  -0.000305
    23  H    0.212992   0.005918
    24  H    0.120913   0.014424
    25  H    0.122363  -0.000072
    26  H    0.105583   0.054349
    27  H    0.129285  -0.005313
    28  H    0.096290   0.022087
    29  H    0.076225   0.067950
    30  H    0.106272   0.000963
    31  H    0.152208   0.018456
    32  H    0.160855  -0.038284
    33  H    0.117436   0.038196
    34  H    0.078945   0.032482
    35  H    0.055126   0.111878
    36  H    0.119464   0.004694
    37  H    0.178235   0.039111
    38  H    0.095726   0.070092
    39  H    0.146480   0.006994
    40  H    0.165912   0.010343
    41  H    0.247996   0.001942
 Sum of Mulliken charges =  -1.00000   1.00000

 Dipole moment (field-independent basis, Debye):
    X=              5.8100    Y=             -1.9834    Z=              3.2056  Tot=              6.9258
 Quadrupole moment (field-independent basis, Debye-Ang):
   XX=           -157.7235   YY=           -150.8895   ZZ=           -129.6297
   XY=             12.9815   XZ=             -8.3979   YZ=              2.6140

 Summary of Natural Population Analysis:

                                       Natural Population
                Natural  -----------------------------------------------
    Atom  No    Charge         Core      Valence    Rydberg      Total
 -----------------------------------------------------------------------
      C    1   -0.28393      0.99965     2.27889    0.00539     3.28393
      C    2   -0.11562      0.99960     2.10826    0.00775     3.11562
      C    3   -0.18612      0.99962     2.17872    0.00777     3.18612
      C    4   -0.18811      0.99963     2.18049    0.00798     3.18811
      C    5   -0.18398      0.99962     2.17705    0.00731     3.18398
      C    6   -0.11825      0.99959     2.10542    0.01324     3.11825
      C    7   -0.19013      0.99960     2.18212    0.00840     3.19013
      C    8   -0.18884      0.99961     2.18123    0.00799     3.18884
      C    9   -0.08911      0.99962     2.07911    0.01038     3.08911
      N   10   -0.34217      0.99976     2.82898    0.01343     3.84217
      C   11   -0.10648      0.99959     2.09554    0.01136     3.10648
      C   12    0.15085      0.99950     1.83559    0.01405     2.84915
      C   13   -0.17795      0.99945     2.17077    0.00774     3.17795
      C   14    0.00757      0.99955     1.97789    0.01499     2.99243
      N   15    0.06236      0.99968     2.42309    0.01487     3.43764
      O   16   -0.15425      0.99985     3.14364    0.01077     4.15425
      C   17    0.42865      0.99967     1.54821    0.02347     2.57135
      O   18   -0.29546      0.99987     3.28879    0.00680     4.29546
      O   19   -0.35263      0.99988     3.34514    0.00761     4.35263
      H   20    0.08606      0.00000     0.41305    0.00088     0.41394
      H   21    0.09365      0.00000     0.40553    0.00082     0.40635
      H   22    0.12101      0.00000     0.37797    0.00102     0.37899
      H   23    0.10427      0.00000     0.39407    0.00165     0.39573
      H   24    0.09574      0.00000     0.40306    0.00119     0.40426
      H   25    0.08842      0.00000     0.41012    0.00146     0.41158
      H   26    0.09207      0.00000     0.40647    0.00146     0.40793
      H   27    0.09371      0.00000     0.40494    0.00136     0.40629
      H   28    0.09019      0.00000     0.40850    0.00131     0.40981
      H   29    0.09514      0.00000     0.40368    0.00119     0.40486
      H   30    0.09359      0.00000     0.40333    0.00308     0.40641
      H   31    0.08640      0.00000     0.41234    0.00126     0.41360
      H   32    0.11362      0.00000     0.38480    0.00158     0.38638
      H   33    0.09516      0.00000     0.40338    0.00146     0.40484
      H   34    0.09625      0.00000     0.40266    0.00109     0.40375
      H   35    0.08533      0.00000     0.41322    0.00144     0.41467
      H   36    0.09161      0.00000     0.40659    0.00180     0.40839
      H   37    0.17296      0.00000     0.32327    0.00377     0.32704
      H   38    0.09892      0.00000     0.39954    0.00154     0.40108
      H   39    0.09458      0.00000     0.40437    0.00105     0.40542
      H   40    0.10879      0.00000     0.39033    0.00088     0.39121
      H   41    0.22609      0.00000     0.26833    0.00558     0.27391
 =======================================================================
   * Total *    0.00000     18.99334    52.76849    0.23817    72.00000

 Normal termination of Gaussian 16 at Mon Dec 14 15:28:36 2020.
