 Gaussian 16, Revision A.03,

 -----------------------------------------------------------
 # opt freq B3LYP/6-31G(d) empiricaldispersion=gd3bj scf=xqc
 -----------------------------------------------------------

 ------------------------------
 CID_73554164_JID_8564_neutraal
 ------------------------------
 Symbolic Z-matrix:
 Charge =  0 Multiplicity = 1

 SCF Done:  E(RB3LYP) =  -799.540602494     A.U. after   15 cycles
 SCF Done:  E(RB3LYP) =  -799.544836670     A.U. after   13 cycles
 SCF Done:  E(RB3LYP) =  -799.545555879     A.U. after   12 cycles
 SCF Done:  E(RB3LYP) =  -799.545650632     A.U. after   11 cycles
 SCF Done:  E(RB3LYP) =  -799.545669064     A.U. after   10 cycles
 SCF Done:  E(RB3LYP) =  -799.545669219     A.U. after    9 cycles
 SCF Done:  E(RB3LYP) =  -799.545670566     A.U. after    8 cycles
 Optimization completed.
    -- Stationary point found.
 Normal termination of Gaussian 16 at Fri Dec 11 21:02:59 2020.

 --------------------------------------------------------------------
 #N Geom=AllCheck Guess=TCheck SCRF=Check GenChk RB3LYP/6-31G(d) Freq
 --------------------------------------------------------------------

 Structure from the checkpoint file:  "JID_8564.chk"
 ------------------------------
 CID_73554164_JID_8564_neutraal
 ------------------------------
 Charge =  0 Multiplicity = 1

 SCF Done:  E(RB3LYP) =  -799.545670565     A.U. after    1 cycles

  Exact polarizability: 287.658 -10.504 156.874   2.441   7.852  67.718
 Approx polarizability: 403.482 -21.981 296.381   4.910  14.035 111.666

                      1                      2                      3
                      A                      A                      A
 Frequencies --     44.5490                52.4569                69.8210
 Red. masses --      6.5633                 5.6756                 6.0947
 Frc consts  --      0.0077                 0.0092                 0.0175
 IR Inten    --      0.0029                 0.2769                 4.6487

                      4                      5                      6
                      A                      A                      A
 Frequencies --     79.0360               129.9026               144.5687
 Red. masses --      5.8681                 6.1695                 6.1181
 Frc consts  --      0.0216                 0.0613                 0.0753
 IR Inten    --      0.0977                 1.1081                 1.0663

                      7                      8                      9
                      A                      A                      A
 Frequencies --    221.5385               257.0004               271.6095
 Red. masses --      5.0030                 6.7222                 4.7690
 Frc consts  --      0.1447                 0.2616                 0.2073
 IR Inten    --      0.7312                 1.7213                 5.2554

                     10                     11                     12
                      A                      A                      A
 Frequencies --    304.7511               366.9432               404.3691
 Red. masses --      5.6604                 5.4293                 7.1437
 Frc consts  --      0.3097                 0.4307                 0.6882
 IR Inten    --      2.4586                 7.6520                 7.4226

                     13                     14                     15
                      A                      A                      A
 Frequencies --    413.2502               419.4991               449.5571
 Red. masses --      4.5106                 3.0961                 1.5268
 Frc consts  --      0.4538                 0.3210                 0.1818
 IR Inten    --      7.4366                 1.2378                93.8293

                     16                     17                     18
                      A                      A                      A
 Frequencies --    464.3996               518.5633               548.9457
 Red. masses --      4.6719                 4.0459                 4.4534
 Frc consts  --      0.5936                 0.6410                 0.7907
 IR Inten    --      6.1455                 0.7504                 8.4387

                     19                     20                     21
                      A                      A                      A
 Frequencies --    594.8346               627.9061               635.1573
 Red. masses --      1.5819                 6.5521                 6.1942
 Frc consts  --      0.3298                 1.5220                 1.4723
 IR Inten    --     14.1433                 5.4929                 0.7138

                     22                     23                     24
                      A                      A                      A
 Frequencies --    647.8672               648.9078               659.7230
 Red. masses --      2.0016                 5.7580                 2.8149
 Frc consts  --      0.4950                 1.4285                 0.7218
 IR Inten    --     46.9450                34.1060                17.2377

                     25                     26                     27
                      A                      A                      A
 Frequencies --    701.7757               714.7626               763.4002
 Red. masses --      5.0778                 1.8064                 6.6836
 Frc consts  --      1.4734                 0.5437                 2.2949
 IR Inten    --     61.7399                23.7403                 6.7209

                     28                     29                     30
                      A                      A                      A
 Frequencies --    764.7113               777.6401               806.2754
 Red. masses --      4.4880                 1.9516                 5.2331
 Frc consts  --      1.5463                 0.6953                 2.0044
 IR Inten    --     52.3830                22.3138                15.0796

                     31                     32                     33
                      A                      A                      A
 Frequencies --    818.2886               860.2223               870.6066
 Red. masses --      5.5962                 1.2521                 1.6514
 Frc consts  --      2.2078                 0.5459                 0.7375
 IR Inten    --     13.7099                 0.0603                 3.6518

                     34                     35                     36
                      A                      A                      A
 Frequencies --    900.3073               929.4545               941.4387
 Red. masses --      1.4343                 1.4368                 4.9393
 Frc consts  --      0.6850                 0.7313                 2.5793
 IR Inten    --     13.8938                 0.5711                 2.5756

                     37                     38                     39
                      A                      A                      A
 Frequencies --    946.4144               969.4166               996.3465
 Red. masses --      1.4540                 1.3464                 1.2493
 Frc consts  --      0.7673                 0.7455                 0.7307
 IR Inten    --      1.9213                 0.1822                 0.0692

                     40                     41                     42
                      A                      A                      A
 Frequencies --   1020.9377              1056.1099              1068.9890
 Red. masses --      5.9938                 2.9463                 4.8800
 Frc consts  --      3.6809                 1.9362                 3.2856
 IR Inten    --      0.7716                 1.6263                32.9771

                     43                     44                     45
                      A                      A                      A
 Frequencies --   1079.0031              1115.8303              1127.0450
 Red. masses --      1.9947                 1.5928                 1.4701
 Frc consts  --      1.3683                 1.1685                 1.1002
 IR Inten    --      2.4253                 2.4663                65.2797

                     46                     47                     48
                      A                      A                      A
 Frequencies --   1162.7079              1194.9493              1218.8777
 Red. masses --      3.2570                 1.0943                 1.1394
 Frc consts  --      2.5943                 0.9207                 0.9973
 IR Inten    --    255.3569                 0.0207                 0.8514

                     49                     50                     51
                      A                      A                      A
 Frequencies --   1236.0208              1262.0886              1292.3770
 Red. masses --      1.8475                 2.2428                 1.9063
 Frc consts  --      1.6630                 2.1048                 1.8759
 IR Inten    --     43.1175                 7.1308                26.7482

                     52                     53                     54
                      A                      A                      A
 Frequencies --   1312.3886              1349.1217              1356.4505
 Red. masses --      3.4837                 5.8868                 4.0133
 Frc consts  --      3.5353                 6.3129                 4.3507
 IR Inten    --     14.5449                 8.1923                 5.1609

                     55                     56                     57
                      A                      A                      A
 Frequencies --   1370.7542              1389.1409              1428.5369
 Red. masses --      1.7030                 1.7167                 4.3301
 Frc consts  --      1.8853                 1.9518                 5.2064
 IR Inten    --      1.6047                50.0709                24.2809

                     58                     59                     60
                      A                      A                      A
 Frequencies --   1435.6848              1454.9755              1496.3127
 Red. masses --      3.6434                 3.6231                 2.3005
 Frc consts  --      4.4247                 4.5190                 3.0347
 IR Inten    --     36.5640               120.9252                 2.4809

                     61                     62                     63
                      A                      A                      A
 Frequencies --   1538.3290              1563.0813              1583.4483
 Red. masses --      2.4035                 3.2260                 6.4319
 Frc consts  --      3.3511                 4.6439                 9.5015
 IR Inten    --      7.2513                28.3504                40.1914

                     64                     65                     66
                      A                      A                      A
 Frequencies --   1602.2442              1639.6103              1664.7522
 Red. masses --      5.3557                 5.5903                 5.5927
 Frc consts  --      8.1007                 8.8545                 9.1321
 IR Inten    --    109.8322                 3.3950                16.1607

                     67                     68                     69
                      A                      A                      A
 Frequencies --   1679.1398              1802.7798              3176.8585
 Red. masses --      6.6646                 9.3589                 1.0896
 Frc consts  --     11.0713                17.9209                 6.4791
 IR Inten    --     11.3151               457.0189                21.6250

                     70                     71                     72
                      A                      A                      A
 Frequencies --   3182.7260              3189.3874              3197.1836
 Red. masses --      1.0850                 1.0874                 1.0912
 Frc consts  --      6.4755                 6.5170                 6.5721
 IR Inten    --      5.2159                 1.5974                11.9466

                     73                     74                     75
                      A                      A                      A
 Frequencies --   3200.3143              3205.8846              3214.1136
 Red. masses --      1.0911                 1.0938                 1.0979
 Frc consts  --      6.5843                 6.6232                 6.6826
 IR Inten    --      9.5620                35.3745                21.7424

                     76                     77                     78
                      A                      A                      A
 Frequencies --   3294.1688              3658.6916              3691.5661
 Red. masses --      1.0976                 1.0803                 1.0638
 Frc consts  --      7.0174                 8.5203                 8.5414
 IR Inten    --      3.9920                69.3160                65.7768

 - Thermochemistry -
 -------------------
 Temperature   298.150 Kelvin.  Pressure   1.00000 Atm.
 Atom     1 has atomic number  6 and mass  12.00000

 Molecular mass:   238.07423 amu.
 Principal axes and moments of inertia in atomic units:
                           1         2         3
     Eigenvalues --  1274.853379614.95765**********
           X            1.00000  -0.00245   0.00040
           Y            0.00244   0.99994   0.01062
           Z           -0.00043  -0.01062   0.99994
 This molecule is an asymmetric top.
 Rotational symmetry number  1.
 Warning -- assumption of classical behavior for rotation
           may cause significant error
 Rotational temperatures (Kelvin)      0.06794     0.00901     0.00810
 Rotational constants (GHZ):           1.41565     0.18770     0.16876
 Zero-point vibrational energy     563733.0 (Joules/Mol)
                                  134.73542 (Kcal/Mol)
 Warning -- explicit consideration of  19 degrees of freedom as
           vibrations may cause significant error
 Vibrational temperatures:     64.10    75.47   100.46   113.72   186.90
          (Kelvin)            208.00   318.74   369.77   390.79   438.47
                              527.95   581.80   594.57   603.57   646.81
                              668.17   746.10   789.81   855.83   903.42
                              913.85   932.14   933.63   949.19  1009.70
                             1028.38  1098.36  1100.25  1118.85  1160.05
                             1177.33  1237.67  1252.61  1295.34  1337.28
                             1354.52  1361.68  1394.77  1433.52  1468.90
                             1519.51  1538.04  1552.44  1605.43  1621.57
                             1672.88  1719.27  1753.69  1778.36  1815.86
                             1859.44  1888.23  1941.09  1951.63  1972.21
                             1998.66  2055.35  2065.63  2093.39  2152.86
                             2213.31  2248.93  2278.23  2305.27  2359.03
                             2395.21  2415.91  2593.80  4570.79  4579.23
                             4588.82  4600.03  4604.54  4612.55  4624.39
                             4739.57  5264.04  5311.34

 Zero-point correction=                           0.214715 (Hartree/Particle)
 Thermal correction to Energy=                    0.228379
 Thermal correction to Enthalpy=                  0.229323
 Thermal correction to Gibbs Free Energy=         0.173178
 Sum of electronic and zero-point Energies=           -799.330956
 Sum of electronic and thermal Energies=              -799.317291
 Sum of electronic and thermal Enthalpies=            -799.316347
 Sum of electronic and thermal Free Energies=         -799.372493

                     E (Thermal)             CV                S
                      KCal/Mol        Cal/Mol-Kelvin    Cal/Mol-Kelvin
 Total                  143.310             54.320            118.168
 Electronic               0.000              0.000              0.000
 Translational            0.889              2.981             42.304
 Rotational               0.889              2.981             33.238
 Vibrational            141.533             48.359             42.626
 Vibration     1          0.595              1.980              5.046
 Vibration     2          0.596              1.977              4.723
 Vibration     3          0.598              1.969              4.158
 Vibration     4          0.600              1.963              3.915
 Vibration     5          0.612              1.923              2.947
 Vibration     6          0.616              1.909              2.743
 Vibration     7          0.648              1.808              1.946
 Vibration     8          0.667              1.751              1.682
 Vibration     9          0.675              1.726              1.586
 Vibration    10          0.696              1.665              1.391
 Vibration    11          0.740              1.540              1.093
 Vibration    12          0.770              1.461              0.947
 Vibration    13          0.777              1.441              0.915
 Vibration    14          0.782              1.428              0.894
 Vibration    15          0.808              1.362              0.797
 Vibration    16          0.822              1.329              0.753
 Vibration    17          0.874              1.209              0.613
 Vibration    18          0.904              1.142              0.546
 Vibration    19          0.953              1.043              0.459

 Optimization completed.
    -- Stationary point found.
 Normal termination of Gaussian 16 at Fri Dec 11 21:12:24 2020.

 ----------------------------------------------------------------------
 # B3LYP/6-311++G(d,p) empiricaldispersion=gd3bj scf=xqc pop=npa geom=c
 heck
 ----------------------------------------------------------------------

 --------------------------------------
 CID_73554164_JID_8564_Energie_neutraal
 --------------------------------------
 Structure from the checkpoint file:  "JID_8564.chk"
 Charge =  0 Multiplicity = 1

 SCF Done:  E(RB3LYP) =  -799.763834404     A.U. after   16 cycles
 Normal termination of Gaussian 16 at Fri Dec 11 21:16:16 2020.

 ----------------------------------------------------------------------
 # B3LYP/6-311++G(d,p) empiricaldispersion=gd3bj scf=xqc pop=npa geom=c
 heck
 ----------------------------------------------------------------------

 ------------------------------------
 CID_73554164_JID_8564_Energie_kation
 ------------------------------------
 Structure from the checkpoint file:  "JID_8564.chk"
 Charge =  1 Multiplicity = 2

 SCF Done:  E(UB3LYP) =  -799.475967218     A.U. after   24 cycles
 Normal termination of Gaussian 16 at Fri Dec 11 21:23:59 2020.
 Gaussian 16:  ES64L-G16RevA.03 25-Dec-2016

 ----------------------------------------------------------------------
 # B3LYP/6-311++G(d,p) empiricaldispersion=gd3bj scf=xqc pop=npa geom=c
 heck
 ----------------------------------------------------------------------

 -----------------------------------
 CID_73554164_JID_8564_Energie_anion
 -----------------------------------
 Structure from the checkpoint file:  "JID_8564.chk"
 Charge = -1 Multiplicity = 2

                         Standard orientation:
 ---------------------------------------------------------------------
 Center     Atomic      Atomic             Coordinates (Angstroms)
 Number     Number       Type             X           Y           Z
 ---------------------------------------------------------------------
      1          6           0        5.434361   -0.199548    0.016872
      2          6           0        4.776846    0.884016    0.601455
      3          6           0        3.385033    0.942380    0.600652
      4          6           0        2.621307   -0.077711    0.010832
      5          6           0        3.295553   -1.161247   -0.575181
      6          6           0        4.687511   -1.222103   -0.569929
      7          6           0        1.143810   -0.011108    0.005240
      8          6           0        0.471815    1.200658   -0.181134
      9          6           0       -0.916178    1.154849   -0.166906
     10          6           0       -1.605005   -0.077114    0.022158
     11          6           0       -3.017822    0.225037   -0.033174
     12          6           0       -3.121040    1.584458   -0.248223
     13          7           0       -1.872924    2.142013   -0.329012
     14          6           0       -4.205694   -0.620701    0.093360
     15          8           0       -5.351184   -0.207138    0.024399
     16          8           0       -3.918063   -1.925822    0.298111
     17          7           0       -0.960243   -1.240124    0.206799
     18          6           0        0.367914   -1.183362    0.197207
     19          1           0        6.519491   -0.247064    0.019608
     20          1           0        5.348683    1.680609    1.069302
     21          1           0        2.880265    1.773016    1.085926
     22          1           0        2.723350   -1.946658   -1.059628
     23          1           0        5.189878   -2.066134   -1.034135
     24          1           0        1.018037    2.123360   -0.354867
     25          1           0       -4.018264    2.177441   -0.346039
     26          1           0       -1.684934    3.120880   -0.483846
     27          1           0       -4.783462   -2.370789    0.364576
     28          1           0        0.882637   -2.125236    0.375138
 ---------------------------------------------------------------------

 SCF Done:  E(UB3LYP) =  -799.773675471     A.U. after   30 cycles

 The electronic state is 2-A.
 Alpha  occ. eigenvalues --  -19.04082 -18.97582 -14.23514 -14.15320 -10.16981
 Alpha  occ. eigenvalues --  -10.07501 -10.06550 -10.06251 -10.06178 -10.06108
 Alpha  occ. eigenvalues --  -10.05966 -10.05754 -10.05475 -10.05370 -10.05271
 Alpha  occ. eigenvalues --  -10.03860 -10.03594 -10.03135  -0.97932  -0.88518
 Alpha  occ. eigenvalues --   -0.86070  -0.79097  -0.74208  -0.67959  -0.65298
 Alpha  occ. eigenvalues --   -0.63605  -0.63111  -0.59159  -0.54276  -0.51638
 Alpha  occ. eigenvalues --   -0.50261  -0.48639  -0.45915  -0.44505  -0.41748
 Alpha  occ. eigenvalues --   -0.39640  -0.37760  -0.35954  -0.35100  -0.34411
 Alpha  occ. eigenvalues --   -0.33193  -0.32714  -0.32563  -0.31044  -0.30938
 Alpha  occ. eigenvalues --   -0.29865  -0.28128  -0.27472  -0.26539  -0.25697
 Alpha  occ. eigenvalues --   -0.24713  -0.23381  -0.23179  -0.22556  -0.19766
 Alpha  occ. eigenvalues --   -0.17591  -0.15545  -0.14390  -0.14174  -0.11276
 Alpha  occ. eigenvalues --   -0.10929  -0.09030   0.04251
 Alpha virt. eigenvalues --    0.07384   0.07966   0.08542   0.08929   0.09284
 Alpha virt. eigenvalues --    0.09728   0.09941   0.11058   0.11190   0.12046
 Alpha virt. eigenvalues --    0.12389   0.12872   0.14000   0.14662   0.15264

  Beta  occ. eigenvalues --  -19.04068 -18.97584 -14.23419 -14.15064 -10.16911
  Beta  occ. eigenvalues --  -10.07577 -10.06279 -10.06115 -10.06110 -10.06064
  Beta  occ. eigenvalues --  -10.06006 -10.05661 -10.05333 -10.05331 -10.05204
  Beta  occ. eigenvalues --  -10.03777 -10.03655 -10.02748  -0.97887  -0.88503
  Beta  occ. eigenvalues --   -0.85768  -0.78745  -0.74033  -0.67551  -0.65065
  Beta  occ. eigenvalues --   -0.63327  -0.62908  -0.58851  -0.54059  -0.51183
  Beta  occ. eigenvalues --   -0.49972  -0.48541  -0.45684  -0.44404  -0.41566
  Beta  occ. eigenvalues --   -0.39437  -0.37601  -0.35843  -0.34968  -0.34286
  Beta  occ. eigenvalues --   -0.33022  -0.32526  -0.32275  -0.30965  -0.30836
  Beta  occ. eigenvalues --   -0.29238  -0.27935  -0.27379  -0.26376  -0.25245
  Beta  occ. eigenvalues --   -0.24609  -0.23181  -0.22607  -0.22185  -0.19675
  Beta  occ. eigenvalues --   -0.16497  -0.15533  -0.14082  -0.13119  -0.10954
  Beta  occ. eigenvalues --   -0.10158  -0.07776
  Beta virt. eigenvalues --    0.07330   0.07885   0.08846   0.09093   0.09278
  Beta virt. eigenvalues --    0.09758   0.09915   0.10036   0.11030   0.11880
  Beta virt. eigenvalues --    0.12400   0.12501   0.12848   0.14196   0.14776

 Mulliken charges and spin densities:
               1          2
     1  C   -0.373205   0.107340
     2  C   -0.305245  -0.011402
     3  C   -0.508865   0.049432
     4  C    1.005718   0.046769
     5  C   -0.416088   0.028057
     6  C   -0.326816  -0.004458
     7  C    0.682297   0.036816
     8  C   -0.786527   0.352775
     9  C   -0.265604  -0.083357
    10  C   -0.370922   0.046163
    11  C    0.142696  -0.073517
    12  C   -0.175193   0.394789
    13  N   -0.136317   0.010358
    14  C    0.267676   0.046970
    15  O   -0.385263   0.000686
    16  O   -0.181348   0.002293
    17  N   -0.062892   0.121237
    18  C   -0.395909  -0.022442
    19  H    0.103963  -0.008867
    20  H    0.134531   0.002799
    21  H    0.112805   0.010092
    22  H    0.128304  -0.000798
    23  H    0.136958  -0.000277
    24  H    0.105302  -0.018531
    25  H    0.179862  -0.033356
    26  H    0.262251  -0.000540
    27  H    0.284109  -0.000304
    28  H    0.143722   0.001272
 Sum of Mulliken charges =  -1.00000   1.00000

 Dipole moment (field-independent basis, Debye):
    X=              2.9951    Y=              2.2133    Z=             -0.4371  Tot=              3.7498
 Quadrupole moment (field-independent basis, Debye-Ang):
   XX=           -177.6066   YY=           -103.4943   ZZ=           -114.0129
   XY=              0.7112   XZ=              0.0096   YZ=              1.0528

 Summary of Natural Population Analysis:

                                       Natural Population
                Natural  -----------------------------------------------
    Atom  No    Charge         Core      Valence    Rydberg      Total
 -----------------------------------------------------------------------
      C    1   -0.09265      0.99957     2.08356    0.00951     3.09265
      C    2   -0.11595      0.99959     2.10646    0.00989     3.11595
      C    3   -0.08275      0.99945     2.07495    0.00835     3.08275
      C    4    0.00066      0.99940     1.98935    0.01059     2.99934
      C    5   -0.08685      0.99944     2.07907    0.00834     3.08685
      C    6   -0.11182      0.99959     2.10229    0.00993     3.11182
      C    7   -0.04825      0.99952     2.03912    0.00961     3.04825
      C    8   -0.02350      0.99942     2.01645    0.00764     3.02350
      C    9    0.04394      0.99948     1.94626    0.01032     2.95606
      C   10    0.09248      0.99946     1.89487    0.01319     2.90752
      C   11   -0.15264      0.99942     2.14183    0.01140     3.15264
      C   12    0.13459      0.99957     1.85453    0.01132     2.86541
      N   13   -0.26019      0.99966     2.75281    0.00772     3.76019
      C   14    0.40238      0.99964     1.57382    0.02416     2.59762
      O   15   -0.34154      0.99987     3.33408    0.00758     4.34154
      O   16   -0.33530      0.99988     3.32884    0.00658     4.33530
      N   17   -0.19866      0.99967     2.68631    0.01268     3.69866
      C   18    0.01748      0.99957     1.96911    0.01384     2.98252
      H   19    0.09069      0.00000     0.40825    0.00106     0.40931
      H   20    0.09261      0.00000     0.40631    0.00109     0.40739
      H   21    0.09724      0.00000     0.40087    0.00190     0.40276
      H   22    0.09858      0.00000     0.39969    0.00172     0.40142
      H   23    0.09262      0.00000     0.40630    0.00108     0.40738
      H   24    0.09041      0.00000     0.40777    0.00182     0.40959
      H   25    0.09444      0.00000     0.40462    0.00094     0.40556
      H   26    0.19094      0.00000     0.30722    0.00183     0.30906
      H   27    0.22879      0.00000     0.26810    0.00311     0.27121
      H   28    0.08226      0.00000     0.41612    0.00161     0.41774
 =======================================================================
   * Total *    0.00002     17.99221    43.79896    0.20882    61.99998

 Normal termination of Gaussian 16 at Fri Dec 11 21:33:36 2020.
