 Gaussian 16, Revision A.03,

 -----------------------------------------------------------
 # opt freq B3LYP/6-31G(d) empiricaldispersion=gd3bj scf=xqc
 -----------------------------------------------------------

 -------------------------------
 CID_123524888_JID_3119_neutraal
 -------------------------------
 Symbolic Z-matrix:
 Charge =  0 Multiplicity = 1

 SCF Done:  E(RB3LYP) =  -511.114270875     A.U. after   12 cycles
 SCF Done:  E(RB3LYP) =  -511.116598896     A.U. after   10 cycles
 SCF Done:  E(RB3LYP) =  -511.116584251     A.U. after   10 cycles
 SCF Done:  E(RB3LYP) =  -511.116992149     A.U. after   10 cycles
 SCF Done:  E(RB3LYP) =  -511.117006154     A.U. after    8 cycles
 SCF Done:  E(RB3LYP) =  -511.117015117     A.U. after    8 cycles
 SCF Done:  E(RB3LYP) =  -511.117015590     A.U. after    7 cycles
 SCF Done:  E(RB3LYP) =  -511.117017176     A.U. after    7 cycles
 SCF Done:  E(RB3LYP) =  -511.117017321     A.U. after    6 cycles
 Optimization completed.
    -- Stationary point found.
 Normal termination of Gaussian 16 at Wed Dec  9 22:27:18 2020.

 --------------------------------------------------------------------
 #N Geom=AllCheck Guess=TCheck SCRF=Check GenChk RB3LYP/6-31G(d) Freq
 --------------------------------------------------------------------

 Structure from the checkpoint file:  "JID_3119.chk"
 -------------------------------
 CID_123524888_JID_3119_neutraal
 -------------------------------
 Charge =  0 Multiplicity = 1

 SCF Done:  E(RB3LYP) =  -511.117017321     A.U. after    1 cycles

  Exact polarizability: 143.695  -0.413 134.841   0.113  -0.166 118.842
 Approx polarizability: 186.754  -0.231 186.763  -0.509  -0.795 183.979

                      1                      2                      3
                      A                      A                      A
 Frequencies --     76.4536               119.0067               149.5206
 Red. masses --      2.6989                 2.5470                 2.4880
 Frc consts  --      0.0093                 0.0213                 0.0328
 IR Inten    --      0.0277                 0.0302                 0.0327

                      4                      5                      6
                      A                      A                      A
 Frequencies --    201.9023               211.7282               227.8190
 Red. masses --      1.4236                 2.0900                 1.4155
 Frc consts  --      0.0342                 0.0552                 0.0433
 IR Inten    --      0.0116                 0.0093                 0.0603

                      7                      8                      9
                      A                      A                      A
 Frequencies --    239.8798               247.6348               263.4587
 Red. masses --      1.3756                 2.3720                 2.2685
 Frc consts  --      0.0466                 0.0857                 0.0928
 IR Inten    --      0.0407                 0.0138                 0.1485

                     10                     11                     12
                      A                      A                      A
 Frequencies --    275.5577               296.5489               307.6783
 Red. masses --      1.2385                 1.3882                 1.5967
 Frc consts  --      0.0554                 0.0719                 0.0891
 IR Inten    --      0.1122                 0.0125                 0.1334

                     13                     14                     15
                      A                      A                      A
 Frequencies --    315.0267               323.4688               342.7179
 Red. masses --      1.4368                 2.0226                 2.2942
 Frc consts  --      0.0840                 0.1247                 0.1588
 IR Inten    --      0.0648                 0.0790                 0.0091

                     16                     17                     18
                      A                      A                      A
 Frequencies --    376.5815               390.5694               401.5150
 Red. masses --      1.7175                 2.3116                 2.3408
 Frc consts  --      0.1435                 0.2078                 0.2223
 IR Inten    --      0.0691                 0.0330                 0.0403

                     19                     20                     21
                      A                      A                      A
 Frequencies --    409.3430               432.7787               460.3888
 Red. masses --      1.9029                 2.0369                 2.2949
 Frc consts  --      0.1879                 0.2248                 0.2866
 IR Inten    --      0.1692                 0.0303                 0.1615

                     22                     23                     24
                      A                      A                      A
 Frequencies --    481.6064               533.4023               551.0438
 Red. masses --      2.1961                 1.7941                 3.1230
 Frc consts  --      0.3001                 0.3007                 0.5587
 IR Inten    --      0.2825                 0.1856                 0.2616

                     25                     26                     27
                      A                      A                      A
 Frequencies --    590.0402               667.0960               733.1470
 Red. masses --      2.6084                 2.4190                 2.6446
 Frc consts  --      0.5350                 0.6343                 0.8375
 IR Inten    --      1.0898                 0.8184                 0.3218

                     28                     29                     30
                      A                      A                      A
 Frequencies --    790.1909               826.4154               860.6970
 Red. masses --      1.8671                 2.0602                 1.9392
 Frc consts  --      0.6869                 0.8290                 0.8464
 IR Inten    --      0.7613                 0.5190                 4.4555

                     31                     32                     33
                      A                      A                      A
 Frequencies --    879.1734               893.7518               921.4035
 Red. masses --      2.1402                 1.9339                 1.6670
 Frc consts  --      0.9747                 0.9101                 0.8339
 IR Inten    --      0.5878                 0.3962                 0.9026

                     34                     35                     36
                      A                      A                      A
 Frequencies --    946.1125               951.3184               963.6613
 Red. masses --      1.7374                 1.6144                 1.5933
 Frc consts  --      0.9163                 0.8608                 0.8718
 IR Inten    --      1.2759                 0.8385                 1.3027

                     37                     38                     39
                      A                      A                      A
 Frequencies --    970.4451               981.0439              1007.4135
 Red. masses --      1.5587                 1.9245                 1.9096
 Frc consts  --      0.8649                 1.0913                 1.1419
 IR Inten    --      0.9296                 0.7893                 4.1553

                     40                     41                     42
                      A                      A                      A
 Frequencies --   1013.8306              1035.6409              1043.8727
 Red. masses --      1.7493                 1.3754                 1.3746
 Frc consts  --      1.0594                 0.8692                 0.8825
 IR Inten    --      0.8854                 0.4010                 0.1786

                     43                     44                     45
                      A                      A                      A
 Frequencies --   1062.4268              1085.3696              1098.2387
 Red. masses --      1.9577                 1.9671                 1.7244
 Frc consts  --      1.3020                 1.3653                 1.2254
 IR Inten    --      0.2899                 0.4043                 0.8087

                     46                     47                     48
                      A                      A                      A
 Frequencies --   1123.2664              1129.6112              1156.6896
 Red. masses --      2.1483                 1.7253                 1.8673
 Frc consts  --      1.5970                 1.2971                 1.4720
 IR Inten    --      0.7299                 0.9446                 3.9190

                     49                     50                     51
                      A                      A                      A
 Frequencies --   1185.1424              1197.2974              1228.3914
 Red. masses --      1.9479                 1.5847                 2.0656
 Frc consts  --      1.6120                 1.3385                 1.8364
 IR Inten    --      0.9336                 2.8473                 4.1286

                     52                     53                     54
                      A                      A                      A
 Frequencies --   1241.4978              1252.9449              1264.1463
 Red. masses --      2.2082                 1.7069                 2.3727
 Frc consts  --      2.0053                 1.5788                 2.2340
 IR Inten    --      3.5094                 1.4756                 7.6358

                     55                     56                     57
                      A                      A                      A
 Frequencies --   1281.5023              1303.9822              1345.5317
 Red. masses --      1.4795                 1.4349                 1.3718
 Frc consts  --      1.4316                 1.4376                 1.4633
 IR Inten    --      1.6898                 1.9012                 0.6292

                     58                     59                     60
                      A                      A                      A
 Frequencies --   1354.5442              1367.5252              1386.3345
 Red. masses --      1.2158                 1.3148                 1.3690
 Frc consts  --      1.3143                 1.4488                 1.5502
 IR Inten    --      1.7041                 1.6107                 3.4009

                     61                     62                     63
                      A                      A                      A
 Frequencies --   1400.6637              1402.7948              1413.7093
 Red. masses --      1.3495                 1.3278                 1.3679
 Frc consts  --      1.5599                 1.5394                 1.6108
 IR Inten    --      1.6097                 0.9795                 0.8856

                     64                     65                     66
                      A                      A                      A
 Frequencies --   1420.3261              1425.1289              1429.2571
 Red. masses --      1.3671                 1.3616                 1.2482
 Frc consts  --      1.6249                 1.6294                 1.5023
 IR Inten    --      0.2847                 0.9962                 0.6573

                     67                     68                     69
                      A                      A                      A
 Frequencies --   1429.8110              1440.5062              1455.1030
 Red. masses --      1.2263                 1.2302                 1.2221
 Frc consts  --      1.4771                 1.5041                 1.5246
 IR Inten    --     10.6441                 4.6238                 6.5888

                     70                     71                     72
                      A                      A                      A
 Frequencies --   1460.0331              1506.4215              1509.2635
 Red. masses --      1.2374                 1.0719                 1.0751
 Frc consts  --      1.5542                 1.4332                 1.4429
 IR Inten    --      8.7984                 2.2357                 0.4057

                     73                     74                     75
                      A                      A                      A
 Frequencies --   1514.1019              1522.4378              1522.7355
 Red. masses --      1.0594                 1.0588                 1.0645
 Frc consts  --      1.4309                 1.4459                 1.4542
 IR Inten    --      1.1683                 4.4254                 3.2433

                     76                     77                     78
                      A                      A                      A
 Frequencies --   1523.3660              1527.8798              1530.3408
 Red. masses --      1.0545                 1.0573                 1.0777
 Frc consts  --      1.4418                 1.4542                 1.4870
 IR Inten    --      0.7358                 3.7018                 4.2804

                     79                     80                     81
                      A                      A                      A
 Frequencies --   1535.4171              1537.4705              1541.5352
 Red. masses --      1.0616                 1.0589                 1.0536
 Frc consts  --      1.4745                 1.4748                 1.4752
 IR Inten    --      3.1873                10.9750                 3.8719

                     82                     83                     84
                      A                      A                      A
 Frequencies --   1545.7722              1548.0481              1551.3264
 Red. masses --      1.0524                 1.0552                 1.0697
 Frc consts  --      1.4815                 1.4899                 1.5167
 IR Inten    --      5.0464                 5.7330                 4.4291

                     85                     86                     87
                      A                      A                      A
 Frequencies --   1560.9086              3011.0408              3023.0594
 Red. masses --      1.0626                 1.0610                 1.0648
 Frc consts  --      1.5254                 5.6677                 5.7334
 IR Inten    --      4.7454                24.9754                21.5511

                     88                     89                     90
                      A                      A                      A
 Frequencies --   3030.3030              3034.9535              3037.5775
 Red. masses --      1.0617                 1.0699                 1.0395
 Frc consts  --      5.7441                 5.8064                 5.6510
 IR Inten    --      7.8332                 5.8769                43.6857

                     91                     92                     93
                      A                      A                      A
 Frequencies --   3044.5470              3047.2519              3050.6111
 Red. masses --      1.0788                 1.0424                 1.0506
 Frc consts  --      5.8914                 5.7029                 5.7604
 IR Inten    --     29.4070                11.5646                11.8077

                     94                     95                     96
                      A                      A                      A
 Frequencies --   3053.2686              3054.2727              3057.9513
 Red. masses --      1.0690                 1.0438                 1.0633
 Frc consts  --      5.8718                 5.7367                 5.8581
 IR Inten    --     49.6139                59.6789                30.7951

                     97                     98                     99
                      A                      A                      A
 Frequencies --   3061.5322              3071.8975              3074.0123
 Red. masses --      1.0629                 1.0966                 1.0989
 Frc consts  --      5.8697                 6.0970                 6.1182
 IR Inten    --     11.6389                22.9157                75.0826

                    100                    101                    102
                      A                      A                      A
 Frequencies --   3086.5669              3094.4093              3104.5026
 Red. masses --      1.0862                 1.0930                 1.1014
 Frc consts  --      6.0972                 6.1663                 6.2541
 IR Inten    --     22.8570                42.8023                11.8974

                    103                    104                    105
                      A                      A                      A
 Frequencies --   3106.2678              3108.3575              3111.8801
 Red. masses --      1.1020                 1.1006                 1.0996
 Frc consts  --      6.2649                 6.2656                 6.2736
 IR Inten    --     34.1698                30.9206                90.3574

                    106                    107                    108
                      A                      A                      A
 Frequencies --   3112.7802              3116.4707              3125.2993
 Red. masses --      1.0992                 1.1002                 1.1007
 Frc consts  --      6.2752                 6.2956                 6.3342
 IR Inten    --     32.5040                45.7864                57.1636

                    109                    110                    111
                      A                      A                      A
 Frequencies --   3137.7294              3140.7649              3145.8639
 Red. masses --      1.0992                 1.0993                 1.0971
 Frc consts  --      6.3759                 6.3892                 6.3970
 IR Inten    --     40.0385                24.1213                32.3088

 - Thermochemistry -
 -------------------
 Temperature   298.150 Kelvin.  Pressure   1.00000 Atm.
 Atom     1 has atomic number  6 and mass  12.00000

 Molecular mass:   182.20345 amu.
 Principal axes and moments of inertia in atomic units:
                           1         2         3
     Eigenvalues --  1838.589072608.818533368.07530
           X            0.99999  -0.00292   0.00153
           Y            0.00291   0.99999   0.00264
           Z           -0.00153  -0.00264   1.00000
 This molecule is an asymmetric top.
 Rotational symmetry number  1.
 Warning -- assumption of classical behavior for rotation
           may cause significant error
 Rotational temperatures (Kelvin)      0.04711     0.03320     0.02572
 Rotational constants (GHZ):           0.98159     0.69178     0.53584
 Zero-point vibrational energy     975392.3 (Joules/Mol)
                                  233.12435 (Kcal/Mol)
 Warning -- explicit consideration of  25 degrees of freedom as
           vibrations may cause significant error
 Vibrational temperatures:    110.00   171.22   215.13   290.49   304.63
          (Kelvin)            327.78   345.13   356.29   379.06   396.47
                              426.67   442.68   453.25   465.40   493.09
                              541.82   561.94   577.69   588.95   622.67
                              662.40   692.92   767.45   792.83   848.94
                              959.80  1054.83  1136.91  1189.03  1238.35
                             1264.93  1285.91  1325.69  1361.24  1368.73
                             1386.49  1396.25  1411.50  1449.44  1458.68
                             1490.06  1501.90  1528.60  1561.60  1580.12
                             1616.13  1625.26  1664.22  1705.16  1722.64
                             1767.38  1786.24  1802.71  1818.82  1843.80
                             1876.14  1935.92  1948.89  1967.56  1994.63
                             2015.24  2018.31  2034.01  2043.53  2050.44
                             2056.38  2057.18  2072.57  2093.57  2100.66
                             2167.40  2171.49  2178.45  2190.45  2190.88
                             2191.78  2198.28  2201.82  2209.12  2212.08
                             2217.93  2224.02  2227.30  2232.01  2245.80
                             4332.22  4349.51  4359.93  4366.62  4370.40
                             4380.42  4384.32  4389.15  4392.97  4394.42
                             4399.71  4404.86  4419.78  4422.82  4440.88
                             4452.16  4466.69  4469.23  4472.23  4477.30
                             4478.60  4483.91  4496.61  4514.49  4518.86
                             4526.20

 Zero-point correction=                           0.371507 (Hartree/Particle)
 Thermal correction to Energy=                    0.385954
 Thermal correction to Enthalpy=                  0.386898
 Thermal correction to Gibbs Free Energy=         0.333092
 Sum of electronic and zero-point Energies=           -510.745510
 Sum of electronic and thermal Energies=              -510.731064
 Sum of electronic and thermal Enthalpies=            -510.730119
 Sum of electronic and thermal Free Energies=         -510.783925

                     E (Thermal)             CV                S
                      KCal/Mol        Cal/Mol-Kelvin    Cal/Mol-Kelvin
 Total                  242.190             59.780            113.244
 Electronic               0.000              0.000              0.000
 Translational            0.889              2.981             41.506
 Rotational               0.889              2.981             31.158
 Vibrational            240.412             53.818             40.580
 Vibration     1          0.599              1.965              3.980
 Vibration     2          0.609              1.933              3.116
 Vibration     3          0.618              1.903              2.678
 Vibration     4          0.639              1.837              2.116
 Vibration     5          0.643              1.823              2.029
 Vibration     6          0.651              1.799              1.896
 Vibration     7          0.657              1.779              1.804
 Vibration     8          0.661              1.767              1.747
 Vibration     9          0.670              1.740              1.639
 Vibration    10          0.677              1.719              1.561
 Vibration    11          0.690              1.680              1.436
 Vibration    12          0.698              1.659              1.375
 Vibration    13          0.702              1.645              1.336
 Vibration    14          0.708              1.628              1.293
 Vibration    15          0.722              1.590              1.199
 Vibration    16          0.747              1.520              1.053
 Vibration    17          0.758              1.490              0.998
 Vibration    18          0.767              1.467              0.957
 Vibration    19          0.774              1.450              0.929
 Vibration    20          0.794              1.399              0.850
 Vibration    21          0.818              1.338              0.765
 Vibration    22          0.838              1.291              0.706
 Vibration    23          0.888              1.176              0.580
 Vibration    24          0.906              1.137              0.542
 Vibration    25          0.947              1.053              0.467

 Optimization completed.
    -- Stationary point found.
 Normal termination of Gaussian 16 at Wed Dec  9 22:41:36 2020.

 ----------------------------------------------------------------------
 # B3LYP/6-311++G(d,p) empiricaldispersion=gd3bj scf=xqc pop=npa geom=c
 heck
 ----------------------------------------------------------------------

 ---------------------------------------
 CID_123524888_JID_3119_Energie_neutraal
 ---------------------------------------
 Structure from the checkpoint file:  "JID_3119.chk"
 Charge =  0 Multiplicity = 1

 SCF Done:  E(RB3LYP) =  -511.255905766     A.U. after   12 cycles
 Normal termination of Gaussian 16 at Wed Dec  9 22:47:56 2020.

 ----------------------------------------------------------------------
 # B3LYP/6-311++G(d,p) empiricaldispersion=gd3bj scf=xqc pop=npa geom=c
 heck
 ----------------------------------------------------------------------

 -------------------------------------
 CID_123524888_JID_3119_Energie_kation
 -------------------------------------
 Structure from the checkpoint file:  "JID_3119.chk"
 Charge =  1 Multiplicity = 2

 SCF Done:  E(UB3LYP) =  -510.907248011     A.U. after   33 cycles
 SCF Done:  E(UB3LYP) =  -510.910042982     a.u. after    8 cycles
 Normal termination of Gaussian 16 at Thu Dec 10 00:51:32 2020.
 Gaussian 16:  ES64L-G16RevA.03 25-Dec-2016

 ----------------------------------------------------------------------
 # B3LYP/6-311++G(d,p) empiricaldispersion=gd3bj scf=xqc pop=npa geom=c
 heck
 ----------------------------------------------------------------------

 ------------------------------------
 CID_123524888_JID_3119_Energie_anion
 ------------------------------------
 Structure from the checkpoint file:  "JID_3119.chk"
 Charge = -1 Multiplicity = 2

                         Standard orientation:
 ---------------------------------------------------------------------
 Center     Atomic      Atomic             Coordinates (Angstroms)
 Number     Number       Type             X           Y           Z
 ---------------------------------------------------------------------
      1          6           0       -2.857447    0.122651   -1.126287
      2          6           0       -1.455754    0.337575   -0.520948
      3          6           0       -1.454613    1.714424    0.169503
      4          6           0       -0.113394    2.282827    0.655175
      5          6           0        1.052365    2.149719   -0.350370
      6          6           0        2.093640    1.079654    0.007283
      7          6           0        1.736786   -0.427921   -0.074939
      8          6           0        0.514005   -0.808895    0.821406
      9          6           0       -0.974416   -0.873128    0.342295
     10          6           0       -1.813678   -0.990790    1.632794
     11          6           0       -1.181899   -2.181251   -0.458249
     12          6           0        2.948851   -1.171979    0.532421
     13          6           0        1.633403   -0.876736   -1.543311
     14          1           0       -3.625148    0.014483   -0.351528
     15          1           0       -2.904481   -0.757866   -1.771700
     16          1           0       -3.134972    0.989204   -1.736759
     17          1           0       -0.770801    0.405402   -1.371607
     18          1           0       -1.863035    2.424440   -0.562952
     19          1           0       -2.170433    1.711087    1.002114
     20          1           0        0.175582    1.828386    1.608876
     21          1           0       -0.277472    3.344146    0.880328
     22          1           0        1.590741    3.104526   -0.395230
     23          1           0        0.665426    1.988770   -1.364668
     24          1           0        2.430176    1.284636    1.034339
     25          1           0        2.975180    1.235033   -0.630456
     26          1           0        0.567941   -0.163816    1.705013
     27          1           0        0.712104   -1.816428    1.209759
     28          1           0       -2.880617   -1.102766    1.414246
     29          1           0       -1.503235   -1.870657    2.208779
     30          1           0       -1.690118   -0.115183    2.278885
     31          1           0       -0.785923   -2.111986   -1.475298
     32          1           0       -0.679763   -3.018147    0.040132
     33          1           0       -2.242648   -2.438720   -0.533483
     34          1           0        2.835854   -2.257183    0.424747
     35          1           0        3.881562   -0.878433    0.035911
     36          1           0        3.052918   -0.949233    1.601228
     37          1           0        0.845449   -0.362508   -2.098269
     38          1           0        2.580854   -0.671009   -2.056600
     39          1           0        1.447762   -1.953071   -1.616430
 ---------------------------------------------------------------------

 SCF Done:  E(UB3LYP) =  -511.238706050     A.U. after   31 cycles

 The electronic state is 2-A.
 Alpha  occ. eigenvalues --  -10.08275 -10.08155 -10.06835 -10.05918 -10.05899
 Alpha  occ. eigenvalues --  -10.05869 -10.05831 -10.05807 -10.05537 -10.05531
 Alpha  occ. eigenvalues --  -10.05482 -10.05331 -10.05245  -0.74294  -0.70974
 Alpha  occ. eigenvalues --   -0.68669  -0.64276  -0.60700  -0.58891  -0.57937
 Alpha  occ. eigenvalues --   -0.57231  -0.53988  -0.51501  -0.47126  -0.44228
 Alpha  occ. eigenvalues --   -0.41182  -0.38010  -0.36636  -0.35031  -0.34706
 Alpha  occ. eigenvalues --   -0.34354  -0.32851  -0.32130  -0.31035  -0.30127
 Alpha  occ. eigenvalues --   -0.29557  -0.28663  -0.28368  -0.27834  -0.27398
 Alpha  occ. eigenvalues --   -0.26809  -0.25741  -0.25084  -0.24453  -0.23106
 Alpha  occ. eigenvalues --   -0.22664  -0.22110  -0.21844  -0.20961  -0.19948
 Alpha  occ. eigenvalues --   -0.19026  -0.18696   0.04570
 Alpha virt. eigenvalues --    0.06726   0.06879   0.07389   0.08680   0.08869
 Alpha virt. eigenvalues --    0.09087   0.09362   0.09523   0.11124   0.11329
 Alpha virt. eigenvalues --    0.11661   0.11723   0.12078   0.12471   0.12647

  Beta  occ. eigenvalues --  -10.08273 -10.08153 -10.06829 -10.05904 -10.05882
  Beta  occ. eigenvalues --  -10.05856 -10.05815 -10.05791 -10.05516 -10.05509
  Beta  occ. eigenvalues --  -10.05457 -10.05307 -10.05224  -0.74277  -0.70955
  Beta  occ. eigenvalues --   -0.68641  -0.64247  -0.60665  -0.58848  -0.57891
  Beta  occ. eigenvalues --   -0.57192  -0.53939  -0.51451  -0.47075  -0.44185
  Beta  occ. eigenvalues --   -0.41140  -0.37990  -0.36600  -0.35005  -0.34677
  Beta  occ. eigenvalues --   -0.34322  -0.32827  -0.32095  -0.31003  -0.30098
  Beta  occ. eigenvalues --   -0.29530  -0.28634  -0.28341  -0.27806  -0.27373
  Beta  occ. eigenvalues --   -0.26781  -0.25713  -0.25059  -0.24426  -0.23071
  Beta  occ. eigenvalues --   -0.22632  -0.22086  -0.21815  -0.20932  -0.19922
  Beta  occ. eigenvalues --   -0.19003  -0.18667
  Beta virt. eigenvalues --    0.06578   0.07451   0.07628   0.07983   0.09143
  Beta virt. eigenvalues --    0.09399   0.09583   0.09802   0.09918   0.11544
  Beta virt. eigenvalues --    0.11725   0.12078   0.12095   0.12412   0.12811

 Mulliken charges and spin densities:
               1          2
     1  C    1.076194  -1.625491
     2  C   -0.193570   0.600637
     3  C    0.189053  -0.919858
     4  C   -0.405164   0.066699
     5  C   -0.361863   0.072005
     6  C    0.800709  -1.353556
     7  C   -2.175379   2.927714
     8  C    1.685995  -2.579820
     9  C   -1.909107   2.687326
    10  C    0.482680  -1.077098
    11  C    0.360524  -1.031398
    12  C    0.772008  -1.283965
    13  C    0.529486  -1.167318
    14  H   -0.050501   0.204795
    15  H   -0.107772   0.248183
    16  H   -0.151104   0.288343
    17  H    0.427723  -0.334217
    18  H   -0.032068   0.175978
    19  H    0.100320   0.040823
    20  H   -0.029728   0.132197
    21  H   -0.421560   0.606315
    22  H   -0.640447   0.836056
    23  H   -0.012672   0.135755
    24  H   -0.136904   0.291120
    25  H    0.123482   0.013850
    26  H    0.206179  -0.056092
    27  H    0.229424  -0.039586
    28  H   -0.023120   0.168197
    29  H   -0.062994   0.210511
    30  H   -0.173682   0.327729
    31  H   -0.104144   0.256936
    32  H   -0.092448   0.233016
    33  H   -0.096863   0.249498
    34  H   -0.153609   0.289230
    35  H   -0.118933   0.264787
    36  H   -0.105515   0.251404
    37  H   -0.169436   0.316990
    38  H   -0.350182   0.507302
    39  H    0.094991   0.065000
 Sum of Mulliken charges =  -1.00000   1.00000

 Dipole moment (field-independent basis, Debye):
    X=             -1.1134    Y=             -1.1222    Z=              0.6084  Tot=              1.6938
 Quadrupole moment (field-independent basis, Debye-Ang):
   XX=           -147.9452   YY=           -144.0300   ZZ=           -127.9315
   XY=             -3.9336   XZ=              1.2550   YZ=             -1.1376

 Summary of Natural Population Analysis:

                                       Natural Population
                Natural  -----------------------------------------------
    Atom  No    Charge         Core      Valence    Rydberg      Total
 -----------------------------------------------------------------------
      C    1   -0.28277      0.99965     2.27719    0.00594     3.28277
      C    2   -0.11292      0.99955     2.10269    0.01068     3.11292
      C    3   -0.18437      0.99960     2.17594    0.00882     3.18437
      C    4   -0.19004      0.99962     2.18214    0.00828     3.19004
      C    5   -0.19246      0.99962     2.18401    0.00883     3.19246
      C    6   -0.18185      0.99958     2.17192    0.01035     3.18185
      C    7   -0.04583      0.99956     2.03412    0.01214     3.04583
      C    8   -0.18617      0.99956     2.17446    0.01215     3.18617
      C    9   -0.04046      0.99956     2.02685    0.01405     3.04046
      C   10   -0.28582      0.99963     2.27869    0.00750     3.28582
      C   11   -0.28541      0.99963     2.27851    0.00727     3.28541
      C   12   -0.27896      0.99963     2.27191    0.00741     3.27896
      C   13   -0.28549      0.99962     2.27857    0.00730     3.28549
      H   14    0.09610      0.00000     0.40293    0.00097     0.40390
      H   15    0.10037      0.00000     0.39877    0.00085     0.39963
      H   16    0.09848      0.00000     0.40064    0.00087     0.40152
      H   17    0.09737      0.00000     0.39987    0.00276     0.40263
      H   18    0.09492      0.00000     0.40391    0.00117     0.40508
      H   19    0.09682      0.00000     0.40208    0.00110     0.40318
      H   20    0.09280      0.00000     0.40566    0.00154     0.40720
      H   21    0.09817      0.00000     0.40062    0.00121     0.40183
      H   22    0.09979      0.00000     0.39898    0.00123     0.40021
      H   23    0.09406      0.00000     0.40423    0.00171     0.40594
      H   24    0.09410      0.00000     0.40449    0.00141     0.40590
      H   25    0.09810      0.00000     0.40062    0.00128     0.40190
      H   26    0.10008      0.00000     0.39831    0.00161     0.39992
      H   27    0.09801      0.00000     0.40050    0.00148     0.40199
      H   28    0.09989      0.00000     0.39920    0.00092     0.40011
      H   29    0.09992      0.00000     0.39918    0.00090     0.40008
      H   30    0.09967      0.00000     0.39940    0.00093     0.40033
      H   31    0.10188      0.00000     0.39701    0.00110     0.39812
      H   32    0.09864      0.00000     0.40041    0.00095     0.40136
      H   33    0.09928      0.00000     0.39976    0.00096     0.40072
      H   34    0.09779      0.00000     0.40129    0.00093     0.40221
      H   35    0.09891      0.00000     0.40006    0.00103     0.40109
      H   36    0.09871      0.00000     0.40035    0.00094     0.40129
      H   37    0.09854      0.00000     0.40014    0.00131     0.40146
      H   38    0.09990      0.00000     0.39905    0.00105     0.40010
      H   39    0.10025      0.00000     0.39871    0.00104     0.39975
 =======================================================================
   * Total *    0.00000     12.99482    38.85321    0.15197    52.00000

 Normal termination of Gaussian 16 at Thu Dec 10 01:11:18 2020.
