 Gaussian 16, Revision A.03,

 -----------------------------------------------------------
 # opt freq B3LYP/6-31G(d) empiricaldispersion=gd3bj scf=xqc
 -----------------------------------------------------------

 ------------------------------
 CID_82207277_JID_7544_neutraal
 ------------------------------
 Symbolic Z-matrix:
 Charge =  0 Multiplicity = 1

 SCF Done:  E(RB3LYP) =  -781.019935851     A.U. after   14 cycles
 SCF Done:  E(RB3LYP) =  -781.022960469     A.U. after   12 cycles
 SCF Done:  E(RB3LYP) =  -781.023791753     A.U. after   12 cycles
 SCF Done:  E(RB3LYP) =  -781.024481089     A.U. after   14 cycles
 SCF Done:  E(RB3LYP) =  -781.025309732     A.U. after   12 cycles
 SCF Done:  E(RB3LYP) =  -781.025798460     A.U. after   12 cycles
 SCF Done:  E(RB3LYP) =  -781.025892089     A.U. after   11 cycles
 SCF Done:  E(RB3LYP) =  -781.025982488     A.U. after   10 cycles
 SCF Done:  E(RB3LYP) =  -781.026036504     A.U. after   11 cycles
 SCF Done:  E(RB3LYP) =  -781.026062578     A.U. after   10 cycles
 SCF Done:  E(RB3LYP) =  -781.026081603     A.U. after   10 cycles
 SCF Done:  E(RB3LYP) =  -781.026092816     A.U. after    9 cycles
 SCF Done:  E(RB3LYP) =  -781.026099996     A.U. after   10 cycles
 SCF Done:  E(RB3LYP) =  -781.026101128     A.U. after    9 cycles
 SCF Done:  E(RB3LYP) =  -781.026101297     A.U. after    8 cycles
 Optimization completed.
    -- Stationary point found.
 Normal termination of Gaussian 16 at Mon Dec 14 16:41:27 2020.

 --------------------------------------------------------------------
 #N Geom=AllCheck Guess=TCheck SCRF=Check GenChk RB3LYP/6-31G(d) Freq
 --------------------------------------------------------------------

 Structure from the checkpoint file:  "JID_7544.chk"
 ------------------------------
 CID_82207277_JID_7544_neutraal
 ------------------------------
 Charge =  0 Multiplicity = 1

 SCF Done:  E(RB3LYP) =  -781.026101297     A.U. after    1 cycles

  Exact polarizability: 215.371  -2.254 145.958  -2.390 -12.808  97.067
 Approx polarizability: 317.641   1.156 230.869  -7.912 -36.910 155.073

                      1                      2                      3
                      A                      A                      A
 Frequencies --     39.4292                50.3865                62.5948
 Red. masses --      2.9272                 4.2157                 3.4459
 Frc consts  --      0.0027                 0.0063                 0.0080
 IR Inten    --      0.3138                 0.4214                 1.3660

                      4                      5                      6
                      A                      A                      A
 Frequencies --     81.8282                95.5319               111.7678
 Red. masses --      4.3223                 4.2475                 5.0169
 Frc consts  --      0.0171                 0.0228                 0.0369
 IR Inten    --      0.2538                 5.0618                 4.6530

                      7                      8                      9
                      A                      A                      A
 Frequencies --    113.3026               172.6511               198.3360
 Red. masses --      3.3711                 4.5760                 2.5984
 Frc consts  --      0.0255                 0.0804                 0.0602
 IR Inten    --      1.2235                 0.4264                 0.6289

                     10                     11                     12
                      A                      A                      A
 Frequencies --    209.5798               229.9768               258.6846
 Red. masses --      1.9328                 1.6874                 1.4905
 Frc consts  --      0.0500                 0.0526                 0.0588
 IR Inten    --      1.9565                 1.8155                 1.0390

                     13                     14                     15
                      A                      A                      A
 Frequencies --    273.5035               293.3929               342.0672
 Red. masses --      2.4628                 2.8616                 2.6838
 Frc consts  --      0.1085                 0.1451                 0.1850
 IR Inten    --      0.8004                 6.3573                19.2739

                     16                     17                     18
                      A                      A                      A
 Frequencies --    358.9241               395.3928               430.5962
 Red. masses --      2.5418                 1.6003                 3.2489
 Frc consts  --      0.1929                 0.1474                 0.3549
 IR Inten    --     19.4766               120.7328                 2.6005

                     19                     20                     21
                      A                      A                      A
 Frequencies --    436.1343               480.0890               486.8139
 Red. masses --      4.9513                 4.7813                 4.0284
 Frc consts  --      0.5549                 0.6493                 0.5625
 IR Inten    --      3.2085                 2.2163                 4.3593

                     22                     23                     24
                      A                      A                      A
 Frequencies --    520.2952               560.6732               612.5789
 Red. masses --      4.0736                 2.6730                 5.1812
 Frc consts  --      0.6497                 0.4951                 1.1455
 IR Inten    --      0.4232                12.9109                24.4118

                     25                     26                     27
                      A                      A                      A
 Frequencies --    643.5464               663.7580               702.7404
 Red. masses --      5.7699                 5.1324                 8.5289
 Frc consts  --      1.4079                 1.3323                 2.4816
 IR Inten    --      3.9752                 4.1981                 1.6751

                     28                     29                     30
                      A                      A                      A
 Frequencies --    724.5988               762.5479               796.2728
 Red. masses --      4.8674                 5.1647                 1.5010
 Frc consts  --      1.5057                 1.7694                 0.5607
 IR Inten    --      1.3305                 0.6724                13.4431

                     31                     32                     33
                      A                      A                      A
 Frequencies --    816.0639               827.2650               829.3565
 Red. masses --      3.0075                 2.8794                 1.6708
 Frc consts  --      1.1801                 1.1610                 0.6771
 IR Inten    --      3.6992                 6.5775                25.8440

                     34                     35                     36
                      A                      A                      A
 Frequencies --    868.2744               944.9447               966.3719
 Red. masses --      1.5002                 1.2922                 1.7644
 Frc consts  --      0.6664                 0.6798                 0.9708
 IR Inten    --     41.3485                 0.6953                27.0016

                     37                     38                     39
                      A                      A                      A
 Frequencies --    989.8016              1010.0629              1023.3986
 Red. masses --      2.3977                 1.3045                 4.7000
 Frc consts  --      1.3840                 0.7841                 2.9003
 IR Inten    --     18.0844                 6.4831                19.6178

                     40                     41                     42
                      A                      A                      A
 Frequencies --   1036.2141              1047.7870              1076.0549
 Red. masses --      4.6742                 3.4663                 4.4219
 Frc consts  --      2.9571                 2.2422                 3.0166
 IR Inten    --     47.0961                33.4498                54.3581

                     43                     44                     45
                      A                      A                      A
 Frequencies --   1090.2367              1097.7484              1126.1279
 Red. masses --      3.4456                 3.7955                 2.0793
 Frc consts  --      2.4130                 2.6948                 1.5536
 IR Inten    --     26.0945                 2.6800                 4.5423

                     46                     47                     48
                      A                      A                      A
 Frequencies --   1156.5467              1186.1811              1195.6302
 Red. masses --      1.4017                 1.2711                 1.2900
 Frc consts  --      1.1046                 1.0537                 1.0865
 IR Inten    --      8.3805                 0.7555                17.1660

                     49                     50                     51
                      A                      A                      A
 Frequencies --   1218.0642              1219.6505              1230.4233
 Red. masses --      1.1780                 1.3758                 2.2800
 Frc consts  --      1.0298                 1.2058                 2.0338
 IR Inten    --     47.1127                10.3671                10.3642

                     52                     53                     54
                      A                      A                      A
 Frequencies --   1304.2314              1306.6121              1328.5066
 Red. masses --      3.6281                 5.0326                 2.7362
 Frc consts  --      3.6361                 5.0621                 2.8453
 IR Inten    --     79.6165               181.8462                 7.1369

                     55                     56                     57
                      A                      A                      A
 Frequencies --   1353.2370              1356.7526              1362.6366
 Red. masses --      1.5947                 3.9216                 1.7199
 Frc consts  --      1.7206                 4.2532                 1.8815
 IR Inten    --     21.5645                59.8459                42.2152

                     58                     59                     60
                      A                      A                      A
 Frequencies --   1369.2212              1400.0875              1402.6684
 Red. masses --      1.6158                 1.9129                 1.4617
 Frc consts  --      1.7848                 2.2093                 1.6944
 IR Inten    --      5.1725                13.0853                27.9171

                     61                     62                     63
                      A                      A                      A
 Frequencies --   1438.3860              1443.4198              1461.0915
 Red. masses --      1.3470                 1.4438                 2.8807
 Frc consts  --      1.6419                 1.7723                 3.6232
 IR Inten    --     22.4932                19.6528                 9.0312

                     64                     65                     66
                      A                      A                      A
 Frequencies --   1495.8134              1500.5761              1521.0800
 Red. masses --      2.6719                 1.2272                 1.0785
 Frc consts  --      3.5223                 1.6281                 1.4702
 IR Inten    --     13.8339                18.8379                 4.0821

                     67                     68                     69
                      A                      A                      A
 Frequencies --   1521.4413              1521.8019              1523.6957
 Red. masses --      1.0955                 1.0480                 1.2367
 Frc consts  --      1.4941                 1.4300                 1.6916
 IR Inten    --     11.1112                 6.6216                 7.1147

                     70                     71                     72
                      A                      A                      A
 Frequencies --   1534.9810              1536.5807              1561.1955
 Red. masses --      1.0732                 1.0665                 2.6770
 Frc consts  --      1.4898                 1.4836                 3.8442
 IR Inten    --     48.0713                 4.8962               119.2290

                     73                     74                     75
                      A                      A                      A
 Frequencies --   1609.4323              1631.2134              1678.2784
 Red. masses --      6.5397                 6.7248                 5.6897
 Frc consts  --      9.9805                10.5426                 9.4421
 IR Inten    --      6.5304                21.2720                84.6915

                     76                     77                     78
                      A                      A                      A
 Frequencies --   3028.2721              3048.6921              3064.9943
 Red. masses --      1.0348                 1.0662                 1.0351
 Frc consts  --      5.5911                 5.8390                 5.7293
 IR Inten    --     58.5015                52.1417                16.5324

                     79                     80                     81
                      A                      A                      A
 Frequencies --   3088.1511              3101.5250              3123.2413
 Red. masses --      1.1068                 1.0621                 1.0991
 Frc consts  --      6.2188                 6.0198                 6.3168
 IR Inten    --     41.0612                16.5017                16.8928

                     82                     83                     84
                      A                      A                      A
 Frequencies --   3137.6199              3138.5317              3159.8450
 Red. masses --      1.1006                 1.1039                 1.1054
 Frc consts  --      6.3838                 6.4068                 6.5027
 IR Inten    --     22.8248                 4.9268                22.4539

                     85                     86                     87
                      A                      A                      A
 Frequencies --   3163.7587              3201.6116              3206.6455
 Red. masses --      1.0998                 1.0885                 1.0898
 Frc consts  --      6.4862                 6.5739                 6.6026
 IR Inten    --     25.3081                12.6905                 2.7663

                     88                     89                     90
                      A                      A                      A
 Frequencies --   3221.2814              3231.7221              3732.9856
 Red. masses --      1.0945                 1.0919                 1.0662
 Frc consts  --      6.6915                 6.7190                 8.7541
 IR Inten    --      5.9802                11.9677                19.4438

 - Thermochemistry -
 -------------------
 Temperature   298.150 Kelvin.  Pressure   1.00000 Atm.
 Atom     1 has atomic number  6 and mass  12.00000

 Molecular mass:   233.11643 amu.
 Principal axes and moments of inertia in atomic units:
                           1         2         3
     Eigenvalues --  2366.020306189.313277809.48730
           X            0.99993  -0.00768   0.00898
           Y            0.00756   0.99988   0.01318
           Z           -0.00908  -0.01311   0.99987
 This molecule is an asymmetric top.
 Rotational symmetry number  1.
 Warning -- assumption of classical behavior for rotation
           may cause significant error
 Rotational temperatures (Kelvin)      0.03661     0.01399     0.01109
 Rotational constants (GHZ):           0.76278     0.29159     0.23110
 Zero-point vibrational energy     693092.5 (Joules/Mol)
                                  165.65308 (Kcal/Mol)
 Warning -- explicit consideration of  24 degrees of freedom as
           vibrations may cause significant error
 Vibrational temperatures:     56.73    72.50    90.06   117.73   137.45
          (Kelvin)            160.81   163.02   248.41   285.36   301.54
                              330.89   372.19   393.51   422.13   492.16
                              516.41   568.88   619.53   627.50   690.74
                              700.42   748.59   806.68   881.36   925.92
                              955.00  1011.09  1042.54  1097.14  1145.66
                             1174.13  1190.25  1193.26  1249.25  1359.56
                             1390.39  1424.10  1453.26  1472.44  1490.88
                             1507.53  1548.20  1568.61  1579.42  1620.25
                             1664.01  1706.65  1720.25  1752.52  1754.81
                             1770.30  1876.50  1879.92  1911.42  1947.01
                             1952.06  1960.53  1970.00  2014.41  2018.13
                             2069.52  2076.76  2102.18  2152.14  2158.99
                             2188.49  2189.01  2189.53  2192.26  2208.50
                             2210.80  2246.21  2315.61  2346.95  2414.67
                             4357.01  4386.39  4409.84  4443.16  4462.40
                             4493.65  4514.34  4515.65  4546.31  4551.94
                             4606.41  4613.65  4634.71  4649.73  5370.93

 Zero-point correction=                           0.263985 (Hartree/Particle)
 Thermal correction to Energy=                    0.279983
 Thermal correction to Enthalpy=                  0.280927
 Thermal correction to Gibbs Free Energy=         0.219733
 Sum of electronic and zero-point Energies=           -780.762116
 Sum of electronic and thermal Energies=              -780.746118
 Sum of electronic and thermal Enthalpies=            -780.745174
 Sum of electronic and thermal Free Energies=         -780.806368

                     E (Thermal)             CV                S
                      KCal/Mol        Cal/Mol-Kelvin    Cal/Mol-Kelvin
 Total                  175.692             59.842            128.794
 Electronic               0.000              0.000              0.000
 Translational            0.889              2.981             42.241
 Rotational               0.889              2.981             33.103
 Vibrational            173.915             53.881             53.451
 Vibration     1          0.594              1.981              5.288
 Vibration     2          0.595              1.977              4.802
 Vibration     3          0.597              1.972              4.374
 Vibration     4          0.600              1.962              3.847
 Vibration     5          0.603              1.952              3.543
 Vibration     6          0.607              1.940              3.238
 Vibration     7          0.607              1.938              3.212
 Vibration     8          0.626              1.876              2.406
 Vibration     9          0.637              1.842              2.148
 Vibration    10          0.642              1.826              2.047
 Vibration    11          0.652              1.795              1.879
 Vibration    12          0.667              1.748              1.671
 Vibration    13          0.676              1.722              1.574
 Vibration    14          0.688              1.686              1.454
 Vibration    15          0.721              1.591              1.202
 Vibration    16          0.734              1.557              1.127
 Vibration    17          0.762              1.480              0.980
 Vibration    18          0.792              1.404              0.857
 Vibration    19          0.797              1.391              0.839
 Vibration    20          0.836              1.294              0.710
 Vibration    21          0.843              1.279              0.692
 Vibration    22          0.875              1.205              0.609
 Vibration    23          0.916              1.116              0.522
 Vibration    24          0.972              1.005              0.429

                           ! Non-Optimized Parameters !
 Normal termination of Gaussian 16 at Mon Dec 14 16:52:54 2020.

 ----------------------------------------------------------------------
 # B3LYP/6-311++G(d,p) empiricaldispersion=gd3bj scf=xqc pop=npa geom=c
 heck
 ----------------------------------------------------------------------

 --------------------------------------
 CID_82207277_JID_7544_Energie_neutraal
 --------------------------------------
 Structure from the checkpoint file:  "JID_7544.chk"
 Charge =  0 Multiplicity = 1

 SCF Done:  E(RB3LYP) =  -781.244041656     A.U. after   15 cycles
 Normal termination of Gaussian 16 at Mon Dec 14 16:58:19 2020.

 ----------------------------------------------------------------------
 # B3LYP/6-311++G(d,p) empiricaldispersion=gd3bj scf=xqc pop=npa geom=c
 heck
 ----------------------------------------------------------------------

 ------------------------------------
 CID_82207277_JID_7544_Energie_kation
 ------------------------------------
 Structure from the checkpoint file:  "JID_7544.chk"
 Charge =  1 Multiplicity = 2

 SCF Done:  E(UB3LYP) =  -780.955182411     A.U. after   23 cycles
 Normal termination of Gaussian 16 at Mon Dec 14 17:10:31 2020.
 Gaussian 16:  ES64L-G16RevA.03 25-Dec-2016

 ----------------------------------------------------------------------
 # B3LYP/6-311++G(d,p) empiricaldispersion=gd3bj scf=xqc pop=npa geom=c
 heck
 ----------------------------------------------------------------------

 -----------------------------------
 CID_82207277_JID_7544_Energie_anion
 -----------------------------------
 Structure from the checkpoint file:  "JID_7544.chk"
 Charge = -1 Multiplicity = 2

                         Standard orientation:
 ---------------------------------------------------------------------
 Center     Atomic      Atomic             Coordinates (Angstroms)
 Number     Number       Type             X           Y           Z
 ---------------------------------------------------------------------
      1          6           0        1.144390    2.735272    1.493956
      2          6           0        1.614771    2.604229    0.046619
      3          7           0        2.035703    1.242567   -0.270879
      4          6           0        1.315796    0.082278   -0.304220
      5          6           0        2.287946   -0.898288   -0.468223
      6          7           0        3.512091   -0.298334   -0.512821
      7          7           0        3.365346    0.991354   -0.388841
      8          6           0        2.138691   -2.382755   -0.523420
      9          8           0        2.018612   -2.973889    0.778345
     10          6           0       -0.139373   -0.035902   -0.177779
     11          6           0       -0.680552   -1.059141    0.626324
     12          6           0       -2.052535   -1.206914    0.756308
     13          6           0       -2.926512   -0.335788    0.089769
     14          6           0       -2.405168    0.677710   -0.723239
     15          6           0       -1.023686    0.814097   -0.853674
     16          8           0       -4.254236   -0.558844    0.290755
     17          6           0       -5.180842    0.289967   -0.367893
     18          1           0        0.267710    2.108449    1.680139
     19          1           0        0.876029    3.775700    1.705338
     20          1           0        1.941571    2.434778    2.180603
     21          1           0        0.831431    2.912260   -0.649780
     22          1           0        2.495445    3.221330   -0.141689
     23          1           0        1.221838   -2.661065   -1.049632
     24          1           0        2.994701   -2.804518   -1.066133
     25          1           0        2.794307   -2.683017    1.284425
     26          1           0       -0.007571   -1.736838    1.142817
     27          1           0       -2.475644   -1.990932    1.375648
     28          1           0       -3.057852    1.351257   -1.265358
     29          1           0       -0.636437    1.578916   -1.519366
     30          1           0       -5.055265    1.336453   -0.060835
     31          1           0       -5.084236    0.219919   -1.459114
     32          1           0       -6.170570   -0.058529   -0.069245
 ---------------------------------------------------------------------

 SCF Done:  E(UB3LYP) =  -781.239479209     A.U. after   33 cycles
 SCF Done:  E(UB3LYP) =  -781.239479209     a.u. after    1 cycles

 The electronic state is 2-A.
 Alpha  occ. eigenvalues --  -19.05475 -19.03532 -14.28638 -14.25313 -14.22604
 Alpha  occ. eigenvalues --  -10.12926 -10.12825 -10.12522 -10.11847 -10.10934
 Alpha  occ. eigenvalues --  -10.08756 -10.07891 -10.07298 -10.07294 -10.07223
 Alpha  occ. eigenvalues --  -10.07143 -10.06842  -0.98552  -0.97164  -0.93340
 Alpha  occ. eigenvalues --   -0.81253  -0.75916  -0.71313  -0.67318  -0.65870
 Alpha  occ. eigenvalues --   -0.64766  -0.61119  -0.59407  -0.56179  -0.51966
 Alpha  occ. eigenvalues --   -0.51289  -0.49068  -0.47240  -0.43852  -0.42509
 Alpha  occ. eigenvalues --   -0.40900  -0.38954  -0.38033  -0.37357  -0.37310
 Alpha  occ. eigenvalues --   -0.36014  -0.34588  -0.34326  -0.33223  -0.32260
 Alpha  occ. eigenvalues --   -0.31718  -0.30065  -0.29285  -0.28839  -0.27846
 Alpha  occ. eigenvalues --   -0.26675  -0.26322  -0.26208  -0.23267  -0.23038
 Alpha  occ. eigenvalues --   -0.22439  -0.19517  -0.18593  -0.17014  -0.16029
 Alpha  occ. eigenvalues --   -0.15766  -0.11639   0.04017
 Alpha virt. eigenvalues --    0.06003   0.07048   0.07456   0.08106   0.08429
 Alpha virt. eigenvalues --    0.09027   0.09437   0.09609   0.09762   0.10705
 Alpha virt. eigenvalues --    0.11069   0.11171   0.12147   0.12330   0.12931

  Beta  occ. eigenvalues --  -19.05441 -19.03517 -14.28529 -14.25182 -14.22629
  Beta  occ. eigenvalues --  -10.12924 -10.12696 -10.12481 -10.11834 -10.10848
  Beta  occ. eigenvalues --  -10.08742 -10.07834 -10.07278 -10.07204 -10.07196
  Beta  occ. eigenvalues --  -10.07149 -10.06844  -0.98398  -0.97070  -0.93301
  Beta  occ. eigenvalues --   -0.81120  -0.75773  -0.71149  -0.67257  -0.65728
  Beta  occ. eigenvalues --   -0.64665  -0.61040  -0.59319  -0.56095  -0.51821
  Beta  occ. eigenvalues --   -0.51170  -0.48986  -0.47136  -0.43782  -0.42437
  Beta  occ. eigenvalues --   -0.40805  -0.38845  -0.37970  -0.37189  -0.37114
  Beta  occ. eigenvalues --   -0.35929  -0.34518  -0.34236  -0.33163  -0.32205
  Beta  occ. eigenvalues --   -0.31661  -0.29964  -0.29203  -0.28657  -0.27647
  Beta  occ. eigenvalues --   -0.26632  -0.26253  -0.26146  -0.23044  -0.22878
  Beta  occ. eigenvalues --   -0.22348  -0.19485  -0.18279  -0.16903  -0.15658
  Beta  occ. eigenvalues --   -0.15425  -0.11188
  Beta virt. eigenvalues --    0.06565   0.07041   0.07670   0.07916   0.08541
  Beta virt. eigenvalues --    0.08572   0.09310   0.09483   0.09732   0.10305
  Beta virt. eigenvalues --    0.11110   0.11300   0.11531   0.12113   0.12400

 Mulliken charges and spin densities:
               1          2
     1  C    0.274876  -0.776507
     2  C   -0.223821   0.067133
     3  N    0.197797   0.071684
     4  C   -0.162809  -0.202493
     5  C    0.184621  -0.036748
     6  N   -0.110203  -0.019213
     7  N    0.001459   0.050622
     8  C   -0.501721  -0.131023
     9  O   -0.191838   0.003166
    10  C    1.564667  -0.633721
    11  C   -0.726773   0.212100
    12  C   -0.866702   0.445725
    13  C   -0.609167  -0.049226
    14  C    0.174614  -0.250044
    15  C    0.254786  -0.119103
    16  O   -0.203481   0.055787
    17  C    0.711034  -1.045472
    18  H    0.174242  -0.010572
    19  H   -0.294371   0.435226
    20  H    0.128066   0.017053
    21  H   -0.313175   0.437037
    22  H    0.061560   0.120060
    23  H    0.170278  -0.000796
    24  H    0.154228   0.001942
    25  H    0.196381   0.043579
    26  H    0.187174   0.062935
    27  H    0.108730   0.067361
    28  H   -0.508238   0.711726
    29  H   -0.081123   0.242920
    30  H   -0.168229   0.325426
    31  H   -0.222004   0.377601
    32  H   -0.360858   0.525834
 Sum of Mulliken charges =  -1.00000   1.00000

 Dipole moment (field-independent basis, Debye):
    X=              3.4539    Y=             -3.4670    Z=              1.2228  Tot=              5.0442
 Quadrupole moment (field-independent basis, Debye-Ang):
   XX=           -190.5615   YY=           -144.7550   ZZ=           -121.9097
   XY=              4.6650   XZ=             -1.1650   YZ=              2.6725

 Summary of Natural Population Analysis:

                                       Natural Population
                Natural  -----------------------------------------------
    Atom  No    Charge         Core      Valence    Rydberg      Total
 -----------------------------------------------------------------------
      C    1   -0.29042      0.99966     2.28605    0.00472     3.29042
      C    2   -0.08719      0.99962     2.07639    0.01118     3.08719
      N    3   -0.09207      0.99962     2.57880    0.01364     3.59207
      C    4    0.09172      0.99944     1.89626    0.01258     2.90828
      C    5    0.02109      0.99950     1.96460    0.01481     2.97891
      N    6   -0.15167      0.99972     2.63747    0.01448     3.65167
      N    7   -0.03581      0.99978     2.52053    0.01550     3.53581
      C    8   -0.02772      0.99955     2.01600    0.01217     3.02772
      O    9   -0.36965      0.99990     3.36317    0.00658     4.36965
      C   10   -0.05893      0.99950     2.04913    0.01030     3.05893
      C   11   -0.08247      0.99954     2.07529    0.00765     3.08247
      C   12   -0.12386      0.99953     2.11516    0.00918     3.12386
      C   13    0.18198      0.99939     1.80451    0.01413     2.81802
      C   14   -0.15083      0.99952     2.14208    0.00923     3.15083
      C   15   -0.06129      0.99954     2.05223    0.00952     3.06129
      O   16   -0.27093      0.99985     3.26139    0.00969     4.27093
      C   17   -0.10081      0.99960     2.09220    0.00901     3.10081
      H   18    0.10731      0.00000     0.39166    0.00103     0.39269
      H   19    0.10242      0.00000     0.39643    0.00115     0.39758
      H   20    0.09830      0.00000     0.40078    0.00092     0.40170
      H   21    0.10277      0.00000     0.39523    0.00200     0.39723
      H   22    0.10575      0.00000     0.39243    0.00182     0.39425
      H   23    0.09448      0.00000     0.40422    0.00130     0.40552
      H   24    0.08522      0.00000     0.41298    0.00180     0.41478
      H   25    0.22677      0.00000     0.26971    0.00352     0.27323
      H   26    0.11181      0.00000     0.38628    0.00191     0.38819
      H   27    0.10397      0.00000     0.39502    0.00101     0.39603
      H   28    0.10742      0.00000     0.39093    0.00166     0.39258
      H   29    0.09879      0.00000     0.39952    0.00169     0.40121
      H   30    0.08533      0.00000     0.41309    0.00158     0.41467
      H   31    0.08632      0.00000     0.41171    0.00197     0.41368
      H   32    0.09221      0.00000     0.40661    0.00118     0.40779
 =======================================================================
   * Total *   -0.00000     16.99326    44.79785    0.20889    62.00000

 Normal termination of Gaussian 16 at Mon Dec 14 17:28:08 2020.
