 Gaussian 16, Revision A.03,

 -----------------------------------------------------------
 # opt freq B3LYP/6-31G(d) empiricaldispersion=gd3bj scf=xqc
 -----------------------------------------------------------

 -------------------------------
 CID_63916333_JID_10140_neutraal
 -------------------------------
 Symbolic Z-matrix:
 Charge =  0 Multiplicity = 1

 SCF Done:  E(RB3LYP) =  -1226.99730827     A.U. after   14 cycles
 SCF Done:  E(RB3LYP) =  -1226.90998885     A.U. after   14 cycles
 SCF Done:  E(RB3LYP) =  -1227.00273673     A.U. after   12 cycles
 SCF Done:  E(RB3LYP) =  -1227.00466886     A.U. after   12 cycles
 SCF Done:  E(RB3LYP) =  -1227.00566022     A.U. after   13 cycles
 SCF Done:  E(RB3LYP) =  -1227.00578600     A.U. after   14 cycles
 SCF Done:  E(RB3LYP) =  -1227.00732799     A.U. after   13 cycles
 SCF Done:  E(RB3LYP) =  -1227.00799590     A.U. after   13 cycles
 SCF Done:  E(RB3LYP) =  -1227.00833760     A.U. after   13 cycles
 SCF Done:  E(RB3LYP) =  -1227.00894808     A.U. after   13 cycles
 SCF Done:  E(RB3LYP) =  -1227.00927170     A.U. after    9 cycles
 SCF Done:  E(RB3LYP) =  -1227.00927222     A.U. after    8 cycles
 SCF Done:  E(RB3LYP) =  -1227.00927227     A.U. after    8 cycles
 SCF Done:  E(RB3LYP) =  -1227.00927225     A.U. after    7 cycles
 SCF Done:  E(RB3LYP) =  -1227.00927228     A.U. after    7 cycles
 Optimization completed.
    -- Stationary point found.
 Normal termination of Gaussian 16 at Mon Dec 14 13:48:39 2020.

 --------------------------------------------------------------------
 #N Geom=AllCheck Guess=TCheck SCRF=Check GenChk RB3LYP/6-31G(d) Freq
 --------------------------------------------------------------------

 Structure from the checkpoint file:  "JID_10140.chk"
 -------------------------------
 CID_63916333_JID_10140_neutraal
 -------------------------------
 Charge =  0 Multiplicity = 1

 SCF Done:  E(RB3LYP) =  -1227.00927228     A.U. after    1 cycles

  Exact polarizability: 217.827  20.546 173.450  12.149 -11.459 172.970
 Approx polarizability: 305.352  38.961 267.653  30.947 -19.685 292.051

                      1                      2                      3
                      A                      A                      A
 Frequencies --     17.4096                29.1369                54.1192
 Red. masses --      4.5780                 3.8997                 4.8386
 Frc consts  --      0.0008                 0.0020                 0.0083
 IR Inten    --      0.0466                 0.1714                 0.5463

                      4                      5                      6
                      A                      A                      A
 Frequencies --     58.0819                79.6575                91.2351
 Red. masses --      4.8403                 4.0255                 2.7829
 Frc consts  --      0.0096                 0.0150                 0.0136
 IR Inten    --      0.3265                 0.0720                 0.1439

                      7                      8                      9
                      A                      A                      A
 Frequencies --     95.7991               100.5467               128.5754
 Red. masses --      3.4311                 2.8429                 3.6228
 Frc consts  --      0.0186                 0.0169                 0.0353
 IR Inten    --      0.3444                 0.7840                 0.2334

                     10                     11                     12
                      A                      A                      A
 Frequencies --    143.5493               146.6399               160.4924
 Red. masses --      2.3118                 1.3639                 3.4903
 Frc consts  --      0.0281                 0.0173                 0.0530
 IR Inten    --      0.2573                 0.2935                 0.6161

                     13                     14                     15
                      A                      A                      A
 Frequencies --    180.8345               192.8113               233.6881
 Red. masses --      4.1004                 2.5641                 3.8445
 Frc consts  --      0.0790                 0.0562                 0.1237
 IR Inten    --      0.1488                 0.7736                 1.9529

                     16                     17                     18
                      A                      A                      A
 Frequencies --    251.5271               257.5245               264.3443
 Red. masses --      2.5899                 1.8226                 3.2461
 Frc consts  --      0.0965                 0.0712                 0.1336
 IR Inten    --      1.6396                 0.0410                 0.1843

                     19                     20                     21
                      A                      A                      A
 Frequencies --    300.9051               322.5123               343.0520
 Red. masses --      3.3893                 1.9816                 4.3512
 Frc consts  --      0.1808                 0.1214                 0.3017
 IR Inten    --      2.3800                 4.1255                 4.5993

                     22                     23                     24
                      A                      A                      A
 Frequencies --    371.3274               376.4566               390.0012
 Red. masses --      3.8329                 2.9106                 3.7174
 Frc consts  --      0.3114                 0.2430                 0.3331
 IR Inten    --      2.1523                 0.9956                 0.0778

                     25                     26                     27
                      A                      A                      A
 Frequencies --    440.0673               443.3312               458.2403
 Red. masses --      3.6439                 3.0941                 3.0263
 Frc consts  --      0.4158                 0.3583                 0.3744
 IR Inten    --      2.7846                 0.6517                 7.6601

                     28                     29                     30
                      A                      A                      A
 Frequencies --    500.4925               525.3856               540.5857
 Red. masses --      2.7589                 3.7607                 4.1136
 Frc consts  --      0.4072                 0.6116                 0.7083
 IR Inten    --      2.7436                 0.7947                 1.5077

                     31                     32                     33
                      A                      A                      A
 Frequencies --    562.6902               614.1529               642.5621
 Red. masses --      5.6902                 1.4695                 2.8512
 Frc consts  --      1.0615                 0.3266                 0.6936
 IR Inten    --      0.5816                51.0800                56.0660

                     34                     35                     36
                      A                      A                      A
 Frequencies --    692.3825               702.6795               725.9483
 Red. masses --      5.8618                 2.5153                 3.6568
 Frc consts  --      1.6557                 0.7317                 1.1354
 IR Inten    --      6.7788                15.2174                 3.7891

                     37                     38                     39
                      A                      A                      A
 Frequencies --    739.6058               765.3502               773.1369
 Red. masses --      3.2903                 1.2616                 2.0664
 Frc consts  --      1.0604                 0.4354                 0.7278
 IR Inten    --     18.1188                28.0974                23.2246

                     40                     41                     42
                      A                      A                      A
 Frequencies --    785.5703               789.9465               807.9771
 Red. masses --      1.5427                 1.4326                 1.3094
 Frc consts  --      0.5609                 0.5267                 0.5037
 IR Inten    --     56.8869                16.0324                37.1308

                     43                     44                     45
                      A                      A                      A
 Frequencies --    816.3557               841.1258               860.7543
 Red. masses --      4.5283                 1.2734                 2.3503
 Frc consts  --      1.7780                 0.5308                 1.0260
 IR Inten    --      1.6396                13.0964                18.9763

                     46                     47                     48
                      A                      A                      A
 Frequencies --    876.9603               892.8201               918.8394
 Red. masses --      1.2983                 2.7112                 1.6593
 Frc consts  --      0.5883                 1.2733                 0.8254
 IR Inten    --      0.1720                 0.4249                 4.4122

                     49                     50                     51
                      A                      A                      A
 Frequencies --    937.7582               945.7756               948.4272
 Red. masses --      2.2675                 1.3665                 2.8540
 Frc consts  --      1.1748                 0.7202                 1.5125
 IR Inten    --     19.6647                 0.0301                 7.1766

                     52                     53                     54
                      A                      A                      A
 Frequencies --    982.5389               996.7758              1021.4924
 Red. masses --      1.2621                 2.1419                 1.5566
 Frc consts  --      0.7179                 1.2539                 0.9569
 IR Inten    --      0.0359                 2.5280                 1.6795

                     55                     56                     57
                      A                      A                      A
 Frequencies --   1045.8016              1069.7406              1072.3309
 Red. masses --      1.9672                 2.7248                 1.5156
 Frc consts  --      1.2676                 1.8371                 1.0268
 IR Inten    --     40.4126                38.5423                 7.2580

                     58                     59                     60
                      A                      A                      A
 Frequencies --   1074.6061              1075.2011              1081.8368
 Red. masses --      2.0479                 1.7729                 2.9424
 Frc consts  --      1.3934                 1.2076                 2.0290
 IR Inten    --      4.5028                 0.5399                 7.4873

                     61                     62                     63
                      A                      A                      A
 Frequencies --   1086.0346              1095.5087              1130.7178
 Red. masses --      2.4008                 1.3953                 1.8254
 Frc consts  --      1.6684                 0.9866                 1.3750
 IR Inten    --      6.7311                 1.9451                12.8187

                     64                     65                     66
                      A                      A                      A
 Frequencies --   1148.5331              1163.4646              1165.7762
 Red. masses --      1.1296                 1.8922                 1.6603
 Frc consts  --      0.8779                 1.5091                 1.3294
 IR Inten    --      0.8909                 4.8014                 9.5955

                     67                     68                     69
                      A                      A                      A
 Frequencies --   1172.1301              1188.7576              1198.6050
 Red. masses --      2.0957                 2.0559                 1.1103
 Frc consts  --      1.6964                 1.7118                 0.9398
 IR Inten    --     95.3492                33.7486                 0.1476

                     70                     71                     72
                      A                      A                      A
 Frequencies --   1210.3509              1213.9466              1235.4264
 Red. masses --      1.9082                 1.4510                 2.4703
 Frc consts  --      1.6470                 1.2598                 2.2214
 IR Inten    --     74.0505                13.6959                 0.5956

                     73                     74                     75
                      A                      A                      A
 Frequencies --   1250.1016              1290.7717              1299.9325
 Red. masses --      1.9646                 1.3476                 1.5276
 Frc consts  --      1.8089                 1.3228                 1.5209
 IR Inten    --      4.5342                16.9141                15.2361

                     76                     77                     78
                      A                      A                      A
 Frequencies --   1309.1976              1316.9580              1331.3417
 Red. masses --      1.4915                 1.4030                 1.2586
 Frc consts  --      1.5062                 1.4337                 1.3144
 IR Inten    --      2.9818                 1.1785                 9.7954

                     79                     80                     81
                      A                      A                      A
 Frequencies --   1341.5256              1388.0196              1399.0355
 Red. masses --      5.9570                 2.1404                 1.4285
 Frc consts  --      6.3165                 2.4296                 1.6473
 IR Inten    --      0.7977                17.7082                 5.0569

                     82                     83                     84
                      A                      A                      A
 Frequencies --   1411.1948              1422.8602              1446.4683
 Red. masses --      1.4808                 1.3782                 1.2711
 Frc consts  --      1.7375                 1.6439                 1.5669
 IR Inten    --      0.2275                 8.6481                 3.8760

                     85                     86                     87
                      A                      A                      A
 Frequencies --   1448.8211              1479.5188              1482.2464
 Red. masses --      1.2393                 1.8470                 1.1044
 Frc consts  --      1.5327                 2.3821                 1.4296
 IR Inten    --      1.7379                 2.6167                 1.8277

                     88                     89                     90
                      A                      A                      A
 Frequencies --   1488.1288              1506.3196              1508.2077
 Red. masses --      1.0923                 1.1033                 1.0856
 Frc consts  --      1.4252                 1.4749                 1.4549
 IR Inten    --     10.0465                 3.1143                 4.7016

                     91                     92                     93
                      A                      A                      A
 Frequencies --   1515.0286              1517.7646              1527.5466
 Red. masses --      1.3445                 1.6336                 1.2206
 Frc consts  --      1.8183                 2.2172                 1.6781
 IR Inten    --      9.4643                18.1414                 1.6795

                     94                     95                     96
                      A                      A                      A
 Frequencies --   1530.8686              1532.9160              1539.6527
 Red. masses --      1.2457                 1.1751                 1.1051
 Frc consts  --      1.7200                 1.6269                 1.5435
 IR Inten    --     25.8877                 5.6519                 1.7691

                     97                     98                     99
                      A                      A                      A
 Frequencies --   1545.1196              1625.9721              1652.3037
 Red. masses --      1.0617                 5.3874                 5.5147
 Frc consts  --      1.4933                 8.3919                 8.8705
 IR Inten    --      9.3903                 2.3347                 4.4387

                    100                    101                    102
                      A                      A                      A
 Frequencies --   1825.0886              2999.9409              3041.5113
 Red. masses --      9.9990                 1.0709                 1.0626
 Frc consts  --     19.6234                 5.6785                 5.7917
 IR Inten    --    248.5809                32.1039                33.3769

                    103                    104                    105
                      A                      A                      A
 Frequencies --   3050.4523              3054.0229              3083.9697
 Red. masses --      1.0362                 1.0387                 1.1003
 Frc consts  --      5.6810                 5.7081                 6.1657
 IR Inten    --     17.3870                18.6675                19.0586

                    106                    107                    108
                      A                      A                      A
 Frequencies --   3107.4239              3110.0923              3110.6839
 Red. masses --      1.0597                 1.0983                 1.0994
 Frc consts  --      6.0287                 6.2591                 6.2678
 IR Inten    --      7.6779                36.6441                25.3839

                    109                    110                    111
                      A                      A                      A
 Frequencies --   3111.4683              3131.1329              3136.1947
 Red. masses --      1.0906                 1.1018                 1.1026
 Frc consts  --      6.2210                 6.3644                 6.3894
 IR Inten    --     30.0839                23.8035                16.4057

                    112                    113                    114
                      A                      A                      A
 Frequencies --   3156.3157              3157.8913              3160.2413
 Red. masses --      1.0574                 1.0778                 1.0803
 Frc consts  --      6.2065                 6.3327                 6.3570
 IR Inten    --     20.0942                 9.9561                 3.7815

                    115                    116                    117
                      A                      A                      A
 Frequencies --   3168.0168              3181.6876              3190.9243
 Red. masses --      1.0874                 1.0862                 1.0879
 Frc consts  --      6.4299                 6.4787                 6.5263
 IR Inten    --      9.8262                 6.3579                 6.2503

                    118                    119                    120
                      A                      A                      A
 Frequencies --   3202.3001              3213.0159              3236.6464
 Red. masses --      1.0923                 1.0976                 1.1176
 Frc consts  --      6.5993                 6.6758                 6.8982
 IR Inten    --     21.4545                20.5203                 3.5740

                    121                    122                    123
                      A                      A                      A
 Frequencies --   3250.7388              3529.7524              3673.3091
 Red. masses --      1.1155                 1.0727                 1.0639
 Frc consts  --      6.9450                 7.8742                 8.4578
 IR Inten    --     14.6875                 1.6091                51.7859

 - Thermochemistry -
 -------------------
 Temperature   298.150 Kelvin.  Pressure   1.00000 Atm.
 Atom     1 has atomic number  6 and mass  12.00000

 Molecular mass:   293.14495 amu.
 Principal axes and moments of inertia in atomic units:
                           1         2         3
     Eigenvalues --  3859.308217555.541648207.48460
           X            0.99986   0.01637  -0.00149
           Y           -0.01642   0.99896  -0.04242
           Z            0.00079   0.04244   0.99910
 This molecule is an asymmetric top.
 Rotational symmetry number  1.
 Warning -- assumption of classical behavior for rotation
           may cause significant error
 Rotational temperatures (Kelvin)      0.02244     0.01146     0.01055
 Rotational constants (GHZ):           0.46763     0.23886     0.21989
 Zero-point vibrational energy     966339.6 (Joules/Mol)
                                  230.96071 (Kcal/Mol)
 Warning -- explicit consideration of  32 degrees of freedom as
           vibrations may cause significant error
 Vibrational temperatures:     25.05    41.92    77.87    83.57   114.61
          (Kelvin)            131.27   137.83   144.66   184.99   206.54
                              210.98   230.91   260.18   277.41   336.23
                              361.89   370.52   380.33   432.94   464.02
                              493.58   534.26   541.64   561.12   633.16
                              637.85   659.31   720.10   755.91   777.78
                              809.59   883.63   924.50   996.18  1011.00
                             1044.48  1064.13  1101.17  1112.37  1130.26
                             1136.56  1162.50  1174.55  1210.19  1238.43
                             1261.75  1284.57  1322.00  1349.22  1360.76
                             1364.58  1413.65  1434.14  1469.70  1504.68
                             1539.12  1542.84  1546.12  1546.97  1556.52
                             1562.56  1576.19  1626.85  1652.48  1673.97
                             1677.29  1686.43  1710.36  1724.53  1741.42
                             1746.60  1777.50  1798.62  1857.13  1870.31
                             1883.64  1894.81  1915.50  1930.16  1997.05
                             2012.90  2030.39  2047.18  2081.15  2084.53
                             2128.70  2132.62  2141.09  2167.26  2169.97
                             2179.79  2183.72  2197.80  2202.58  2205.52
                             2215.22  2223.08  2339.41  2377.30  2625.90
                             4316.25  4376.06  4388.92  4394.06  4437.14
                             4470.89  4474.73  4475.58  4476.71  4505.00
                             4512.28  4541.23  4543.50  4546.88  4558.07
                             4577.74  4591.03  4607.40  4622.81  4656.81
                             4677.09  5078.53  5285.07

 Zero-point correction=                           0.368059 (Hartree/Particle)
 Thermal correction to Energy=                    0.389143
 Thermal correction to Enthalpy=                  0.390087
 Thermal correction to Gibbs Free Energy=         0.317143
 Sum of electronic and zero-point Energies=          -1226.641213
 Sum of electronic and thermal Energies=             -1226.620130
 Sum of electronic and thermal Enthalpies=           -1226.619185
 Sum of electronic and thermal Free Energies=        -1226.692129

                     E (Thermal)             CV                S
                      KCal/Mol        Cal/Mol-Kelvin    Cal/Mol-Kelvin
 Total                  244.191             79.794            153.523
 Electronic               0.000              0.000              0.000
 Translational            0.889              2.981             42.924
 Rotational               0.889              2.981             33.836
 Vibrational            242.413             73.832             76.763
 Vibration     1          0.593              1.986              6.910
 Vibration     2          0.593              1.984              5.887
 Vibration     3          0.596              1.976              4.661
 Vibration     4          0.596              1.974              4.521
 Vibration     5          0.600              1.963              3.899
 Vibration     6          0.602              1.955              3.633
 Vibration     7          0.603              1.952              3.538
 Vibration     8          0.604              1.949              3.444
 Vibration     9          0.611              1.925              2.967
 Vibration    10          0.616              1.910              2.756
 Vibration    11          0.617              1.906              2.715
 Vibration    12          0.622              1.891              2.544
 Vibration    13          0.630              1.866              2.320
 Vibration    14          0.635              1.850              2.201
 Vibration    15          0.654              1.789              1.850
 Vibration    16          0.664              1.760              1.720
 Vibration    17          0.667              1.750              1.678
 Vibration    18          0.671              1.738              1.633
 Vibration    19          0.693              1.672              1.412
 Vibration    20          0.708              1.630              1.297
 Vibration    21          0.722              1.589              1.198
 Vibration    22          0.743              1.531              1.074
 Vibration    23          0.747              1.520              1.053
 Vibration    24          0.758              1.492              1.000
 Vibration    25          0.800              1.383              0.826
 Vibration    26          0.803              1.376              0.816
 Vibration    27          0.816              1.343              0.771
 Vibration    28          0.856              1.249              0.657
 Vibration    29          0.880              1.194              0.598
 Vibration    30          0.896              1.160              0.564
 Vibration    31          0.918              1.112              0.518
 Vibration    32          0.974              1.002              0.426

 Optimization completed.
    -- Stationary point found.
 Normal termination of Gaussian 16 at Mon Dec 14 14:16:06 2020.

 ----------------------------------------------------------------------
 # B3LYP/6-311++G(d,p) empiricaldispersion=gd3bj scf=xqc pop=npa geom=c
 heck
 ----------------------------------------------------------------------

 ---------------------------------------
 CID_63916333_JID_10140_Energie_neutraal
 ---------------------------------------
 Structure from the checkpoint file:  "JID_10140.chk"
 Charge =  0 Multiplicity = 1

 SCF Done:  E(RB3LYP) =  -1227.27232869     A.U. after   16 cycles
 Normal termination of Gaussian 16 at Mon Dec 14 14:27:52 2020.

 ----------------------------------------------------------------------
 # B3LYP/6-311++G(d,p) empiricaldispersion=gd3bj scf=xqc pop=npa geom=c
 heck
 ----------------------------------------------------------------------

 -------------------------------------
 CID_63916333_JID_10140_Energie_kation
 -------------------------------------
 Structure from the checkpoint file:  "JID_10140.chk"
 Charge =  1 Multiplicity = 2

 SCF Done:  E(UB3LYP) =  -1226.99107168     A.U. after   23 cycles
 Normal termination of Gaussian 16 at Mon Dec 14 14:50:33 2020.
 Gaussian 16:  ES64L-G16RevA.03 25-Dec-2016

 ----------------------------------------------------------------------
 # B3LYP/6-311++G(d,p) empiricaldispersion=gd3bj scf=xqc pop=npa geom=c
 heck
 ----------------------------------------------------------------------

 ------------------------------------
 CID_63916333_JID_10140_Energie_anion
 ------------------------------------
 Structure from the checkpoint file:  "JID_10140.chk"
 Charge = -1 Multiplicity = 2

                         Standard orientation:
 ---------------------------------------------------------------------
 Center     Atomic      Atomic             Coordinates (Angstroms)
 Number     Number       Type             X           Y           Z
 ---------------------------------------------------------------------
      1          6           0        1.246505    2.474430    1.687303
      2          6           0        0.086748    2.975475    0.822640
      3          6           0       -0.409547    1.946590   -0.195476
      4          7           0       -0.929353    0.759128    0.489939
      5          6           0       -1.700433   -0.187597   -0.300849
      6          6           0       -0.907721   -0.868522   -1.449802
      7         16           0        0.436094   -1.979943   -0.884467
      8          6           0        1.832868   -0.875729   -0.664439
      9          6           0        2.228780   -0.017786   -1.699067
     10          6           0        3.344974    0.802543   -1.557851
     11          6           0        4.096456    0.747990   -0.383952
     12          6           0        3.717161   -0.121776    0.636251
     13          6           0        2.586686   -0.941923    0.525554
     14          6           0        2.215348   -1.867575    1.656968
     15          6           0       -2.317471   -1.256992    0.619907
     16          6           0       -1.793431   -1.554915    2.002450
     17          6           0       -3.121684   -0.868536    1.834997
     18          6           0       -2.918618    0.488995   -0.949070
     19          8           0       -3.429470    0.118789   -1.985309
     20          8           0       -3.432812    1.504785   -0.219719
     21          1           0        0.943872    1.620335    2.304352
     22          1           0        1.595143    3.258182    2.369008
     23          1           0        2.094582    2.158631    1.070761
     24          1           0       -0.757940    3.262841    1.460147
     25          1           0        0.401546    3.874034    0.275393
     26          1           0       -1.223520    2.390926   -0.774657
     27          1           0        0.403676    1.707314   -0.899571
     28          1           0       -0.150013    0.248689    0.896150
     29          1           0       -1.578421   -1.497597   -2.037416
     30          1           0       -0.500608   -0.117630   -2.130306
     31          1           0        1.664776   -0.004777   -2.626659
     32          1           0        3.633769    1.466603   -2.367418
     33          1           0        4.974464    1.375889   -0.263786
     34          1           0        4.301967   -0.163205    1.551566
     35          1           0        1.161666   -1.760951    1.933888
     36          1           0        2.355829   -2.919397    1.380384
     37          1           0        2.831884   -1.667290    2.538128
     38          1           0       -2.683116   -2.115504    0.061764
     39          1           0       -1.762477   -2.597249    2.305408
     40          1           0       -0.981710   -0.951717    2.393885
     41          1           0       -3.155304    0.189431    2.072277
     42          1           0       -4.034197   -1.420437    2.041561
     43          1           0       -4.229375    1.791429   -0.706132
 ---------------------------------------------------------------------

 SCF Done:  E(UB3LYP) =  -1227.26054426     A.U. after   33 cycles
 SCF Done:  E(UB3LYP) =  -1227.26054426     a.u. after    1 cycles

 The electronic state is 2-A.
 Alpha  occ. eigenvalues --  -88.75008 -19.07801 -19.02606 -14.20860 -10.21522
 Alpha  occ. eigenvalues --  -10.14023 -10.10661 -10.10480 -10.09670 -10.09435
 Alpha  occ. eigenvalues --  -10.09312 -10.08570 -10.07975 -10.07964 -10.07944
 Alpha  occ. eigenvalues --  -10.07871 -10.07559 -10.07435 -10.06798 -10.05886
 Alpha  occ. eigenvalues --   -7.83622  -5.80018  -5.79634  -5.79007  -1.02172
 Alpha  occ. eigenvalues --   -0.93113  -0.83451  -0.77194  -0.76855  -0.71152
 Alpha  occ. eigenvalues --   -0.68622  -0.67880  -0.65511  -0.62180  -0.59591
 Alpha  occ. eigenvalues --   -0.57857  -0.55569  -0.52907  -0.51305  -0.50430
 Alpha  occ. eigenvalues --   -0.48665  -0.48436  -0.46078  -0.42021  -0.41758
 Alpha  occ. eigenvalues --   -0.41002  -0.40304  -0.39464  -0.37674  -0.37332
 Alpha  occ. eigenvalues --   -0.35839  -0.35254  -0.34488  -0.33999  -0.33464
 Alpha  occ. eigenvalues --   -0.32861  -0.32362  -0.31916  -0.31491  -0.30497
 Alpha  occ. eigenvalues --   -0.29980  -0.29137  -0.28099  -0.27536  -0.27280
 Alpha  occ. eigenvalues --   -0.25998  -0.25137  -0.24608  -0.24175  -0.23895
 Alpha  occ. eigenvalues --   -0.23376  -0.22283  -0.21669  -0.20830  -0.18739
 Alpha  occ. eigenvalues --   -0.17579  -0.15868  -0.14403  -0.12384   0.04185
 Alpha virt. eigenvalues --    0.05564   0.06208   0.06421   0.07199   0.07618
 Alpha virt. eigenvalues --    0.07823   0.07980   0.08202   0.08721   0.09091
 Alpha virt. eigenvalues --    0.09708   0.10110   0.10501   0.10848   0.11154

  Beta  occ. eigenvalues --  -88.75009 -19.07757 -19.02581 -14.20851 -10.21500
  Beta  occ. eigenvalues --  -10.14018 -10.10633 -10.10397 -10.09664 -10.09456
  Beta  occ. eigenvalues --  -10.09306 -10.08561 -10.07986 -10.07953 -10.07938
  Beta  occ. eigenvalues --  -10.07796 -10.07498 -10.07354 -10.06789 -10.05874
  Beta  occ. eigenvalues --   -7.83623  -5.80019  -5.79636  -5.79006  -1.02103
  Beta  occ. eigenvalues --   -0.93052  -0.83431  -0.77080  -0.76840  -0.71094
  Beta  occ. eigenvalues --   -0.68557  -0.67816  -0.65426  -0.62084  -0.59534
  Beta  occ. eigenvalues --   -0.57825  -0.55467  -0.52846  -0.51271  -0.50320
  Beta  occ. eigenvalues --   -0.48635  -0.48359  -0.46023  -0.41970  -0.41728
  Beta  occ. eigenvalues --   -0.40945  -0.40265  -0.39422  -0.37612  -0.37299
  Beta  occ. eigenvalues --   -0.35764  -0.35173  -0.34448  -0.33962  -0.33413
  Beta  occ. eigenvalues --   -0.32817  -0.32344  -0.31886  -0.31452  -0.30463
  Beta  occ. eigenvalues --   -0.29946  -0.29085  -0.28023  -0.27510  -0.27123
  Beta  occ. eigenvalues --   -0.25915  -0.25078  -0.24569  -0.24146  -0.23844
  Beta  occ. eigenvalues --   -0.23325  -0.22200  -0.21616  -0.20815  -0.18689
  Beta  occ. eigenvalues --   -0.17278  -0.15662  -0.14313  -0.12228
  Beta virt. eigenvalues --    0.06163   0.06587   0.06838   0.06929   0.07636
  Beta virt. eigenvalues --    0.07767   0.08101   0.08280   0.08438   0.08815
  Beta virt. eigenvalues --    0.09352   0.09866   0.10174   0.10639   0.10978

 Mulliken charges and spin densities:
               1          2
     1  C   -0.286285  -0.117864
     2  C   -0.203096  -0.366233
     3  C    0.035963  -0.020273
     4  N    0.318135   0.026926
     5  C    0.733584  -0.565523
     6  C   -0.368518  -0.474178
     7  S    0.603924  -0.536661
     8  C   -0.305479   0.533712
     9  C   -0.433734   0.190496
    10  C    0.281121  -0.682053
    11  C    0.601241  -0.941311
    12  C   -0.321899   0.041362
    13  C    0.053903   0.522932
    14  C   -0.297020  -0.386352
    15  C   -0.575932   0.590870
    16  C   -0.243130  -0.186881
    17  C   -0.152291  -0.307097
    18  C   -0.451745   0.094257
    19  O   -0.244418   0.015089
    20  O   -0.128369   0.026712
    21  H    0.077786   0.050792
    22  H   -0.181237   0.343454
    23  H    0.318648  -0.106143
    24  H    0.101361   0.029710
    25  H   -0.160003   0.304302
    26  H    0.139416   0.072400
    27  H    0.211380  -0.043419
    28  H    0.347233  -0.267162
    29  H    0.176055   0.109247
    30  H    0.184739   0.020398
    31  H   -0.064353   0.225285
    32  H   -0.257911   0.423556
    33  H   -0.442166   0.611161
    34  H   -0.191185   0.337737
    35  H    0.058566   0.024364
    36  H    0.170326   0.012162
    37  H    0.013707   0.126155
    38  H    0.094218   0.153769
    39  H    0.085631   0.072463
    40  H   -0.007579   0.117528
    41  H    0.154080   0.025492
    42  H   -0.107087   0.271864
    43  H   -0.337584   0.626954
 Sum of Mulliken charges =  -1.00000   1.00000

 Dipole moment (field-independent basis, Debye):
    X=             -0.3188    Y=             -3.5715    Z=              1.2904  Tot=              3.8108
 Quadrupole moment (field-independent basis, Debye-Ang):
   XX=           -219.8997   YY=           -174.0678   ZZ=           -166.4351
   XY=             -2.2235   XZ=             -1.9801   YZ=             -3.9358

 Summary of Natural Population Analysis:

                                       Natural Population
                Natural  -----------------------------------------------
    Atom  No    Charge         Core      Valence    Rydberg      Total
 -----------------------------------------------------------------------
      C    1   -0.29014      0.99966     2.28556    0.00492     3.29014
      C    2   -0.18927      0.99964     2.18173    0.00790     3.18927
      C    3   -0.09100      0.99961     2.08177    0.00962     3.09100
      N    4   -0.35171      0.99971     2.83953    0.01247     3.85171
      C    5    0.02142      0.99947     1.96179    0.01732     2.97858
      C    6   -0.25245      0.99953     2.24067    0.01224     3.25245
      S    7    0.10972      4.99954     2.87402    0.01671     7.89028
      C    8   -0.08148      0.99934     2.06913    0.01300     3.08148
      C    9   -0.09457      0.99949     2.08410    0.01099     3.09457
      C   10   -0.10573      0.99955     2.09609    0.01008     3.10573
      C   11   -0.08944      0.99956     2.07933    0.01055     3.08944
      C   12   -0.09110      0.99951     2.08165    0.00994     3.09110
      C   13   -0.02956      0.99945     2.02034    0.00977     3.02956
      C   14   -0.29460      0.99963     2.28924    0.00572     3.29460
      C   15   -0.11570      0.99955     2.10357    0.01259     3.11570
      C   16   -0.19288      0.99961     2.18450    0.00877     3.19288
      C   17   -0.19703      0.99961     2.18881    0.00861     3.19703
      C   18    0.41656      0.99964     1.55633    0.02747     2.58344
      O   19   -0.30943      0.99987     3.30359    0.00597     4.30943
      O   20   -0.33735      0.99987     3.33014    0.00733     4.33735
      H   21    0.09292      0.00000     0.40597    0.00110     0.40708
      H   22    0.09729      0.00000     0.40187    0.00084     0.40271
      H   23    0.10440      0.00000     0.39379    0.00181     0.39560
      H   24    0.09680      0.00000     0.40204    0.00117     0.40320
      H   25    0.09487      0.00000     0.40420    0.00093     0.40513
      H   26    0.09559      0.00000     0.40260    0.00181     0.40441
      H   27    0.08571      0.00000     0.41163    0.00267     0.41429
      H   28    0.18427      0.00000     0.31209    0.00364     0.31573
      H   29    0.11812      0.00000     0.38079    0.00109     0.38188
      H   30    0.10945      0.00000     0.38930    0.00125     0.39055
      H   31    0.10173      0.00000     0.39719    0.00108     0.39827
      H   32    0.10149      0.00000     0.39751    0.00100     0.39851
      H   33    0.10146      0.00000     0.39734    0.00120     0.39854
      H   34    0.09854      0.00000     0.40043    0.00103     0.40146
      H   35    0.10771      0.00000     0.39122    0.00107     0.39229
      H   36    0.10438      0.00000     0.39486    0.00076     0.39562
      H   37    0.10019      0.00000     0.39905    0.00076     0.39981
      H   38    0.10845      0.00000     0.39052    0.00103     0.39155
      H   39    0.10225      0.00000     0.39697    0.00077     0.39775
      H   40    0.10349      0.00000     0.39533    0.00118     0.39651
      H   41    0.11462      0.00000     0.38398    0.00140     0.38538
      H   42    0.10049      0.00000     0.39871    0.00079     0.39951
      H   43    0.24151      0.00000     0.24882    0.00968     0.25849
 =======================================================================
   * Total *   -0.00000     23.99183    54.74812    0.26005    79.00000

 Normal termination of Gaussian 16 at Mon Dec 14 15:24:12 2020.
