 Gaussian 16, Revision A.03,

 -----------------------------------------------------------
 # opt freq B3LYP/6-31G(d) empiricaldispersion=gd3bj scf=xqc
 -----------------------------------------------------------

 -------------------------------
 CID_103468496_JID_5417_neutraal
 -------------------------------
 Symbolic Z-matrix:
 Charge =  0 Multiplicity = 1

 SCF Done:  E(RB3LYP) =  -1006.72653356     A.U. after   15 cycles
 SCF Done:  E(RB3LYP) =  -1006.73347119     A.U. after   12 cycles
 SCF Done:  E(RB3LYP) =  -1006.73615505     A.U. after   13 cycles
 SCF Done:  E(RB3LYP) =  -1006.73647683     A.U. after   13 cycles
 SCF Done:  E(RB3LYP) =  -1006.73699272     A.U. after   13 cycles
 SCF Done:  E(RB3LYP) =  -1006.73753759     A.U. after   12 cycles
 SCF Done:  E(RB3LYP) =  -1006.73797505     A.U. after   12 cycles
 SCF Done:  E(RB3LYP) =  -1006.73813351     A.U. after   12 cycles
 SCF Done:  E(RB3LYP) =  -1006.73820697     A.U. after   11 cycles
 SCF Done:  E(RB3LYP) =  -1006.73827186     A.U. after   11 cycles
 SCF Done:  E(RB3LYP) =  -1006.73899652     A.U. after   11 cycles
 SCF Done:  E(RB3LYP) =  -1006.73900978     A.U. after   11 cycles
 SCF Done:  E(RB3LYP) =  -1006.73900969     A.U. after    8 cycles
 SCF Done:  E(RB3LYP) =  -1006.73901062     A.U. after    9 cycles
 SCF Done:  E(RB3LYP) =  -1006.73901086     A.U. after    9 cycles
 Optimization completed.
    -- Stationary point found.
 Normal termination of Gaussian 16 at Thu Dec 10 16:16:40 2020.

 --------------------------------------------------------------------
 #N Geom=AllCheck Guess=TCheck SCRF=Check GenChk RB3LYP/6-31G(d) Freq
 --------------------------------------------------------------------

 Structure from the checkpoint file:  "JID_5417.chk"
 -------------------------------
 CID_103468496_JID_5417_neutraal
 -------------------------------
 Charge =  0 Multiplicity = 1

 SCF Done:  E(RB3LYP) =  -1006.73901086     A.U. after    1 cycles

  Exact polarizability: 205.598  36.783 141.697 -18.471  12.911 104.307
 Approx polarizability: 305.973  75.329 228.047 -36.950  30.531 169.693

                      1                      2                      3
                      A                      A                      A
 Frequencies --     19.2517                31.3369                63.8903
 Red. masses --      4.0181                 7.2876                 3.9498
 Frc consts  --      0.0009                 0.0042                 0.0095
 IR Inten    --      1.9124                 0.3088                 1.8142

                      4                      5                      6
                      A                      A                      A
 Frequencies --     92.1058                93.5623               117.1829
 Red. masses --      2.8188                 6.9130                 5.9836
 Frc consts  --      0.0141                 0.0357                 0.0484
 IR Inten    --      4.7155                 0.9617                 1.2061

                      7                      8                      9
                      A                      A                      A
 Frequencies --    159.4191               175.4528               192.3477
 Red. masses --      5.7649                 4.6106                 1.1469
 Frc consts  --      0.0863                 0.0836                 0.0250
 IR Inten    --      4.8217                 5.6726                 1.4873

                     10                     11                     12
                      A                      A                      A
 Frequencies --    209.2169               229.1867               249.3675
 Red. masses --      2.5881                 2.4825                 1.3808
 Frc consts  --      0.0667                 0.0768                 0.0506
 IR Inten    --      3.0975                 8.0336                 3.8108

                     13                     14                     15
                      A                      A                      A
 Frequencies --    289.2106               313.1287               322.0135
 Red. masses --      2.2835                 3.6774                 5.1440
 Frc consts  --      0.1125                 0.2124                 0.3143
 IR Inten    --      2.2904                 4.9618                10.2313

                     16                     17                     18
                      A                      A                      A
 Frequencies --    357.0281               422.5963               455.2219
 Red. masses --      2.5696                 3.9926                 3.4703
 Frc consts  --      0.1930                 0.4201                 0.4237
 IR Inten    --      9.5537                 1.6241                 5.2512

                     19                     20                     21
                      A                      A                      A
 Frequencies --    475.1977               507.7632               513.8660
 Red. masses --      3.1191                 5.6488                 3.4905
 Frc consts  --      0.4150                 0.8581                 0.5430
 IR Inten    --     25.9286                 6.6225                11.5789

                     22                     23                     24
                      A                      A                      A
 Frequencies --    551.7491               575.4394               610.5673
 Red. masses --      2.4763                 2.1715                 3.8898
 Frc consts  --      0.4442                 0.4237                 0.8544
 IR Inten    --     34.1499                47.1716                10.5396

                     25                     26                     27
                      A                      A                      A
 Frequencies --    620.0338               657.3444               709.1659
 Red. masses --      4.3760                 4.1364                 9.1065
 Frc consts  --      0.9912                 1.0531                 2.6984
 IR Inten    --      2.5219                 1.1824                 1.2730

                     28                     29                     30
                      A                      A                      A
 Frequencies --    716.7658               758.1485               787.9226
 Red. masses --      5.1306                 6.1268                 1.5407
 Frc consts  --      1.5530                 2.0749                 0.5636
 IR Inten    --      3.9265                30.5262                10.7396

                     31                     32                     33
                      A                      A                      A
 Frequencies --    836.8799               850.9599               882.1163
 Red. masses --      1.5179                 3.2205                 2.5812
 Frc consts  --      0.6263                 1.3740                 1.1834
 IR Inten    --    183.7949                 8.6313                 0.1527

                     34                     35                     36
                      A                      A                      A
 Frequencies --    905.0171               934.4034               944.3351
 Red. masses --      1.4167                 1.3916                 1.7190
 Frc consts  --      0.6837                 0.7159                 0.9032
 IR Inten    --     42.5940                 2.1151                 3.4198

                     37                     38                     39
                      A                      A                      A
 Frequencies --    999.9169              1004.6469              1018.5603
 Red. masses --      1.4609                 2.4976                 1.4874
 Frc consts  --      0.8606                 1.4852                 0.9092
 IR Inten    --      6.2932                 0.0481                13.1128

                     40                     41                     42
                      A                      A                      A
 Frequencies --   1056.1133              1100.7330              1111.3278
 Red. masses --      1.5982                 2.3776                 3.0244
 Frc consts  --      1.0503                 1.6973                 2.2007
 IR Inten    --     12.0862                 5.4058                 3.5746

                     43                     44                     45
                      A                      A                      A
 Frequencies --   1151.7655              1188.8923              1208.9341
 Red. masses --      1.5432                 1.5295                 1.5028
 Frc consts  --      1.2062                 1.2737                 1.2941
 IR Inten    --      6.3399                26.9227                14.7606

                     46                     47                     48
                      A                      A                      A
 Frequencies --   1233.3866              1263.8234              1313.3772
 Red. masses --      1.2749                 1.8801                 1.2022
 Frc consts  --      1.1426                 1.7693                 1.2218
 IR Inten    --      3.1234                28.4122                 0.4573

                     49                     50                     51
                      A                      A                      A
 Frequencies --   1321.9280              1342.4168              1346.7281
 Red. masses --      3.5716                 1.2425                 1.5918
 Frc consts  --      3.6773                 1.3193                 1.7009
 IR Inten    --     56.9544                23.1380                 9.2269

                     52                     53                     54
                      A                      A                      A
 Frequencies --   1388.5642              1401.2703              1405.3769
 Red. masses --      2.0001                 1.4224                 1.4471
 Frc consts  --      2.2722                 1.6456                 1.6840
 IR Inten    --     37.7928                 3.0660                 4.2444

                     55                     56                     57
                      A                      A                      A
 Frequencies --   1409.7464              1475.3212              1491.2301
 Red. masses --      1.5424                 2.9608                 1.1189
 Frc consts  --      1.8060                 3.7969                 1.4659
 IR Inten    --     21.5471               115.6559                 3.0968

                     58                     59                     60
                      A                      A                      A
 Frequencies --   1499.7988              1501.8820              1511.3673
 Red. masses --      1.7911                 1.0667                 1.2427
 Frc consts  --      2.3738                 1.4177                 1.6725
 IR Inten    --     12.0131                12.9164                25.1676

                     61                     62                     63
                      A                      A                      A
 Frequencies --   1525.9565              1553.3312              1568.2701
 Red. masses --      1.0540                 1.1818                 3.2230
 Frc consts  --      1.4461                 1.6801                 4.6703
 IR Inten    --      7.2251                85.9235               197.2341

                     64                     65                     66
                      A                      A                      A
 Frequencies --   1622.4963              1657.0049              1697.5074
 Red. masses --      3.6315                 2.5923                 1.4722
 Frc consts  --      5.6326                 4.1936                 2.4993
 IR Inten    --    168.2209               167.1731               138.7026

                     67                     68                     69
                      A                      A                      A
 Frequencies --   2342.2087              3011.8648              3043.7897
 Red. masses --     12.6727                 1.0711                 1.0735
 Frc consts  --     40.9609                 5.7248                 5.8599
 IR Inten    --     97.4406                37.6835                65.4089

                     70                     71                     72
                      A                      A                      A
 Frequencies --   3063.6240              3067.0503              3096.2159
 Red. masses --      1.0366                 1.0567                 1.0918
 Frc consts  --      5.7325                 5.8566                 6.1666
 IR Inten    --     14.1134                16.3509                18.0157

                     73                     74                     75
                      A                      A                      A
 Frequencies --   3118.2899              3138.9673              3146.8581
 Red. masses --      1.1041                 1.0907                 1.1033
 Frc consts  --      6.3253                 6.3316                 6.4374
 IR Inten    --     25.7606                 6.9324                11.3146

                     76                     77                     78
                      A                      A                      A
 Frequencies --   3170.3776              3197.1304              3201.8460
 Red. masses --      1.1059                 1.0917                 1.0919
 Frc consts  --      6.5491                 6.5747                 6.5956
 IR Inten    --      1.4448                10.7983                 6.0091

                     79                     80                     81
                      A                      A                      A
 Frequencies --   3476.7850              3585.7678              3591.9746
 Red. masses --      1.0526                 1.0899                 1.0770
 Frc consts  --      7.4970                 8.2568                 8.1871
 IR Inten    --      3.0581                13.0168                34.5243

 - Thermochemistry -
 -------------------
 Temperature   298.150 Kelvin.  Pressure   1.00000 Atm.
 Atom     1 has atomic number  6 and mass  12.00000

 Molecular mass:   222.09392 amu.
 Principal axes and moments of inertia in atomic units:
                           1         2         3
     Eigenvalues --  2000.236586272.097127250.24380
           X            0.99999   0.00204  -0.00446
           Y           -0.00198   0.99991   0.01305
           Z            0.00448  -0.01304   0.99990
 This molecule is an asymmetric top.
 Rotational symmetry number  1.
 Warning -- assumption of classical behavior for rotation
           may cause significant error
 Rotational temperatures (Kelvin)      0.04330     0.01381     0.01195
 Rotational constants (GHZ):           0.90226     0.28774     0.24892
 Zero-point vibrational energy     623575.1 (Joules/Mol)
                                  149.03803 (Kcal/Mol)
 Warning -- explicit consideration of  25 degrees of freedom as
           vibrations may cause significant error
 Vibrational temperatures:     27.70    45.09    91.92   132.52   134.62
          (Kelvin)            168.60   229.37   252.44   276.75   301.02
                              329.75   358.78   416.11   450.52   463.31
                              513.68   608.02   654.96   683.70   730.56
                              739.34   793.84   827.93   878.47   892.09
                              945.77  1020.33  1031.27  1090.81  1133.64
                             1204.08  1224.34  1269.17  1302.12  1344.40
                             1358.69  1438.66  1445.46  1465.48  1519.51
                             1583.71  1598.95  1657.13  1710.55  1739.39
                             1774.57  1818.36  1889.66  1901.96  1931.44
                             1937.64  1997.83  2016.12  2022.02  2028.31
                             2122.66  2145.55  2157.88  2160.87  2174.52
                             2195.51  2234.90  2256.39  2334.41  2384.06
                             2442.33  3369.92  4333.40  4379.33  4407.87
                             4412.80  4454.76  4486.52  4516.27  4527.63
                             4561.47  4599.96  4606.74  5002.32  5159.12
                             5168.05

 Zero-point correction=                           0.237507 (Hartree/Particle)
 Thermal correction to Energy=                    0.253182
 Thermal correction to Enthalpy=                  0.254127
 Thermal correction to Gibbs Free Energy=         0.192869
 Sum of electronic and zero-point Energies=          -1006.501504
 Sum of electronic and thermal Energies=             -1006.485828
 Sum of electronic and thermal Enthalpies=           -1006.484884
 Sum of electronic and thermal Free Energies=        -1006.546142

                     E (Thermal)             CV                S
                      KCal/Mol        Cal/Mol-Kelvin    Cal/Mol-Kelvin
 Total                  158.874             57.658            128.927
 Electronic               0.000              0.000              0.000
 Translational            0.889              2.981             42.096
 Rotational               0.889              2.981             32.875
 Vibrational            157.097             51.696             53.956
 Vibration     1          0.593              1.986              6.710
 Vibration     2          0.594              1.983              5.743
 Vibration     3          0.597              1.972              4.333
 Vibration     4          0.602              1.955              3.615
 Vibration     5          0.603              1.954              3.584
 Vibration     6          0.608              1.935              3.146
 Vibration     7          0.621              1.892              2.557
 Vibration     8          0.627              1.873              2.376
 Vibration     9          0.634              1.850              2.205
 Vibration    10          0.642              1.827              2.050
 Vibration    11          0.652              1.796              1.885
 Vibration    12          0.662              1.764              1.735
 Vibration    13          0.686              1.694              1.479
 Vibration    14          0.701              1.649              1.346
 Vibration    15          0.707              1.631              1.300
 Vibration    16          0.732              1.561              1.135
 Vibration    17          0.785              1.421              0.883
 Vibration    18          0.814              1.349              0.780
 Vibration    19          0.832              1.305              0.723
 Vibration    20          0.863              1.233              0.639
 Vibration    21          0.869              1.219              0.624
 Vibration    22          0.907              1.136              0.541
 Vibration    23          0.932              1.084              0.494
 Vibration    24          0.970              1.009              0.432
 Vibration    25          0.980              0.990              0.416

 Optimization completed.
    -- Stationary point found.
 Normal termination of Gaussian 16 at Thu Dec 10 16:26:23 2020.

 ----------------------------------------------------------------------
 # B3LYP/6-311++G(d,p) empiricaldispersion=gd3bj scf=xqc pop=npa geom=c
 heck
 ----------------------------------------------------------------------

 ---------------------------------------
 CID_103468496_JID_5417_Energie_neutraal
 ---------------------------------------
 Structure from the checkpoint file:  "JID_5417.chk"
 Charge =  0 Multiplicity = 1

 SCF Done:  E(RB3LYP) =  -1006.93903934     A.U. after   15 cycles
 Normal termination of Gaussian 16 at Thu Dec 10 16:31:33 2020.

 ----------------------------------------------------------------------
 # B3LYP/6-311++G(d,p) empiricaldispersion=gd3bj scf=xqc pop=npa geom=c
 heck
 ----------------------------------------------------------------------

 -------------------------------------
 CID_103468496_JID_5417_Energie_kation
 -------------------------------------
 Structure from the checkpoint file:  "JID_5417.chk"
 Charge =  1 Multiplicity = 2

 SCF Done:  E(UB3LYP) =  -1006.65632730     A.U. after   24 cycles
 Normal termination of Gaussian 16 at Thu Dec 10 16:43:21 2020.
 Gaussian 16:  ES64L-G16RevA.03 25-Dec-2016

 ----------------------------------------------------------------------
 # B3LYP/6-311++G(d,p) empiricaldispersion=gd3bj scf=xqc pop=npa geom=c
 heck
 ----------------------------------------------------------------------

 ------------------------------------
 CID_103468496_JID_5417_Energie_anion
 ------------------------------------
 Structure from the checkpoint file:  "JID_5417.chk"
 Charge = -1 Multiplicity = 2

                         Standard orientation:
 ---------------------------------------------------------------------
 Center     Atomic      Atomic             Coordinates (Angstroms)
 Number     Number       Type             X           Y           Z
 ---------------------------------------------------------------------
      1          6           0        1.502536   -2.000646    0.757846
      2         16           0        3.262602   -1.612877    0.443972
      3          6           0        3.288546    0.213543    0.649644
      4          6           0        3.169269    1.015813   -0.651327
      5          6           0        1.828212    0.882117   -1.370446
      6          7           0        0.743143    1.417943   -0.554657
      7          6           0       -0.483997    0.833665   -0.437714
      8          6           0       -1.407317    1.384790    0.506580
      9          6           0       -2.623133    0.755205    0.660488
     10          6           0       -2.923733   -0.383051   -0.123300
     11          6           0       -1.971717   -0.807898   -1.052772
     12          7           0       -0.783211   -0.219101   -1.208305
     13          6           0       -4.169731   -1.062410    0.012372
     14          7           0       -5.187919   -1.615745    0.125727
     15          7           0       -0.984091    2.503016    1.261851
     16          1           0        1.436620   -3.089745    0.826414
     17          1           0        0.849445   -1.655947   -0.045424
     18          1           0        1.178451   -1.572427    1.711282
     19          1           0        2.501372    0.484790    1.361923
     20          1           0        4.244953    0.443420    1.129048
     21          1           0        3.356054    2.077396   -0.424387
     22          1           0        3.960283    0.703315   -1.341590
     23          1           0        1.868409    1.414553   -2.329763
     24          1           0        1.612537   -0.164245   -1.595921
     25          1           0        0.995387    2.020865    0.218133
     26          1           0       -3.353318    1.131407    1.371238
     27          1           0       -2.174106   -1.665835   -1.688461
     28          1           0       -1.672783    2.783426    1.953608
     29          1           0       -0.773996    3.305502    0.669818
 ---------------------------------------------------------------------

 SCF Done:  E(UB3LYP) =  -1006.94021346     A.U. after   33 cycles
 SCF Done:  E(UB3LYP) =  -1006.94021346     a.u. after    1 cycles

 The electronic state is 2-A.
 Alpha  occ. eigenvalues --  -88.75138 -14.23020 -14.21560 -14.20192 -14.19902
 Alpha  occ. eigenvalues --  -10.13828 -10.11320 -10.11204 -10.11145 -10.10929
 Alpha  occ. eigenvalues --  -10.10178 -10.10108 -10.09487 -10.08997 -10.07810
 Alpha  occ. eigenvalues --   -7.83737  -5.80140  -5.79771  -5.79100  -0.87872
 Alpha  occ. eigenvalues --   -0.81386  -0.80730  -0.79603  -0.72600  -0.70240
 Alpha  occ. eigenvalues --   -0.67504  -0.64330  -0.60873  -0.55225  -0.54913
 Alpha  occ. eigenvalues --   -0.52146  -0.48628  -0.45090  -0.44646  -0.42237
 Alpha  occ. eigenvalues --   -0.38969  -0.37698  -0.37190  -0.36382  -0.35647
 Alpha  occ. eigenvalues --   -0.34182  -0.33418  -0.32691  -0.31807  -0.30079
 Alpha  occ. eigenvalues --   -0.29625  -0.28916  -0.27924  -0.26170  -0.25985
 Alpha  occ. eigenvalues --   -0.25263  -0.23395  -0.22318  -0.22027  -0.20137
 Alpha  occ. eigenvalues --   -0.16878  -0.15658  -0.13829  -0.10490   0.03800
 Alpha virt. eigenvalues --    0.05826   0.06746   0.07572   0.07627   0.08118
 Alpha virt. eigenvalues --    0.08694   0.09527   0.10058   0.10303   0.11171
 Alpha virt. eigenvalues --    0.11656   0.11757   0.12529   0.12807   0.13255

  Beta  occ. eigenvalues --  -88.75138 -14.22983 -14.21484 -14.20155 -14.19825
  Beta  occ. eigenvalues --  -10.13685 -10.11310 -10.11236 -10.11158 -10.10927
  Beta  occ. eigenvalues --  -10.10175 -10.10097 -10.09433 -10.08979 -10.07617
  Beta  occ. eigenvalues --   -7.83736  -5.80140  -5.79770  -5.79099  -0.87729
  Beta  occ. eigenvalues --   -0.81296  -0.80632  -0.79488  -0.72567  -0.70019
  Beta  occ. eigenvalues --   -0.67443  -0.64187  -0.60808  -0.55103  -0.54808
  Beta  occ. eigenvalues --   -0.51991  -0.48578  -0.45000  -0.44534  -0.42148
  Beta  occ. eigenvalues --   -0.38888  -0.37631  -0.37098  -0.36327  -0.35578
  Beta  occ. eigenvalues --   -0.34149  -0.33341  -0.32538  -0.31645  -0.29983
  Beta  occ. eigenvalues --   -0.29533  -0.28827  -0.27887  -0.25980  -0.25755
  Beta  occ. eigenvalues --   -0.25167  -0.23318  -0.22215  -0.21953  -0.19773
  Beta  occ. eigenvalues --   -0.16758  -0.15236  -0.13810  -0.10148
  Beta virt. eigenvalues --    0.06396   0.07224   0.07378   0.07812   0.07905
  Beta virt. eigenvalues --    0.08216   0.09207   0.09632   0.10334   0.10450
  Beta virt. eigenvalues --    0.11286   0.11928   0.12218   0.12509   0.12973

 Mulliken charges and spin densities:
               1          2
     1  C   -0.626525  -0.069951
     2  S    0.092554  -0.000390
     3  C   -0.133165   0.023188
     4  C    0.157321  -0.618903
     5  C   -0.065113  -0.196910
     6  N    0.007559  -0.031484
     7  C   -0.864828   0.500710
     8  C    0.622779  -0.745450
     9  C    0.773431  -0.420864
    10  C    2.131929  -0.297630
    11  C   -0.946490   0.459793
    12  N   -0.037165   0.027543
    13  C   -1.235210  -0.554357
    14  N   -0.262436   0.045744
    15  N   -0.547808   0.174354
    16  H    0.173976  -0.007249
    17  H    0.126301  -0.011995
    18  H    0.152766   0.042470
    19  H   -0.055914   0.174310
    20  H    0.015354   0.245541
    21  H   -0.340164   0.506601
    22  H    0.144520  -0.020638
    23  H    0.032326   0.133269
    24  H    0.170164   0.007504
    25  H    0.345730  -0.088789
    26  H   -0.140666   0.310930
    27  H    0.156092   0.027112
    28  H   -0.212398   0.479851
    29  H   -0.634921   0.905687
 Sum of Mulliken charges =  -1.00000   1.00000

 Dipole moment (field-independent basis, Debye):
    X=              5.9844    Y=             -5.1149    Z=             -1.6542  Tot=              8.0444
 Quadrupole moment (field-independent basis, Debye-Ang):
   XX=           -180.0460   YY=           -154.2150   ZZ=           -118.5638
   XY=             -6.6192   XZ=             -0.3175   YZ=             -6.6398

 Summary of Natural Population Analysis:

                                       Natural Population
                Natural  -----------------------------------------------
    Atom  No    Charge         Core      Valence    Rydberg      Total
 -----------------------------------------------------------------------
      C    1   -0.34962      0.99961     2.34457    0.00545     3.34962
      S    2    0.07195      4.99964     2.91002    0.01839     7.92805
      C    3   -0.25382      0.99959     2.24240    0.01183     3.25382
      C    4   -0.19958      0.99961     2.18990    0.01007     3.19958
      C    5   -0.09110      0.99961     2.07940    0.01209     3.09110
      N    6   -0.30787      0.99966     2.79566    0.01255     3.80787
      C    7    0.22428      0.99950     1.76042    0.01580     2.77572
      C    8    0.04685      0.99944     1.94161    0.01210     2.95315
      C    9   -0.05025      0.99949     2.04098    0.00978     3.05025
      C   10   -0.12456      0.99942     2.11741    0.00773     3.12456
      C   11    0.04433      0.99956     1.94201    0.01409     2.95567
      N   12   -0.26742      0.99967     2.75817    0.00958     3.76742
      C   13    0.15504      0.99964     1.82699    0.01833     2.84496
      N   14   -0.18857      0.99979     2.67844    0.01035     3.68857
      N   15   -0.41186      0.99973     2.90018    0.01195     3.91186
      H   16    0.10307      0.00000     0.39619    0.00074     0.39693
      H   17    0.11261      0.00000     0.38557    0.00182     0.38739
      H   18    0.10194      0.00000     0.39679    0.00126     0.39806
      H   19    0.10616      0.00000     0.39240    0.00144     0.39384
      H   20    0.10559      0.00000     0.39326    0.00115     0.39441
      H   21    0.10102      0.00000     0.39708    0.00191     0.39898
      H   22    0.10031      0.00000     0.39852    0.00116     0.39969
      H   23    0.09263      0.00000     0.40631    0.00107     0.40737
      H   24    0.10791      0.00000     0.39027    0.00182     0.39209
      H   25    0.19883      0.00000     0.29725    0.00392     0.30117
      H   26    0.10255      0.00000     0.39611    0.00134     0.39745
      H   27    0.09004      0.00000     0.40900    0.00096     0.40996
      H   28    0.18743      0.00000     0.30898    0.00360     0.31257
      H   29    0.19214      0.00000     0.29247    0.01539     0.30786
 =======================================================================
   * Total *   -0.00000     18.99395    39.78838    0.21767    59.00000

 Normal termination of Gaussian 16 at Thu Dec 10 16:58:11 2020.
