 Gaussian 16, Revision A.03,

 -----------------------------------------------------------
 # opt freq B3LYP/6-31G(d) empiricaldispersion=gd3bj scf=xqc
 -----------------------------------------------------------

 -------------------------------
 CID_107133800_JID_6525_neutraal
 -------------------------------
 Symbolic Z-matrix:
 Charge =  0 Multiplicity = 1

 SCF Done:  E(RB3LYP) =  -1038.65213855     A.U. after   13 cycles
 SCF Done:  E(RB3LYP) =  -1038.65605217     A.U. after   11 cycles
 SCF Done:  E(RB3LYP) =  -1038.65014597     A.U. after   12 cycles
 SCF Done:  E(RB3LYP) =  -1038.65984784     A.U. after   10 cycles
 SCF Done:  E(RB3LYP) =  -1038.65942669     A.U. after   11 cycles
 SCF Done:  E(RB3LYP) =  -1038.65928548     A.U. after   11 cycles
 SCF Done:  E(RB3LYP) =  -1038.65854553     A.U. after   11 cycles
 SCF Done:  E(RB3LYP) =  -1038.66005249     A.U. after    8 cycles
 SCF Done:  E(RB3LYP) =  -1038.66085978     A.U. after   10 cycles
 SCF Done:  E(RB3LYP) =  -1038.66083150     A.U. after   11 cycles
 SCF Done:  E(RB3LYP) =  -1038.66124065     A.U. after   10 cycles
 SCF Done:  E(RB3LYP) =  -1038.66125144     A.U. after    9 cycles
 SCF Done:  E(RB3LYP) =  -1038.66125712     A.U. after    8 cycles
 SCF Done:  E(RB3LYP) =  -1038.66125943     A.U. after    7 cycles
 SCF Done:  E(RB3LYP) =  -1038.66126094     A.U. after    7 cycles
 SCF Done:  E(RB3LYP) =  -1038.66126142     A.U. after    7 cycles
 Optimization completed.
    -- Stationary point found.
 Normal termination of Gaussian 16 at Thu Dec 10 23:34:01 2020.

 --------------------------------------------------------------------
 #N Geom=AllCheck Guess=TCheck SCRF=Check GenChk RB3LYP/6-31G(d) Freq
 --------------------------------------------------------------------

 Structure from the checkpoint file:  "JID_6525.chk"
 -------------------------------
 CID_107133800_JID_6525_neutraal
 -------------------------------
 Charge =  0 Multiplicity = 1

 SCF Done:  E(RB3LYP) =  -1038.66126142     A.U. after    1 cycles

  Exact polarizability: 167.019   3.856 150.158   0.462   1.453 149.015
 Approx polarizability: 229.451   4.393 213.979   0.804   3.038 229.020

                      1                      2                      3
                      A                      A                      A
 Frequencies --     42.2057                57.4124                91.7664
 Red. masses --      5.2292                 4.2299                 3.0943
 Frc consts  --      0.0055                 0.0082                 0.0154
 IR Inten    --      1.5945                 0.1736                 0.5401

                      4                      5                      6
                      A                      A                      A
 Frequencies --    123.7684               133.6176               150.6163
 Red. masses --      3.1483                 3.2190                 3.2464
 Frc consts  --      0.0284                 0.0339                 0.0434
 IR Inten    --      0.9215                 0.0491                 0.2554

                      7                      8                      9
                      A                      A                      A
 Frequencies --    184.9305               206.1153               211.5722
 Red. masses --      3.1363                 3.6985                 2.3752
 Frc consts  --      0.0632                 0.0926                 0.0626
 IR Inten    --      4.7208                 2.4705                12.6005

                     10                     11                     12
                      A                      A                      A
 Frequencies --    230.0334               233.4412               239.8344
 Red. masses --      1.3441                 1.2839                 1.8793
 Frc consts  --      0.0419                 0.0412                 0.0637
 IR Inten    --      8.7043                15.0759                 6.6385

                     13                     14                     15
                      A                      A                      A
 Frequencies --    260.7781               276.2444               308.8621
 Red. masses --      1.7311                 2.5908                 1.6955
 Frc consts  --      0.0694                 0.1165                 0.0953
 IR Inten    --      8.7725                12.0455                32.1604

                     16                     17                     18
                      A                      A                      A
 Frequencies --    325.9521               347.3200               358.7152
 Red. masses --      2.2163                 1.4885                 3.5069
 Frc consts  --      0.1387                 0.1058                 0.2659
 IR Inten    --     19.3946                40.8858                 7.7245

                     19                     20                     21
                      A                      A                      A
 Frequencies --    375.0434               403.8031               413.6272
 Red. masses --      3.3789                 2.9167                 3.3031
 Frc consts  --      0.2800                 0.2802                 0.3330
 IR Inten    --     17.9503                 1.2052                 0.7345

                     22                     23                     24
                      A                      A                      A
 Frequencies --    447.8284               477.9976               505.4459
 Red. masses --      1.7521                 3.4569                 2.9680
 Frc consts  --      0.2070                 0.4654                 0.4467
 IR Inten    --      0.9192                 6.9046                 2.4212

                     25                     26                     27
                      A                      A                      A
 Frequencies --    527.3043               569.9301               600.8825
 Red. masses --      2.7380                 2.9491                 2.5894
 Frc consts  --      0.4485                 0.5644                 0.5508
 IR Inten    --      3.5017                 4.7522                 7.5209

                     28                     29                     30
                      A                      A                      A
 Frequencies --    633.4174               693.4748               717.0612
 Red. masses --      2.9894                 3.9770                 2.9369
 Frc consts  --      0.7067                 1.1268                 0.8897
 IR Inten    --      4.8652                 1.0685                 4.8160

                     31                     32                     33
                      A                      A                      A
 Frequencies --    748.4214               786.0990               823.3711
 Red. masses --      4.8560                 2.1794                 2.1536
 Frc consts  --      1.6026                 0.7935                 0.8602
 IR Inten    --      4.8658                 7.9820                18.7422

                     34                     35                     36
                      A                      A                      A
 Frequencies --    839.8899               857.8610               868.6081
 Red. masses --      1.4028                 1.7173                 1.6681
 Frc consts  --      0.5830                 0.7446                 0.7415
 IR Inten    --     77.6191                21.0132                 2.4585

                     37                     38                     39
                      A                      A                      A
 Frequencies --    872.0829               898.3129               910.4535
 Red. masses --      1.8369                 1.8803                 2.0919
 Frc consts  --      0.8231                 0.8940                 1.0217
 IR Inten    --      8.5561                12.6360                 6.1243

                     40                     41                     42
                      A                      A                      A
 Frequencies --    934.1214               950.4933               988.7299
 Red. masses --      1.8201                 1.9258                 1.7751
 Frc consts  --      0.9357                 1.0251                 1.0224
 IR Inten    --      2.5832                 2.9858                 3.0535

                     43                     44                     45
                      A                      A                      A
 Frequencies --    991.6049              1002.5320              1008.4931
 Red. masses --      1.6166                 1.6369                 2.2530
 Frc consts  --      0.9366                 0.9693                 1.3501
 IR Inten    --      0.6058                 8.5648                 1.8281

                     46                     47                     48
                      A                      A                      A
 Frequencies --   1022.2446              1028.8529              1045.4264
 Red. masses --      2.6243                 2.0836                 2.0996
 Frc consts  --      1.6158                 1.2995                 1.3520
 IR Inten    --     38.0711                25.0497                22.5117

                     49                     50                     51
                      A                      A                      A
 Frequencies --   1083.0957              1086.9693              1099.4637
 Red. masses --      1.6960                 3.0394                 2.5553
 Frc consts  --      1.1722                 2.1158                 1.8199
 IR Inten    --      3.3190                 7.5091                 6.9053

                     52                     53                     54
                      A                      A                      A
 Frequencies --   1124.4254              1125.9713              1133.9763
 Red. masses --      2.5886                 2.3386                 2.3067
 Frc consts  --      1.9283                 1.7469                 1.7477
 IR Inten    --      6.6432                 5.0326                 1.2274

                     55                     56                     57
                      A                      A                      A
 Frequencies --   1159.4260              1168.7521              1172.4110
 Red. masses --      1.1430                 1.1459                 1.7829
 Frc consts  --      0.9053                 0.9222                 1.4439
 IR Inten    --      2.7137                 0.6900                 1.9213

                     58                     59                     60
                      A                      A                      A
 Frequencies --   1189.4513              1213.2826              1234.1058
 Red. masses --      1.4398                 2.0802                 1.4230
 Frc consts  --      1.2002                 1.8042                 1.2769
 IR Inten    --      1.8840                 2.0756                 0.7717

                     61                     62                     63
                      A                      A                      A
 Frequencies --   1242.5293              1263.3651              1273.5889
 Red. masses --      1.5205                 1.2954                 1.3965
 Frc consts  --      1.3831                 1.2182                 1.3346
 IR Inten    --     10.9686                22.0913                13.6523

                     64                     65                     66
                      A                      A                      A
 Frequencies --   1285.7520              1316.6733              1325.3646
 Red. masses --      1.5294                 1.2128                 1.2576
 Frc consts  --      1.4897                 1.2388                 1.3015
 IR Inten    --     15.3567                 0.5793                15.8635

                     67                     68                     69
                      A                      A                      A
 Frequencies --   1334.6079              1343.6174              1358.1987
 Red. masses --      1.3508                 1.3161                 1.2143
 Frc consts  --      1.4176                 1.3998                 1.3198
 IR Inten    --      6.3087                 1.6824                 1.2299

                     70                     71                     72
                      A                      A                      A
 Frequencies --   1360.4614              1362.8943              1383.5873
 Red. masses --      1.3049                 1.3218                 1.2398
 Frc consts  --      1.4230                 1.4466                 1.3983
 IR Inten    --      0.1416                 3.4964                 1.5045

                     73                     74                     75
                      A                      A                      A
 Frequencies --   1386.4319              1399.3790              1406.1498
 Red. masses --      1.3353                 1.4384                 1.2929
 Frc consts  --      1.5122                 1.6596                 1.5062
 IR Inten    --      0.5748                 7.1503                 0.4932

                     76                     77                     78
                      A                      A                      A
 Frequencies --   1418.1540              1418.8758              1428.0676
 Red. masses --      1.5874                 1.2893                 1.3048
 Frc consts  --      1.8810                 1.5293                 1.5677
 IR Inten    --      1.3063                 0.7914                 3.8930

                     79                     80                     81
                      A                      A                      A
 Frequencies --   1439.0775              1449.0165              1455.0502
 Red. masses --      1.2418                 1.2963                 1.1889
 Frc consts  --      1.5152                 1.6036                 1.4831
 IR Inten    --      3.4411                 5.6681                36.6988

                     82                     83                     84
                      A                      A                      A
 Frequencies --   1513.5363              1513.9557              1516.6984
 Red. masses --      1.0862                 1.0860                 1.0825
 Frc consts  --      1.4660                 1.4666                 1.4672
 IR Inten    --      0.8521                 1.6783                 3.1268

                     85                     86                     87
                      A                      A                      A
 Frequencies --   1521.0212              1525.4041              1527.4172
 Red. masses --      1.0868                 1.0767                 1.0596
 Frc consts  --      1.4814                 1.4761                 1.4565
 IR Inten    --      3.1385                 4.1663                 1.9153

                     88                     89                     90
                      A                      A                      A
 Frequencies --   1529.2279              1530.1188              1539.6308
 Red. masses --      1.0741                 1.0732                 1.0865
 Frc consts  --      1.4799                 1.4804                 1.5175
 IR Inten    --      7.9379                 0.7607                30.9459

                     91                     92                     93
                      A                      A                      A
 Frequencies --   1543.3877              1696.5979              2975.0187
 Red. masses --      1.0957                 1.0896                 1.0737
 Frc consts  --      1.5378                 1.8478                 5.5992
 IR Inten    --      1.0823                32.7869                51.2137

                     94                     95                     96
                      A                      A                      A
 Frequencies --   2992.4503              3015.9724              3025.9311
 Red. masses --      1.0710                 1.0643                 1.0682
 Frc consts  --      5.6507                 5.7036                 5.7628
 IR Inten    --     32.6549                25.8139                40.1335

                     97                     98                     99
                      A                      A                      A
 Frequencies --   3037.2458              3052.6204              3060.9922
 Red. masses --      1.0368                 1.0727                 1.0828
 Frc consts  --      5.6350                 5.8897                 5.9777
 IR Inten    --     38.0558                29.6043                10.3487

                    100                    101                    102
                      A                      A                      A
 Frequencies --   3063.0769              3070.4584              3071.6612
 Red. masses --      1.0902                 1.0910                 1.0858
 Frc consts  --      6.0267                 6.0600                 6.0361
 IR Inten    --     51.6227                29.3055                14.6266

                    103                    104                    105
                      A                      A                      A
 Frequencies --   3076.0947              3078.7004              3084.2159
 Red. masses --      1.0695                 1.0759                 1.0711
 Frc consts  --      5.9627                 6.0085                 6.0029
 IR Inten    --     26.9930                34.4006                21.1594

                    106                    107                    108
                      A                      A                      A
 Frequencies --   3087.0016              3103.7138              3107.4595
 Red. masses --      1.0855                 1.0990                 1.0991
 Frc consts  --      6.0946                 6.2375                 6.2532
 IR Inten    --      3.9324                 5.8780               111.0292

                    109                    110                    111
                      A                      A                      A
 Frequencies --   3110.7208              3111.7648              3115.2045
 Red. masses --      1.0965                 1.0753                 1.0934
 Frc consts  --      6.2514                 6.1348                 6.2517
 IR Inten    --     42.5152                14.3688                33.8931

                    112                    113                    114
                      A                      A                      A
 Frequencies --   3127.4706              3136.2302              3190.6069
 Red. masses --      1.0901                 1.1057                 1.0944
 Frc consts  --      6.2823                 6.4078                 6.5643
 IR Inten    --     14.6949                20.5431                10.4464

                    115                    116                    117
                      A                      A                      A
 Frequencies --   3493.5984              3578.4151              3742.2340
 Red. masses --      1.0499                 1.0932                 1.0657
 Frc consts  --      7.5498                 8.2478                 8.7928
 IR Inten    --      0.5555                 0.0956                 5.9238

 - Thermochemistry -
 -------------------
 Temperature   298.150 Kelvin.  Pressure   1.00000 Atm.
 Atom     1 has atomic number  6 and mass  12.00000

 Molecular mass:   243.16569 amu.
 Principal axes and moments of inertia in atomic units:
                           1         2         3
     Eigenvalues --  3196.152824542.820065508.53751
           X            0.99976  -0.00725   0.02044
           Y            0.00742   0.99994  -0.00824
           Z           -0.02038   0.00839   0.99976
 This molecule is an asymmetric top.
 Rotational symmetry number  1.
 Warning -- assumption of classical behavior for rotation
           may cause significant error
 Rotational temperatures (Kelvin)      0.02710     0.01907     0.01572
 Rotational constants (GHZ):           0.56466     0.39727     0.32763
 Zero-point vibrational energy     984733.8 (Joules/Mol)
                                  235.35702 (Kcal/Mol)
 Warning -- explicit consideration of  27 degrees of freedom as
           vibrations may cause significant error
 Vibrational temperatures:     60.72    82.60   132.03   178.08   192.25
          (Kelvin)            216.70   266.07   296.55   304.41   330.97
                              335.87   345.07   375.20   397.45   444.38
                              468.97   499.72   516.11   539.60   580.98
                              595.12   644.33   687.73   727.22   758.67
                              820.00   864.54   911.35   997.76  1031.69
                             1076.81  1131.02  1184.65  1208.41  1234.27
                             1249.73  1254.73  1292.47  1309.94  1343.99
                             1367.55  1422.56  1426.70  1442.42  1451.00
                             1470.78  1480.29  1504.14  1558.33  1563.91
                             1581.88  1617.80  1620.02  1631.54  1668.16
                             1681.57  1686.84  1711.36  1745.64  1775.60
                             1787.72  1817.70  1832.41  1849.91  1894.40
                             1906.90  1920.20  1933.17  1954.14  1957.40
                             1960.90  1990.67  1994.77  2013.39  2023.14
                             2040.41  2041.45  2054.67  2070.51  2084.81
                             2093.49  2177.64  2178.24  2182.19  2188.41
                             2194.72  2197.61  2200.22  2201.50  2215.19
                             2220.59  2441.03  4280.39  4305.47  4339.31
                             4353.64  4369.92  4392.04  4404.09  4407.08
                             4417.70  4419.44  4425.81  4429.56  4437.50
                             4441.51  4465.55  4470.94  4475.63  4477.14
                             4482.08  4499.73  4512.34  4590.57  5026.51
                             5148.54  5384.24

 Zero-point correction=                           0.375065 (Hartree/Particle)
 Thermal correction to Energy=                    0.391962
 Thermal correction to Enthalpy=                  0.392906
 Thermal correction to Gibbs Free Energy=         0.331906
 Sum of electronic and zero-point Energies=          -1038.286196
 Sum of electronic and thermal Energies=             -1038.269300
 Sum of electronic and thermal Enthalpies=           -1038.268356
 Sum of electronic and thermal Free Energies=        -1038.329356

                     E (Thermal)             CV                S
                      KCal/Mol        Cal/Mol-Kelvin    Cal/Mol-Kelvin
 Total                  245.960             67.505            128.385
 Electronic               0.000              0.000              0.000
 Translational            0.889              2.981             42.367
 Rotational               0.889              2.981             32.747
 Vibrational            244.182             61.543             53.271
 Vibration     1          0.595              1.980              5.153
 Vibration     2          0.596              1.975              4.544
 Vibration     3          0.602              1.955              3.622
 Vibration     4          0.610              1.929              3.041
 Vibration     5          0.613              1.920              2.893
 Vibration     6          0.618              1.902              2.664
 Vibration     7          0.631              1.860              2.278
 Vibration     8          0.641              1.831              2.078
 Vibration     9          0.643              1.823              2.030
 Vibration    10          0.652              1.795              1.879
 Vibration    11          0.654              1.790              1.852
 Vibration    12          0.657              1.779              1.804
 Vibration    13          0.669              1.744              1.657
 Vibration    14          0.678              1.717              1.557
 Vibration    15          0.698              1.657              1.368
 Vibration    16          0.710              1.624              1.280
 Vibration    17          0.725              1.581              1.178
 Vibration    18          0.734              1.557              1.128
 Vibration    19          0.746              1.523              1.059
 Vibration    20          0.769              1.462              0.949
 Vibration    21          0.777              1.441              0.914
 Vibration    22          0.807              1.366              0.802
 Vibration    23          0.834              1.299              0.715
 Vibration    24          0.861              1.238              0.645
 Vibration    25          0.882              1.190              0.593
 Vibration    26          0.926              1.096              0.504
 Vibration    27          0.959              1.030              0.448

 Optimization completed.
    -- Stationary point found.
 Normal termination of Gaussian 16 at Thu Dec 10 23:51:50 2020.

 ----------------------------------------------------------------------
 # B3LYP/6-311++G(d,p) empiricaldispersion=gd3bj scf=xqc pop=npa geom=c
 heck
 ----------------------------------------------------------------------

 ---------------------------------------
 CID_107133800_JID_6525_Energie_neutraal
 ---------------------------------------
 Structure from the checkpoint file:  "JID_6525.chk"
 Charge =  0 Multiplicity = 1

 SCF Done:  E(RB3LYP) =  -1038.88035913     A.U. after   14 cycles
 Normal termination of Gaussian 16 at Thu Dec 10 23:59:44 2020.

 ----------------------------------------------------------------------
 # B3LYP/6-311++G(d,p) empiricaldispersion=gd3bj scf=xqc pop=npa geom=c
 heck
 ----------------------------------------------------------------------

 -------------------------------------
 CID_107133800_JID_6525_Energie_kation
 -------------------------------------
 Structure from the checkpoint file:  "JID_6525.chk"
 Charge =  1 Multiplicity = 2

 SCF Done:  E(UB3LYP) =  -1038.58679254     A.U. after   29 cycles
 Normal termination of Gaussian 16 at Fri Dec 11 00:21:28 2020.
 Gaussian 16:  ES64L-G16RevA.03 25-Dec-2016

 ----------------------------------------------------------------------
 # B3LYP/6-311++G(d,p) empiricaldispersion=gd3bj scf=xqc pop=npa geom=c
 heck
 ----------------------------------------------------------------------

 ------------------------------------
 CID_107133800_JID_6525_Energie_anion
 ------------------------------------
 Structure from the checkpoint file:  "JID_6525.chk"
 Charge = -1 Multiplicity = 2

                         Standard orientation:
 ---------------------------------------------------------------------
 Center     Atomic      Atomic             Coordinates (Angstroms)
 Number     Number       Type             X           Y           Z
 ---------------------------------------------------------------------
      1          6           0       -0.255034    3.142613   -1.335763
      2          6           0       -0.308764    1.991180   -0.328960
      3          6           0       -0.745151    2.460552    1.062539
      4          6           0       -0.724642    1.292068    2.049020
      5          6           0       -1.624022    0.138023    1.583354
      6          6           0       -1.481395   -0.331128    0.110401
      7          6           0       -1.253756    0.885360   -0.823106
      8          6           0       -2.871847   -0.928903   -0.284450
      9          7           0       -2.936061   -1.316527   -1.697019
     10          6           0       -0.490460   -1.533879   -0.122541
     11          6           0        1.057071   -1.463433   -0.141799
     12          6           0        1.771033   -1.081212    1.191153
     13          6           0        2.755835    0.071126    0.952971
     14         16           0        3.345129   -0.115604   -0.775862
     15          6           0        1.679950   -0.673205   -1.317163
     16          8           0       -0.844573   -2.612671    0.762980
     17          1           0       -1.248071    3.590394   -1.471005
     18          1           0        0.425454    3.932315   -0.997416
     19          1           0        0.092063    2.797739   -2.317063
     20          1           0        0.706066    1.590581   -0.229606
     21          1           0       -0.088320    3.267257    1.412651
     22          1           0       -1.759857    2.882819    1.001653
     23          1           0       -1.059823    1.620930    3.040744
     24          1           0        0.311332    0.962255    2.173699
     25          1           0       -2.660612    0.478952    1.714319
     26          1           0       -1.523993   -0.721633    2.256722
     27          1           0       -2.232242    1.371110   -0.969278
     28          1           0       -0.951301    0.533614   -1.816418
     29          1           0       -3.040513   -1.823056    0.320147
     30          1           0       -3.642390   -0.189121   -0.010897
     31          1           0       -3.670803   -2.004040   -1.838674
     32          1           0       -3.170420   -0.514384   -2.276694
     33          1           0       -0.777418   -1.903983   -1.111272
     34          1           0        1.317963   -2.510614   -0.323449
     35          1           0        2.331076   -1.948441    1.552628
     36          1           0        1.061408   -0.814788    1.980952
     37          1           0        2.277839    1.047188    1.076453
     38          1           0        3.618199    0.030118    1.623155
     39          1           0        1.800950   -1.307778   -2.198586
     40          1           0        1.089333    0.190807   -1.611595
     41          1           0       -0.471871   -2.406493    1.633983
 ---------------------------------------------------------------------

 SCF Done:  E(UB3LYP) =  -1038.86834545     A.U. after   30 cycles

 The electronic state is 2-A.
 Alpha  occ. eigenvalues --  -88.74648 -19.02321 -14.19421 -10.12026 -10.10832
 Alpha  occ. eigenvalues --  -10.10604 -10.09122 -10.08643 -10.08569 -10.08482
 Alpha  occ. eigenvalues --  -10.07682 -10.06816 -10.06665 -10.06638 -10.06614
 Alpha  occ. eigenvalues --  -10.06586  -7.83273  -5.79657  -5.79323  -5.78635
 Alpha  occ. eigenvalues --   -0.92561  -0.78792  -0.75492  -0.73898  -0.68172
 Alpha  occ. eigenvalues --   -0.66406  -0.64512  -0.63807  -0.58577  -0.57254
 Alpha  occ. eigenvalues --   -0.55140  -0.50499  -0.49787  -0.48418  -0.47430
 Alpha  occ. eigenvalues --   -0.44354  -0.40243  -0.39681  -0.39106  -0.38646
 Alpha  occ. eigenvalues --   -0.36693  -0.36565  -0.35418  -0.33867  -0.33779
 Alpha  occ. eigenvalues --   -0.32675  -0.31847  -0.30403  -0.29804  -0.29383
 Alpha  occ. eigenvalues --   -0.28924  -0.27712  -0.27235  -0.27100  -0.26218
 Alpha  occ. eigenvalues --   -0.25982  -0.24622  -0.24073  -0.23336  -0.22694
 Alpha  occ. eigenvalues --   -0.22484  -0.21237  -0.20274  -0.19531  -0.17858
 Alpha  occ. eigenvalues --   -0.14463  -0.13490   0.04110
 Alpha virt. eigenvalues --    0.05836   0.06731   0.07037   0.07591   0.08416
 Alpha virt. eigenvalues --    0.08629   0.09023   0.09575   0.10465   0.10823
 Alpha virt. eigenvalues --    0.10973   0.11225   0.11650   0.12080   0.12239

  Beta  occ. eigenvalues --  -88.74647 -19.02306 -14.19387 -10.12021 -10.10818
  Beta  occ. eigenvalues --  -10.10601 -10.09120 -10.08623 -10.08570 -10.08460
  Beta  occ. eigenvalues --  -10.07680 -10.06799 -10.06650 -10.06621 -10.06595
  Beta  occ. eigenvalues --  -10.06568  -7.83272  -5.79656  -5.79322  -5.78634
  Beta  occ. eigenvalues --   -0.92530  -0.78737  -0.75475  -0.73873  -0.68145
  Beta  occ. eigenvalues --   -0.66376  -0.64486  -0.63783  -0.58538  -0.57216
  Beta  occ. eigenvalues --   -0.55086  -0.50449  -0.49764  -0.48381  -0.47386
  Beta  occ. eigenvalues --   -0.44321  -0.40214  -0.39649  -0.39074  -0.38606
  Beta  occ. eigenvalues --   -0.36670  -0.36526  -0.35386  -0.33824  -0.33756
  Beta  occ. eigenvalues --   -0.32641  -0.31826  -0.30371  -0.29780  -0.29349
  Beta  occ. eigenvalues --   -0.28898  -0.27680  -0.27211  -0.27079  -0.26191
  Beta  occ. eigenvalues --   -0.25960  -0.24596  -0.24048  -0.23315  -0.22671
  Beta  occ. eigenvalues --   -0.22454  -0.21217  -0.20248  -0.19509  -0.17839
  Beta  occ. eigenvalues --   -0.14425  -0.13483
  Beta virt. eigenvalues --    0.06256   0.06826   0.07203   0.07462   0.08037
  Beta virt. eigenvalues --    0.08858   0.09060   0.09436   0.09700   0.10864
  Beta virt. eigenvalues --    0.11104   0.11268   0.11404   0.11915   0.12340

 Mulliken charges and spin densities:
               1          2
     1  C    0.394424  -1.066528
     2  C   -0.432103   1.017126
     3  C    0.004673  -0.631519
     4  C   -0.162217   0.005543
     5  C    1.581480  -1.897022
     6  C    0.333109   1.588657
     7  C   -2.064869   0.240280
     8  C    0.980491  -1.503406
     9  N   -0.617040   0.178887
    10  C   -0.457189  -0.592481
    11  C   -0.729623   0.811670
    12  C    0.673206  -1.180671
    13  C   -0.014264  -0.380826
    14  S   -0.146061   0.051435
    15  C   -0.358739  -0.087081
    16  O   -0.117425   0.004786
    17  H   -0.118529   0.251759
    18  H   -0.037484   0.188981
    19  H   -0.016774   0.154539
    20  H    0.999815  -0.963596
    21  H   -0.197840   0.378594
    22  H    0.080482   0.070017
    23  H   -0.887673   1.105800
    24  H    0.520369  -0.477037
    25  H    0.312823  -0.173516
    26  H   -0.139750   0.293067
    27  H   -0.123195   0.310280
    28  H    0.305654  -0.115137
    29  H    0.090075   0.125824
    30  H   -0.419731   0.574027
    31  H   -0.031798   0.283715
    32  H   -0.115941   0.345392
    33  H    0.343326  -0.051457
    34  H    0.122990   0.115683
    35  H   -0.000092   0.188288
    36  H   -0.342663   0.474602
    37  H   -0.207122   0.447645
    38  H   -0.255541   0.513620
    39  H    0.139719   0.094475
    40  H    0.083294   0.106747
    41  H    0.027732   0.198840
 Sum of Mulliken charges =  -1.00000   1.00000

 Dipole moment (field-independent basis, Debye):
    X=              3.2255    Y=             -0.6059    Z=             -2.1058  Tot=              3.8994
 Quadrupole moment (field-independent basis, Debye-Ang):
   XX=           -176.8057   YY=           -160.0743   ZZ=           -160.8905
   XY=             -0.2979   XZ=             -7.0051   YZ=             -2.1341

 Summary of Natural Population Analysis:

                                       Natural Population
                Natural  -----------------------------------------------
    Atom  No    Charge         Core      Valence    Rydberg      Total
 -----------------------------------------------------------------------
      C    1   -0.27989      0.99965     2.27432    0.00593     3.27989
      C    2   -0.12162      0.99958     2.11303    0.00901     3.12162
      C    3   -0.18354      0.99961     2.17501    0.00892     3.18354
      C    4   -0.18925      0.99962     2.18045    0.00919     3.18925
      C    5   -0.19197      0.99958     2.18185    0.01054     3.19197
      C    6   -0.04810      0.99953     2.03303    0.01554     3.04810
      C    7   -0.19589      0.99958     2.18481    0.01150     3.19589
      C    8   -0.08445      0.99958     2.07235    0.01252     3.08445
      N    9   -0.42931      0.99976     2.91898    0.01056     3.92931
      C   10    0.06530      0.99947     1.91980    0.01543     2.93470
      C   11   -0.12458      0.99955     2.11315    0.01188     3.12458
      C   12   -0.20393      0.99960     2.19251    0.01182     3.20393
      C   13   -0.24555      0.99960     2.23582    0.01013     3.24555
      S   14    0.07525      4.99964     2.90949    0.01562     7.92475
      C   15   -0.24197      0.99957     2.23456    0.00785     3.24197
      O   16   -0.37423      0.99990     3.36822    0.00611     4.37423
      H   17    0.09765      0.00000     0.40147    0.00087     0.40235
      H   18    0.09885      0.00000     0.40031    0.00084     0.40115
      H   19    0.09751      0.00000     0.40161    0.00088     0.40249
      H   20    0.09317      0.00000     0.40311    0.00372     0.40683
      H   21    0.09872      0.00000     0.40029    0.00099     0.40128
      H   22    0.09423      0.00000     0.40444    0.00133     0.40577
      H   23    0.10018      0.00000     0.39855    0.00127     0.39982
      H   24    0.09069      0.00000     0.40679    0.00252     0.40931
      H   25    0.09957      0.00000     0.39865    0.00178     0.40043
      H   26    0.10011      0.00000     0.39829    0.00160     0.39989
      H   27    0.09959      0.00000     0.39876    0.00165     0.40041
      H   28    0.10387      0.00000     0.39472    0.00141     0.39613
      H   29    0.10279      0.00000     0.39587    0.00135     0.39721
      H   30    0.08174      0.00000     0.41643    0.00184     0.41826
      H   31    0.17911      0.00000     0.31926    0.00163     0.32089
      H   32    0.17672      0.00000     0.32099    0.00229     0.32328
      H   33    0.10554      0.00000     0.39214    0.00232     0.39446
      H   34    0.10574      0.00000     0.39280    0.00146     0.39426
      H   35    0.10296      0.00000     0.39551    0.00153     0.39704
      H   36    0.10329      0.00000     0.39496    0.00175     0.39671
      H   37    0.09859      0.00000     0.39937    0.00203     0.40141
      H   38    0.10752      0.00000     0.39130    0.00118     0.39248
      H   39    0.10603      0.00000     0.39304    0.00094     0.39397
      H   40    0.10299      0.00000     0.39514    0.00187     0.39701
      H   41    0.22659      0.00000     0.27021    0.00320     0.27341
 =======================================================================
   * Total *   -0.00000     19.99383    46.79138    0.21479    67.00000

 Normal termination of Gaussian 16 at Fri Dec 11 00:43:33 2020.
