 Gaussian 16, Revision A.03,

 -----------------------------------------------------------
 # opt freq B3LYP/6-31G(d) empiricaldispersion=gd3bj scf=xqc
 -----------------------------------------------------------

 -----------------------------
 CID_12815097_JID_285_neutraal
 -----------------------------
 Symbolic Z-matrix:
 Charge =  0 Multiplicity = 1

 SCF Done:  E(RB3LYP) =  -462.534202219     A.U. after   14 cycles
 SCF Done:  E(RB3LYP) =  -462.535697490     A.U. after   12 cycles
 SCF Done:  E(RB3LYP) =  -462.535793468     A.U. after   12 cycles
 SCF Done:  E(RB3LYP) =  -462.535740731     A.U. after   12 cycles
 SCF Done:  E(RB3LYP) =  -462.535851690     A.U. after   11 cycles
 SCF Done:  E(RB3LYP) =  -462.535854114     A.U. after    9 cycles
 SCF Done:  E(RB3LYP) =  -462.535854761     A.U. after    8 cycles
 SCF Done:  E(RB3LYP) =  -462.535854910     A.U. after    8 cycles
 SCF Done:  E(RB3LYP) =  -462.535854930     A.U. after    7 cycles
 Optimization completed.
    -- Stationary point found.

 1\1\GINC-NODE109\FOpt\RB3LYP\6-31G(d)\C8H12O2\VSC10255\08-Dec-2020\0\\
 # opt freq B3LYP/6-31G(d) empiricaldispersion=gd3bj scf=xqc\\CID_12815
 097_JID_285_neutraal\\0,1\C,0.9126419472,-0.0189469492,-0.1582195526\C
 ,0.445906075,1.1334907872,0.6818926916\C,-0.4511781854,2.04731014,0.30
 42115941\C,-0.8989244985,3.2063160705,1.1505368261\C,-0.4026062103,4.5
 832140017,0.6331684917\C,-0.8782250963,4.8928626939,-0.7522006237\C,-1
 .7242184413,5.8844522266,-1.0603590855\C,-2.2070163134,6.1723405146,-2
 .4222899899\O,-2.9722721337,7.074180597,-2.7023180431\O,-1.7161239114,

 Normal termination of Gaussian 16 at Tue Dec  8 10:20:48 2020.

 --------------------------------------------------------------------
 #N Geom=AllCheck Guess=TCheck SCRF=Check GenChk RB3LYP/6-31G(d) Freq
 --------------------------------------------------------------------

 Structure from the checkpoint file:  "JID_285.chk"
 -----------------------------
 CID_12815097_JID_285_neutraal
 -----------------------------
 Charge =  0 Multiplicity = 1

 SCF Done:  E(RB3LYP) =  -462.535854930     A.U. after    1 cycles

  Exact polarizability: 140.252   3.246  86.690  13.766   1.315  56.045
 Approx polarizability: 192.388   7.665 117.925  28.952   3.504  83.842

                      1                      2                      3
                      A                      A                      A
 Frequencies --     30.7969                38.0557                80.7123
 Red. masses --      5.9953                 3.8533                 2.2330
 Frc consts  --      0.0034                 0.0033                 0.0086
 IR Inten    --      1.0833                 0.3488                 0.3978

                      4                      5                      6
                      A                      A                      A
 Frequencies --    102.9268               143.9934               159.7271
 Red. masses --      3.5468                 3.0960                 2.0970
 Frc consts  --      0.0221                 0.0378                 0.0315
 IR Inten    --      0.0836                 1.0640                 0.8500

                      7                      8                      9
                      A                      A                      A
 Frequencies --    210.3787               211.9577               290.6026
 Red. masses --      2.7308                 1.4115                 2.6474
 Frc consts  --      0.0712                 0.0374                 0.1317
 IR Inten    --      1.5904                 0.6906                 0.5160

                     10                     11                     12
                      A                      A                      A
 Frequencies --    306.4282               386.6297               466.0890
 Red. masses --      2.8624                 2.7493                 2.9030
 Frc consts  --      0.1584                 0.2421                 0.3716
 IR Inten    --      0.8047                 2.8333                 2.3674

                     13                     14                     15
                      A                      A                      A
 Frequencies --    496.0098               530.7444               593.1916
 Red. masses --      2.9538                 2.9361                 1.1972
 Frc consts  --      0.4282                 0.4873                 0.2482
 IR Inten    --      0.4638                 5.2212                80.0909

                     16                     17                     18
                      A                      A                      A
 Frequencies --    623.6402               728.1013               799.0029
 Red. masses --      3.5590                 3.1124                 1.5570
 Frc consts  --      0.8155                 0.9721                 0.5856
 IR Inten    --     52.5802                45.5456                 4.4193

                     19                     20                     21
                      A                      A                      A
 Frequencies --    803.7810               883.4530               904.9038
 Red. masses --      1.6446                 2.2475                 3.5378
 Frc consts  --      0.6260                 1.0335                 1.7068
 IR Inten    --     15.6331                10.2268                 7.0226

                     22                     23                     24
                      A                      A                      A
 Frequencies --    918.6790               958.2124              1012.5892
 Red. masses --      2.0589                 2.0477                 1.2474
 Frc consts  --      1.0238                 1.1077                 0.7536
 IR Inten    --     10.3960                17.2290                 4.7716

                     25                     26                     27
                      A                      A                      A
 Frequencies --   1016.8604              1045.4453              1079.9590
 Red. masses --      1.1560                 1.2658                 1.5286
 Frc consts  --      0.7043                 0.8151                 1.0504
 IR Inten    --     42.9255                 6.0456                 0.0953

                     28                     29                     30
                      A                      A                      A
 Frequencies --   1098.8566              1112.0868              1141.9522
 Red. masses --      3.2750                 2.8880                 1.7548
 Frc consts  --      2.3300                 2.1044                 1.3483
 IR Inten    --      2.1822                10.1247                 3.2750

                     31                     32                     33
                      A                      A                      A
 Frequencies --   1185.9401              1219.7239              1253.0999
 Red. masses --      1.5147                 1.4789                 1.2704
 Frc consts  --      1.2552                 1.2963                 1.1753
 IR Inten    --    131.7969               110.4003                12.5583

                     34                     35                     36
                      A                      A                      A
 Frequencies --   1321.4130              1336.0930              1340.9598
 Red. masses --      1.2891                 1.3282                 1.2171
 Frc consts  --      1.3262                 1.3969                 1.2895
 IR Inten    --      8.3311                 1.7475                 2.6114

                     37                     38                     39
                      A                      A                      A
 Frequencies --   1355.9600              1362.0417              1396.8403
 Red. masses --      1.2659                 1.3541                 2.0252
 Frc consts  --      1.3714                 1.4801                 2.3282
 IR Inten    --     11.9242                 0.3278                40.0243

                     40                     41                     42
                      A                      A                      A
 Frequencies --   1401.1497              1443.1545              1509.7174
 Red. masses --      1.7494                 1.2632                 1.0463
 Frc consts  --      2.0235                 1.5500                 1.4051
 IR Inten    --     56.4513                 2.4187                 7.9515

                     43                     44                     45
                      A                      A                      A
 Frequencies --   1510.8559              1514.7097              1522.8500
 Red. masses --      1.1035                 1.1020                 1.0556
 Frc consts  --      1.4841                 1.4897                 1.4423
 IR Inten    --      8.8009                 1.7403                 9.7069

                     46                     47                     48
                      A                      A                      A
 Frequencies --   1721.6050              1761.6050              1825.9273
 Red. masses --      6.2304                 5.7889                 8.9279
 Frc consts  --     10.8801                10.5844                17.5375
 IR Inten    --     21.0790                 2.7055               423.6240

                     49                     50                     51
                      A                      A                      A
 Frequencies --   3032.4993              3033.8137              3037.3030
 Red. masses --      1.0392                 1.0627                 1.0593
 Frc consts  --      5.6307                 5.7628                 5.7575
 IR Inten    --     43.2325                11.5631                27.3921

                     52                     53                     54
                      A                      A                      A
 Frequencies --   3079.1492              3083.1701              3089.2644
 Red. masses --      1.1001                 1.0982                 1.1037
 Frc consts  --      6.1453                 6.1507                 6.2061
 IR Inten    --     25.4154                26.3873                30.0753

                     55                     56                     57
                      A                      A                      A
 Frequencies --   3115.4069              3135.3338              3143.7688
 Red. masses --      1.0976                 1.0927                 1.0870
 Frc consts  --      6.2768                 6.3289                 6.3296
 IR Inten    --      6.2475                11.7118                49.9226

                     58                     59                     60
                      A                      A                      A
 Frequencies --   3192.4313              3206.0762              3703.4200
 Red. masses --      1.0910                 1.0888                 1.0642
 Frc consts  --      6.5511                 6.5938                 8.5998
 IR Inten    --      2.9590                 7.0726                62.2640

 - Thermochemistry -
 -------------------
 Temperature   298.150 Kelvin.  Pressure   1.00000 Atm.
 Atom     1 has atomic number  6 and mass  12.00000

 Molecular mass:   140.08373 amu.
 Principal axes and moments of inertia in atomic units:
                           1         2         3
     Eigenvalues --   644.436213958.890154448.28830
           X            0.99994   0.01075   0.00012
           Y           -0.01075   0.99994  -0.00079
           Z           -0.00013   0.00079   1.00000
 This molecule is an asymmetric top.
 Rotational symmetry number  1.
 Warning -- assumption of classical behavior for rotation
           may cause significant error
 Rotational temperatures (Kelvin)      0.13440     0.02188     0.01947
 Rotational constants (GHZ):           2.80050     0.45587     0.40572
 Zero-point vibrational energy     490535.0 (Joules/Mol)
                                  117.24068 (Kcal/Mol)
 Warning -- explicit consideration of  15 degrees of freedom as
           vibrations may cause significant error
 Vibrational temperatures:     44.31    54.75   116.13   148.09   207.17
          (Kelvin)            229.81   302.69   304.96   418.11   440.88
                              556.27   670.60   713.65   763.62   853.47
                              897.28  1047.58  1149.59  1156.46  1271.09
                             1301.95  1321.77  1378.65  1456.89  1463.04
                             1504.16  1553.82  1581.01  1600.04  1643.01
                             1706.30  1754.91  1802.93  1901.22  1922.34
                             1929.34  1950.92  1959.67  2009.74  2015.94
                             2076.38  2172.15  2173.78  2179.33  2191.04
                             2477.01  2534.56  2627.10  4363.09  4364.98
                             4370.00  4430.21  4435.99  4444.76  4482.38
                             4511.05  4523.18  4593.20  4612.83  5328.40

 Zero-point correction=                           0.186835 (Hartree/Particle)
 Thermal correction to Energy=                    0.198227
 Thermal correction to Enthalpy=                  0.199171
 Thermal correction to Gibbs Free Energy=         0.147813
 Sum of electronic and zero-point Energies=           -462.349020
 Sum of electronic and thermal Energies=              -462.337628
 Sum of electronic and thermal Enthalpies=            -462.336683
 Sum of electronic and thermal Free Energies=         -462.388042

                     E (Thermal)             CV                S
                      KCal/Mol        Cal/Mol-Kelvin    Cal/Mol-Kelvin
 Total                  124.389             39.964            108.092
 Electronic               0.000              0.000              0.000
 Translational            0.889              2.981             40.723
 Rotational               0.889              2.981             30.807
 Vibrational            122.612             34.003             36.562
 Vibration     1          0.594              1.984              5.777
 Vibration     2          0.594              1.982              5.358
 Vibration     3          0.600              1.962              3.873
 Vibration     4          0.605              1.947              3.398
 Vibration     5          0.616              1.909              2.750
 Vibration     6          0.622              1.892              2.553
 Vibration     7          0.643              1.825              2.040
 Vibration     8          0.643              1.823              2.027
 Vibration     9          0.687              1.691              1.470
 Vibration    10          0.697              1.661              1.382
 Vibration    11          0.755              1.499              1.013
 Vibration    12          0.823              1.325              0.749
 Vibration    13          0.852              1.259              0.668
 Vibration    14          0.886              1.182              0.586
 Vibration    15          0.951              1.046              0.462

 Optimization completed.
    -- Stationary point found.

 1\1\GINC-NODE109\Freq\RB3LYP\6-31G(d)\C8H12O2\VSC10255\08-Dec-2020\0\\
 #N Geom=AllCheck Guess=TCheck SCRF=Check GenChk RB3LYP/6-31G(d) Freq\\
 CID_12815097_JID_285_neutraal\\0,1\C,0.9126419472,-0.0189469492,-0.158
 2195526\C,0.445906075,1.1334907872,0.6818926916\C,-0.4511781854,2.0473
 1014,0.3042115941\C,-0.8989244985,3.2063160705,1.1505368261\C,-0.40260
 62103,4.5832140017,0.6331684917\C,-0.8782250963,4.8928626939,-0.752200
 6237\C,-1.7242184413,5.8844522266,-1.0603590855\C,-2.2070163134,6.1723
 405146,-2.4222899899\O,-2.9722721337,7.074180597,-2.7023180431\O,-1.71

 Normal termination of Gaussian 16 at Tue Dec  8 10:23:59 2020.

 ----------------------------------------------------------------------
 # B3LYP/6-311++G(d,p) empiricaldispersion=gd3bj scf=xqc pop=npa geom=c
 heck
 ----------------------------------------------------------------------

 -------------------------------------
 CID_12815097_JID_285_Energie_neutraal
 -------------------------------------
 Structure from the checkpoint file:  "JID_285.chk"
 Charge =  0 Multiplicity = 1

 SCF Done:  E(RB3LYP) =  -462.681296035     A.U. after   14 cycles
 Normal termination of Gaussian 16 at Tue Dec  8 10:25:28 2020.

 ----------------------------------------------------------------------
 # B3LYP/6-311++G(d,p) empiricaldispersion=gd3bj scf=xqc pop=npa geom=c
 heck
 ----------------------------------------------------------------------

 -----------------------------------
 CID_12815097_JID_285_Energie_kation
 -----------------------------------
 Structure from the checkpoint file:  "JID_285.chk"
 Charge =  1 Multiplicity = 2

 SCF Done:  E(UB3LYP) =  -462.353558865     A.U. after   24 cycles
 Normal termination of Gaussian 16 at Tue Dec  8 10:29:00 2020.
 Gaussian 16:  ES64L-G16RevA.03 25-Dec-2016

 ----------------------------------
 CID_12815097_JID_285_Energie_anion
 ----------------------------------
 Structure from the checkpoint file:  "JID_285.chk"
 Charge = -1 Multiplicity = 2

                         Standard orientation:
 ---------------------------------------------------------------------
 Center     Atomic      Atomic             Coordinates (Angstroms)
 Number     Number       Type             X           Y           Z
 ---------------------------------------------------------------------
      1          6           0        4.210528    1.428352    0.079366
      2          6           0        3.481441    0.119964   -0.011714
      3          6           0        2.221029   -0.031305   -0.425174
      4          6           0        1.497182   -1.346939   -0.497217
      5          6           0        0.368635   -1.495081    0.558380
      6          6           0       -0.693021   -0.447387    0.429657
      7          6           0       -1.963469   -0.692676    0.083663
      8          6           0       -3.000160    0.343924   -0.063174
      9          8           0       -4.153827    0.120909   -0.374084
     10          8           0       -2.551295    1.606625    0.182043
     11          1           0        3.575546    2.263533   -0.234549
     12          1           0        5.109207    1.428152   -0.551893
     13          1           0        4.548314    1.624669    1.105804
     14          1           0        4.044995   -0.767200    0.284351
     15          1           0        1.657729    0.853440   -0.725739
     16          1           0        1.052552   -1.476858   -1.493354
     17          1           0        2.209460   -2.168215   -0.353237
     18          1           0       -0.078005   -2.492499    0.470766
     19          1           0        0.825787   -1.423048    1.554910
     20          1           0       -0.395201    0.581865    0.617190
     21          1           0       -2.316622   -1.700972   -0.113403
     22          1           0       -3.325770    2.183750    0.052767
 ---------------------------------------------------------------------

 SCF Done:  E(UB3LYP) =  -462.677505563     A.U. after   32 cycles

 The electronic state is 2-A.
 Alpha  occ. eigenvalues --  -19.02835 -18.95517 -10.14032 -10.06360 -10.05965
 Alpha  occ. eigenvalues --  -10.05560 -10.05490 -10.04960 -10.02619 -10.02326
 Alpha  occ. eigenvalues --   -0.96296  -0.86917  -0.70083  -0.66870  -0.62715
 Alpha  occ. eigenvalues --   -0.57542  -0.51952  -0.47236  -0.44669  -0.42411
 Alpha  occ. eigenvalues --   -0.36280  -0.34761  -0.34326  -0.33304  -0.31104
 Alpha  occ. eigenvalues --   -0.30770  -0.29666  -0.29125  -0.26853  -0.26151
 Alpha  occ. eigenvalues --   -0.25784  -0.24203  -0.22181  -0.20964  -0.18872
 Alpha  occ. eigenvalues --   -0.14435  -0.13610  -0.12933   0.04946
 Alpha virt. eigenvalues --    0.06736   0.08308   0.09012   0.09522   0.10136
 Alpha virt. eigenvalues --    0.11006   0.11322   0.11769   0.12397   0.12880
 Alpha virt. eigenvalues --    0.14262   0.14705   0.15407   0.16094   0.17219

  Beta  occ. eigenvalues --  -19.02805 -18.95252 -10.13809 -10.06337 -10.05947
  Beta  occ. eigenvalues --  -10.05551 -10.05437 -10.04991 -10.02296 -10.02187
  Beta  occ. eigenvalues --   -0.96071  -0.86543  -0.69963  -0.66534  -0.62450
  Beta  occ. eigenvalues --   -0.57370  -0.51585  -0.47050  -0.44466  -0.42077
  Beta  occ. eigenvalues --   -0.36113  -0.34557  -0.34217  -0.33100  -0.31064
  Beta  occ. eigenvalues --   -0.29803  -0.29493  -0.29036  -0.26590  -0.26045
  Beta  occ. eigenvalues --   -0.25604  -0.24088  -0.22041  -0.20817  -0.17954
  Beta  occ. eigenvalues --   -0.14076  -0.13336  -0.11649
  Beta virt. eigenvalues --    0.07253   0.08677   0.08974   0.09870   0.10323
  Beta virt. eigenvalues --    0.10551   0.11247   0.11599   0.11854   0.12595
  Beta virt. eigenvalues --    0.13046   0.14270   0.14653   0.15558   0.16096

 Mulliken charges and spin densities:
               1          2
     1  C    1.287797  -2.019348
     2  C   -0.061570  -0.099197
     3  C   -0.455503   0.652257
     4  C   -0.061327  -0.208055
     5  C   -0.135771  -0.215602
     6  C   -0.076762   0.408668
     7  C   -0.020726  -0.212193
     8  C   -0.160472   0.156457
     9  O   -0.408364   0.083532
    10  O   -0.243042   0.007893
    11  H    0.004127   0.126422
    12  H   -0.206634   0.340044
    13  H   -0.150479   0.286959
    14  H   -0.513937   0.653091
    15  H   -0.115524   0.256996
    16  H    0.055245   0.066705
    17  H   -0.351845   0.501224
    18  H    0.085375   0.044150
    19  H   -0.101928   0.244544
    20  H    0.234255  -0.068673
    21  H    0.146640  -0.008899
    22  H    0.250444   0.003026
 Sum of Mulliken charges =  -1.00000   1.00000

 Dipole moment (field-independent basis, Debye):
    X=             -1.0398    Y=              1.8742    Z=             -0.2329  Tot=              2.1559
 Quadrupole moment (field-independent basis, Debye-Ang):
   XX=           -145.8053   YY=            -78.9970   ZZ=            -78.2428
   XY=             -1.9896   XZ=             -3.4005   YZ=              1.2987

 Summary of Natural Population Analysis:

                                       Natural Population
                Natural  -----------------------------------------------
    Atom  No    Charge         Core      Valence    Rydberg      Total
 -----------------------------------------------------------------------
      C    1   -0.29949      0.99965     2.29338    0.00645     3.29949
      C    2   -0.09368      0.99952     2.08496    0.00920     3.09368
      C    3   -0.09077      0.99951     2.08050    0.01077     3.09077
      C    4   -0.19553      0.99961     2.18613    0.00979     3.19553
      C    5   -0.20629      0.99962     2.19621    0.01047     3.20629
      C    6    0.01942      0.99954     1.97208    0.00896     2.98058
      C    7   -0.16588      0.99947     2.15676    0.00966     3.16588
      C    8    0.41085      0.99969     1.56576    0.02370     2.58915
      O    9   -0.30858      0.99987     3.30184    0.00686     4.30858
      O   10   -0.35978      0.99988     3.35170    0.00820     4.35978
      H   11    0.09811      0.00000     0.40101    0.00088     0.40189
      H   12    0.10024      0.00000     0.39844    0.00132     0.39976
      H   13    0.10024      0.00000     0.39865    0.00111     0.39976
      H   14    0.08997      0.00000     0.40828    0.00175     0.41003
      H   15    0.09199      0.00000     0.40681    0.00119     0.40801
      H   16    0.09788      0.00000     0.40094    0.00117     0.40212
      H   17    0.09792      0.00000     0.40021    0.00186     0.40208
      H   18    0.09500      0.00000     0.40394    0.00107     0.40500
      H   19    0.10228      0.00000     0.39636    0.00136     0.39772
      H   20    0.09091      0.00000     0.40743    0.00167     0.40909
      H   21    0.09353      0.00000     0.40518    0.00129     0.40647
      H   22    0.23165      0.00000     0.26535    0.00300     0.26835
 =======================================================================
   * Total *   -0.00000      9.99635    27.88191    0.12174    38.00000

 Normal termination of Gaussian 16 at Tue Dec  8 10:34:26 2020.
