 Gaussian 16, Revision A.03,

 -----------------------------------------------------------
 # opt freq B3LYP/6-31G(d) empiricaldispersion=gd3bj scf=xqc
 -----------------------------------------------------------

 -------------------------------
 CID_65859199_JID_10447_neutraal
 -------------------------------
 Symbolic Z-matrix:
 Charge =  0 Multiplicity = 1

 SCF Done:  E(RB3LYP) =  -823.571326849     A.U. after   15 cycles
 SCF Done:  E(RB3LYP) =  -823.574872732     A.U. after   13 cycles
 SCF Done:  E(RB3LYP) =  -823.575835148     A.U. after   13 cycles
 SCF Done:  E(RB3LYP) =  -823.576432722     A.U. after   13 cycles
 SCF Done:  E(RB3LYP) =  -823.576528270     A.U. after   12 cycles
 SCF Done:  E(RB3LYP) =  -823.576571477     A.U. after   12 cycles
 SCF Done:  E(RB3LYP) =  -823.576657459     A.U. after   11 cycles
 SCF Done:  E(RB3LYP) =  -823.576829275     A.U. after   11 cycles
 SCF Done:  E(RB3LYP) =  -823.577003160     A.U. after   12 cycles
 SCF Done:  E(RB3LYP) =  -823.577175874     A.U. after   12 cycles
 SCF Done:  E(RB3LYP) =  -823.577292321     A.U. after    9 cycles
 SCF Done:  E(RB3LYP) =  -823.577293502     A.U. after    9 cycles
 SCF Done:  E(RB3LYP) =  -823.577294482     A.U. after    9 cycles
 SCF Done:  E(RB3LYP) =  -823.577294597     A.U. after    7 cycles
 Optimization completed.
    -- Stationary point found.
 Normal termination of Gaussian 16 at Sat Dec 12 16:02:34 2020.

 --------------------------------------------------------------------
 #N Geom=AllCheck Guess=TCheck SCRF=Check GenChk RB3LYP/6-31G(d) Freq
 --------------------------------------------------------------------

 Structure from the checkpoint file:  "JID_10447.chk"
 -------------------------------
 CID_65859199_JID_10447_neutraal
 -------------------------------
 Charge =  0 Multiplicity = 1

 SCF Done:  E(RB3LYP) =  -823.577294597     A.U. after    1 cycles

  Exact polarizability: 174.227   4.656 207.451 -24.801   2.388 152.923
 Approx polarizability: 254.667   6.537 327.785 -53.782  11.707 253.345

                      1                      2                      3
                      A                      A                      A
 Frequencies --     36.5986                44.1201                59.3481
 Red. masses --      4.2475                 3.5207                 2.4456
 Frc consts  --      0.0034                 0.0040                 0.0051
 IR Inten    --      0.5984                 0.3233                 0.2724

                      4                      5                      6
                      A                      A                      A
 Frequencies --     71.1722                89.9687                95.8907
 Red. masses --      2.9426                 1.0729                 2.8019
 Frc consts  --      0.0088                 0.0051                 0.0152
 IR Inten    --      0.9388                 0.7180                 1.9220

                      7                      8                      9
                      A                      A                      A
 Frequencies --    106.4608               132.3482               152.7854
 Red. masses --      2.0905                 6.3355                 4.6778
 Frc consts  --      0.0140                 0.0654                 0.0643
 IR Inten    --      1.6975                 3.5227                 2.2986

                     10                     11                     12
                      A                      A                      A
 Frequencies --    176.4898               189.4939               211.7629
 Red. masses --      3.3532                 2.9385                 3.2360
 Frc consts  --      0.0615                 0.0622                 0.0855
 IR Inten    --      1.1738                 8.2340                 0.2708

                     13                     14                     15
                      A                      A                      A
 Frequencies --    245.0153               280.6484               303.2015
 Red. masses --      3.4427                 2.6409                 2.0785
 Frc consts  --      0.1218                 0.1226                 0.1126
 IR Inten    --      3.0722                 1.4713                 1.0538

                     16                     17                     18
                      A                      A                      A
 Frequencies --    329.4435               345.0784               377.7332
 Red. masses --      3.8664                 3.1751                 3.3143
 Frc consts  --      0.2472                 0.2228                 0.2786
 IR Inten    --      1.3399                 0.7689                 0.4210

                     19                     20                     21
                      A                      A                      A
 Frequencies --    401.1139               407.3524               459.6202
 Red. masses --      3.2152                 5.2964                 4.4759
 Frc consts  --      0.3048                 0.5178                 0.5571
 IR Inten    --      0.1375                 0.8323                 2.1524

                     22                     23                     24
                      A                      A                      A
 Frequencies --    464.9904               486.2583               502.0577
 Red. masses --      2.9019                 2.8099                 3.7269
 Frc consts  --      0.3697                 0.3914                 0.5535
 IR Inten    --      3.2857                 3.0876                 0.1254

                     25                     26                     27
                      A                      A                      A
 Frequencies --    524.8926               562.6607               598.3213
 Red. masses --      4.4307                 5.0546                 2.9419
 Frc consts  --      0.7192                 0.9428                 0.6205
 IR Inten    --      0.0794                 0.8141                 2.3162

                     28                     29                     30
                      A                      A                      A
 Frequencies --    603.1961               635.4882               663.7618
 Red. masses --      4.2718                 4.3175                 6.5471
 Frc consts  --      0.9157                 1.0273                 1.6995
 IR Inten    --      2.2407                 2.3104                 3.1471

                     31                     32                     33
                      A                      A                      A
 Frequencies --    678.5466               697.6593               709.3217
 Red. masses --      4.6566                 4.5044                 4.1054
 Frc consts  --      1.2632                 1.2917                 1.2170
 IR Inten    --      2.9618                 5.9545                 1.8227

                     34                     35                     36
                      A                      A                      A
 Frequencies --    747.5120               777.7879               806.8368
 Red. masses --      2.3956                 1.5956                 3.2649
 Frc consts  --      0.7887                 0.5687                 1.2523
 IR Inten    --     19.8745                19.4070                 0.4388

                     37                     38                     39
                      A                      A                      A
 Frequencies --    820.4470               833.8722               860.0309
 Red. masses --      1.4279                 3.2185                 2.4903
 Frc consts  --      0.5663                 1.3186                 1.0853
 IR Inten    --     21.5002                 7.3548                 1.3179

                     40                     41                     42
                      A                      A                      A
 Frequencies --    865.9909               891.7284               913.0061
 Red. masses --      1.5013                 1.4842                 2.5062
 Frc consts  --      0.6633                 0.6953                 1.2309
 IR Inten    --      1.1322                 0.4676                 0.6515

                     43                     44                     45
                      A                      A                      A
 Frequencies --    950.6452               955.7025               982.1992
 Red. masses --      1.5336                 1.8765                 2.1860
 Frc consts  --      0.8166                 1.0098                 1.2425
 IR Inten    --      1.3612                 0.6113                 0.8550

                     46                     47                     48
                      A                      A                      A
 Frequencies --    987.0914              1006.6064              1036.3937
 Red. masses --      1.2639                 1.5963                 2.8681
 Frc consts  --      0.7256                 0.9530                 1.8151
 IR Inten    --      0.0483                 2.0192                10.8063

                     49                     50                     51
                      A                      A                      A
 Frequencies --   1039.4578              1056.5070              1076.6462
 Red. masses --      3.5561                 2.6643                 1.9254
 Frc consts  --      2.2638                 1.7522                 1.3150
 IR Inten    --     14.2748                 1.0047                 2.7757

                     52                     53                     54
                      A                      A                      A
 Frequencies --   1078.3596              1078.9687              1112.1774
 Red. masses --      2.1020                 2.2180                 2.1941
 Frc consts  --      1.4402                 1.5213                 1.5990
 IR Inten    --      1.3249                 1.4375                 1.3515

                     55                     56                     57
                      A                      A                      A
 Frequencies --   1125.8693              1154.5832              1156.6720
 Red. masses --      2.1523                 2.1116                 1.3337
 Frc consts  --      1.6074                 1.6585                 1.0513
 IR Inten    --      2.5117                 0.5987                 4.1901

                     58                     59                     60
                      A                      A                      A
 Frequencies --   1176.2886              1186.5874              1199.4348
 Red. masses --      2.0634                 1.5181                 1.1283
 Frc consts  --      1.6822                 1.2594                 0.9563
 IR Inten    --      0.9829                 3.0867                 0.4189

                     61                     62                     63
                      A                      A                      A
 Frequencies --   1205.2299              1227.8328              1233.8113
 Red. masses --      1.5830                 1.4733                 2.4528
 Frc consts  --      1.3548                 1.3086                 2.1999
 IR Inten    --      0.8000                 4.2933                 1.1091

                     64                     65                     66
                      A                      A                      A
 Frequencies --   1248.7123              1288.8158              1323.8915
 Red. masses --      1.8003                 1.4002                 2.0434
 Frc consts  --      1.6540                 1.3704                 2.1102
 IR Inten    --      0.6264                 4.5970                 1.6803

                     67                     68                     69
                      A                      A                      A
 Frequencies --   1329.1362              1336.3497              1354.5200
 Red. masses --      1.5876                 1.8590                 3.0095
 Frc consts  --      1.6525                 1.9560                 3.2532
 IR Inten    --     10.0849                18.8898                 1.8987

                     70                     71                     72
                      A                      A                      A
 Frequencies --   1366.3356              1396.2951              1402.0438
 Red. masses --      1.6926                 1.4856                 1.5027
 Frc consts  --      1.8618                 1.7065                 1.7404
 IR Inten    --      2.5709                 1.4557                 1.8577

                     73                     74                     75
                      A                      A                      A
 Frequencies --   1412.4210              1417.4273              1435.6789
 Red. masses --      1.9602                 2.1273                 1.3601
 Frc consts  --      2.3040                 2.5181                 1.6517
 IR Inten    --     21.7199                 9.0028                 0.6390

                     76                     77                     78
                      A                      A                      A
 Frequencies --   1468.4850              1497.2403              1500.7614
 Red. masses --      1.3229                 2.2508                 2.3770
 Frc consts  --      1.6808                 2.9729                 3.1542
 IR Inten    --      0.8155                 5.5722                10.9183

                     79                     80                     81
                      A                      A                      A
 Frequencies --   1504.2112              1505.6892              1510.2013
 Red. masses --      1.2251                 1.6203                 1.3342
 Frc consts  --      1.6331                 2.1643                 1.7928
 IR Inten    --      7.9881                18.2759                10.8941

                     82                     83                     84
                      A                      A                      A
 Frequencies --   1514.0386              1520.4662              1524.0210
 Red. masses --      1.0574                 1.0923                 1.0873
 Frc consts  --      1.4282                 1.4879                 1.4879
 IR Inten    --      5.5486                10.5931                 6.7473

                     85                     86                     87
                      A                      A                      A
 Frequencies --   1528.0684              1533.7457              1544.6180
 Red. masses --      1.1388                 1.1468                 2.0188
 Frc consts  --      1.5667                 1.5895                 2.8378
 IR Inten    --      5.3186                 3.9068                 1.1487

                     88                     89                     90
                      A                      A                      A
 Frequencies --   1546.8422              1604.7889              1639.8759
 Red. masses --      1.8392                 5.3846                 6.3997
 Frc consts  --      2.5929                 8.1703                10.1399
 IR Inten    --     31.4327                21.9138                 0.5692

                     91                     92                     93
                      A                      A                      A
 Frequencies --   1666.7870              2355.8111              3016.6689
 Red. masses --      5.6686                12.7084                 1.0701
 Frc consts  --      9.2787                41.5549                 5.7375
 IR Inten    --      0.4400                14.4069                24.8924

                     94                     95                     96
                      A                      A                      A
 Frequencies --   3049.0232              3054.6479              3058.6490
 Red. masses --      1.0379                 1.0602                 1.0425
 Frc consts  --      5.6849                 5.8283                 5.7462
 IR Inten    --     34.5003                 4.4277                40.6791

                     97                     98                     99
                      A                      A                      A
 Frequencies --   3069.3987              3077.1572              3081.7480
 Red. masses --      1.0709                 1.0603                 1.0916
 Frc consts  --      5.9443                 5.9151                 6.1080
 IR Inten    --     43.3883                17.3807                22.5498

                    100                    101                    102
                      A                      A                      A
 Frequencies --   3095.8262              3099.2912              3118.8750
 Red. masses --      1.1019                 1.1012                 1.1042
 Frc consts  --      6.2221                 6.2323                 6.3283
 IR Inten    --     29.8338                20.3828                17.2259

                    103                    104                    105
                      A                      A                      A
 Frequencies --   3124.7607              3143.9440              3145.4916
 Red. masses --      1.1005                 1.1001                 1.0931
 Frc consts  --      6.3310                 6.4069                 6.3723
 IR Inten    --     19.8092                11.2026                14.4220

                    106                    107                    108
                      A                      A                      A
 Frequencies --   3177.6743              3184.8411              3185.9327
 Red. masses --      1.0870                 1.1007                 1.0878
 Frc consts  --      6.4668                 6.5783                 6.5056
 IR Inten    --      8.3172                 3.2189                 1.8682

                    109                    110                    111
                      A                      A                      A
 Frequencies --   3198.1113              3212.6736              3276.2110
 Red. masses --      1.0919                 1.0974                 1.0974
 Frc consts  --      6.5802                 6.6735                 6.9399
 IR Inten    --     20.5507                23.4816                 0.7779

 - Thermochemistry -
 -------------------
 Temperature   298.150 Kelvin.  Pressure   1.00000 Atm.
 Atom     1 has atomic number  6 and mass  12.00000

 Molecular mass:   265.15790 amu.
 Principal axes and moments of inertia in atomic units:
                           1         2         3
     Eigenvalues --  3895.057085465.165497100.18359
           X            0.99950   0.03144  -0.00250
           Y           -0.03147   0.99938  -0.01608
           Z            0.00199   0.01615   0.99987
 This molecule is an asymmetric top.
 Rotational symmetry number  1.
 Warning -- assumption of classical behavior for rotation
           may cause significant error
 Rotational temperatures (Kelvin)      0.02224     0.01585     0.01220
 Rotational constants (GHZ):           0.46334     0.33023     0.25418
 Zero-point vibrational energy     866307.4 (Joules/Mol)
                                  207.05243 (Kcal/Mol)
 Warning -- explicit consideration of  28 degrees of freedom as
           vibrations may cause significant error
 Vibrational temperatures:     52.66    63.48    85.39   102.40   129.44
          (Kelvin)            137.97   153.17   190.42   219.82   253.93
                              272.64   304.68   352.52   403.79   436.24
                              474.00   496.49   543.47   577.11   586.09
                              661.29   669.02   699.62   722.35   755.20
                              809.54   860.85   867.86   914.33   955.01
                              976.28  1003.78  1020.56  1075.50  1119.06
                             1160.86  1180.44  1199.76  1237.39  1245.97
                             1283.00  1313.61  1367.77  1375.04  1413.17
                             1420.20  1448.28  1491.14  1495.55  1520.08
                             1549.05  1551.52  1552.40  1600.18  1619.87
                             1661.19  1664.19  1692.42  1707.23  1725.72
                             1734.06  1766.58  1775.18  1796.62  1854.32
                             1904.78  1912.33  1922.71  1948.85  1965.85
                             2008.96  2017.23  2032.16  2039.36  2065.62
                             2112.82  2154.19  2159.26  2164.22  2166.35
                             2172.84  2178.36  2187.61  2192.73  2198.55
                             2206.72  2222.36  2225.56  2308.93  2359.42
                             2398.13  3389.49  4340.31  4386.86  4394.96
                             4400.71  4416.18  4427.34  4433.95  4454.20
                             4459.19  4487.37  4495.83  4523.43  4525.66
                             4571.96  4582.28  4583.85  4601.37  4622.32
                             4713.74

 Zero-point correction=                           0.329959 (Hartree/Particle)
 Thermal correction to Energy=                    0.348061
 Thermal correction to Enthalpy=                  0.349005
 Thermal correction to Gibbs Free Energy=         0.283458
 Sum of electronic and zero-point Energies=           -823.247336
 Sum of electronic and thermal Energies=              -823.229234
 Sum of electronic and thermal Enthalpies=            -823.228290
 Sum of electronic and thermal Free Energies=         -823.293836

                     E (Thermal)             CV                S
                      KCal/Mol        Cal/Mol-Kelvin    Cal/Mol-Kelvin
 Total                  218.412             69.868            137.955
 Electronic               0.000              0.000              0.000
 Translational            0.889              2.981             42.625
 Rotational               0.889              2.981             33.380
 Vibrational            216.634             63.906             61.950
 Vibration     1          0.594              1.982              5.435
 Vibration     2          0.595              1.980              5.065
 Vibration     3          0.597              1.974              4.479
 Vibration     4          0.598              1.968              4.121
 Vibration     5          0.602              1.956              3.661
 Vibration     6          0.603              1.952              3.536
 Vibration     7          0.605              1.944              3.332
 Vibration     8          0.612              1.921              2.912
 Vibration     9          0.619              1.900              2.637
 Vibration    10          0.628              1.871              2.365
 Vibration    11          0.633              1.854              2.233
 Vibration    12          0.643              1.823              2.028
 Vibration    13          0.660              1.771              1.766
 Vibration    14          0.680              1.709              1.530
 Vibration    15          0.695              1.668              1.399
 Vibration    16          0.712              1.617              1.263
 Vibration    17          0.723              1.585              1.189
 Vibration    18          0.748              1.518              1.048
 Vibration    19          0.767              1.468              0.959
 Vibration    20          0.772              1.454              0.936
 Vibration    21          0.818              1.340              0.767
 Vibration    22          0.822              1.328              0.752
 Vibration    23          0.842              1.281              0.693
 Vibration    24          0.857              1.245              0.653
 Vibration    25          0.880              1.195              0.599
 Vibration    26          0.918              1.112              0.519
 Vibration    27          0.956              1.035              0.453
 Vibration    28          0.962              1.025              0.444

 Optimization completed.
    -- Stationary point found.
 Normal termination of Gaussian 16 at Sat Dec 12 16:30:50 2020.

 ----------------------------------------------------------------------
 # B3LYP/6-311++G(d,p) empiricaldispersion=gd3bj scf=xqc pop=npa geom=c
 heck
 ----------------------------------------------------------------------

 ---------------------------------------
 CID_65859199_JID_10447_Energie_neutraal
 ---------------------------------------
 Structure from the checkpoint file:  "JID_10447.chk"
 Charge =  0 Multiplicity = 1

 SCF Done:  E(RB3LYP) =  -823.787807963     A.U. after   16 cycles
 Normal termination of Gaussian 16 at Sat Dec 12 16:43:06 2020.

 ----------------------------------------------------------------------
 # B3LYP/6-311++G(d,p) empiricaldispersion=gd3bj scf=xqc pop=npa geom=c
 heck
 ----------------------------------------------------------------------

 -------------------------------------
 CID_65859199_JID_10447_Energie_kation
 -------------------------------------
 Structure from the checkpoint file:  "JID_10447.chk"
 Charge =  1 Multiplicity = 2

 SCF Done:  E(UB3LYP) =  -823.484731750     A.U. after   33 cycles
 SCF Done:  E(UB3LYP) =  -823.484731750     a.u. after    1 cycles
 Normal termination of Gaussian 16 at Sat Dec 12 17:19:24 2020.
 Gaussian 16:  ES64L-G16RevA.03 25-Dec-2016

 ----------------------------------------------------------------------
 # B3LYP/6-311++G(d,p) empiricaldispersion=gd3bj scf=xqc pop=npa geom=c
 heck
 ----------------------------------------------------------------------

 ------------------------------------
 CID_65859199_JID_10447_Energie_anion
 ------------------------------------
 Structure from the checkpoint file:  "JID_10447.chk"
 Charge = -1 Multiplicity = 2

                         Standard orientation:
 ---------------------------------------------------------------------
 Center     Atomic      Atomic             Coordinates (Angstroms)
 Number     Number       Type             X           Y           Z
 ---------------------------------------------------------------------
      1          6           0       -3.210899    2.712729   -0.338282
      2          6           0       -2.626365    1.339680   -0.458802
      3          7           0       -3.328805    0.268996   -0.076663
      4          7           0       -2.522427   -0.794525   -0.325320
      5          6           0       -1.314043   -0.420036   -0.844819
      6          6           0       -1.356650    0.960635   -0.952109
      7          6           0       -0.205792   -1.380657   -1.125769
      8          6           0        0.972091   -1.340222   -0.078069
      9          6           0        0.515462   -1.797489    1.334821
     10          6           0       -0.165202   -0.687517    2.139282
     11          6           0        0.791623    0.490712    2.317948
     12          6           0        1.449625    0.926140    1.025785
     13          6           0        1.954873    2.229555    0.922763
     14          6           0        2.606517    2.670278   -0.224002
     15          6           0        2.775085    1.795932   -1.299812
     16          6           0        2.274902    0.501463   -1.212960
     17          6           0        1.603077    0.058136   -0.065864
     18          6           0        1.963430   -2.320704   -0.557694
     19          7           0        2.719376   -3.110692   -0.948328
     20          6           0       -2.990361   -2.118282    0.031487
     21          1           0       -4.201158    2.656180    0.121145
     22          1           0       -2.578322    3.362492    0.278134
     23          1           0       -3.312614    3.192848   -1.318938
     24          1           0       -0.568491    1.600424   -1.321056
     25          1           0       -0.580033   -2.408281   -1.169919
     26          1           0        0.221397   -1.160555   -2.108247
     27          1           0        1.400311   -2.135359    1.887415
     28          1           0       -0.135156   -2.671991    1.225544
     29          1           0       -1.081174   -0.348943    1.650851
     30          1           0       -0.453018   -1.084145    3.119722
     31          1           0        0.267525    1.342445    2.765883
     32          1           0        1.580415    0.207995    3.031404
     33          1           0        1.826964    2.905915    1.764621
     34          1           0        2.984073    3.687334   -0.278664
     35          1           0        3.292407    2.119366   -2.198139
     36          1           0        2.411093   -0.182457   -2.046528
     37          1           0       -2.527638   -2.473158    0.959469
     38          1           0       -4.068095   -2.046341    0.175481
     39          1           0       -2.779733   -2.832349   -0.769430
 ---------------------------------------------------------------------

 SCF Done:  E(UB3LYP) =  -823.778918270     A.U. after   33 cycles
 SCF Done:  E(UB3LYP) =  -823.778918302     a.u. after    2 cycles

 The electronic state is 2-A.
 Alpha  occ. eigenvalues --  -14.29742 -14.23383 -14.22553 -10.14962 -10.12315
 Alpha  occ. eigenvalues --  -10.12307 -10.12117 -10.11346 -10.10546 -10.10410
 Alpha  occ. eigenvalues --  -10.09980 -10.09388 -10.09261 -10.09091 -10.09031
 Alpha  occ. eigenvalues --  -10.08793 -10.08469 -10.08248 -10.07907 -10.06937
 Alpha  occ. eigenvalues --   -0.95762  -0.82724  -0.79282  -0.76308  -0.74863
 Alpha  occ. eigenvalues --   -0.71757  -0.69816  -0.66293  -0.65377  -0.65191
 Alpha  occ. eigenvalues --   -0.61283  -0.58509  -0.56516  -0.53458  -0.52727
 Alpha  occ. eigenvalues --   -0.50133  -0.47368  -0.45557  -0.44317  -0.41688
 Alpha  occ. eigenvalues --   -0.41547  -0.39802  -0.38769  -0.37981  -0.36510
 Alpha  occ. eigenvalues --   -0.35740  -0.35019  -0.34643  -0.33763  -0.33573
 Alpha  occ. eigenvalues --   -0.32706  -0.32390  -0.31740  -0.30456  -0.30274
 Alpha  occ. eigenvalues --   -0.29852  -0.29303  -0.28686  -0.27896  -0.27638
 Alpha  occ. eigenvalues --   -0.26942  -0.26025  -0.25234  -0.24696  -0.23531
 Alpha  occ. eigenvalues --   -0.22701  -0.20341  -0.17004  -0.16560  -0.15359
 Alpha  occ. eigenvalues --   -0.15196   0.03777
 Alpha virt. eigenvalues --    0.05473   0.06010   0.06201   0.06546   0.07158
 Alpha virt. eigenvalues --    0.07544   0.08126   0.08471   0.08930   0.09567
 Alpha virt. eigenvalues --    0.09737   0.10212   0.10461   0.11180   0.11439

  Beta  occ. eigenvalues --  -14.29733 -14.23369 -14.22545 -10.14961 -10.12313
  Beta  occ. eigenvalues --  -10.12300 -10.12074 -10.11334 -10.10547 -10.10394
  Beta  occ. eigenvalues --  -10.09966 -10.09362 -10.09259 -10.09071 -10.09013
  Beta  occ. eigenvalues --  -10.08786 -10.08452 -10.08236 -10.07886 -10.06930
  Beta  occ. eigenvalues --   -0.95745  -0.82707  -0.79254  -0.76284  -0.74835
  Beta  occ. eigenvalues --   -0.71723  -0.69789  -0.66244  -0.65349  -0.65162
  Beta  occ. eigenvalues --   -0.61248  -0.58466  -0.56478  -0.53402  -0.52695
  Beta  occ. eigenvalues --   -0.50108  -0.47320  -0.45517  -0.44276  -0.41656
  Beta  occ. eigenvalues --   -0.41506  -0.39763  -0.38734  -0.37944  -0.36471
  Beta  occ. eigenvalues --   -0.35714  -0.34977  -0.34611  -0.33741  -0.33537
  Beta  occ. eigenvalues --   -0.32683  -0.32362  -0.31704  -0.30419  -0.30242
  Beta  occ. eigenvalues --   -0.29825  -0.29268  -0.28668  -0.27871  -0.27610
  Beta  occ. eigenvalues --   -0.26905  -0.25998  -0.25205  -0.24663  -0.23500
  Beta  occ. eigenvalues --   -0.22669  -0.20314  -0.16964  -0.16495  -0.15319
  Beta  occ. eigenvalues --   -0.15151
  Beta virt. eigenvalues --    0.05810   0.06037   0.06531   0.06594   0.06949
  Beta virt. eigenvalues --    0.07386   0.08010   0.08635   0.08786   0.09288
  Beta virt. eigenvalues --    0.09756   0.09959   0.10469   0.10924   0.11317

 Mulliken charges and spin densities:
               1          2
     1  C    0.279692  -0.972301
     2  C   -0.453774   0.152685
     3  N   -0.103418   0.099130
     4  N    0.144823  -0.028601
     5  C   -1.374820   1.012918
     6  C    0.490620  -0.325798
     7  C   -1.004425   0.234597
     8  C    1.361169   0.104594
     9  C   -0.160361  -0.567474
    10  C   -1.479711   1.182225
    11  C    2.153707  -2.801153
    12  C   -1.607779   2.037604
    13  C    0.424945  -0.500781
    14  C    0.622163  -1.103936
    15  C    0.036569  -0.488392
    16  C   -0.705944   0.337136
    17  C   -0.419239   0.994040
    18  C    1.764391  -2.228368
    19  N   -0.305781   0.079512
    20  C    0.947122  -1.255499
    21  H    0.078398   0.065847
    22  H    0.039648   0.112562
    23  H    0.046742   0.107006
    24  H    0.208727  -0.033802
    25  H    0.211198  -0.007237
    26  H   -0.066799   0.269381
    27  H   -0.056079   0.264631
    28  H   -0.105792   0.303950
    29  H    0.332617  -0.154684
    30  H   -0.657129   0.876137
    31  H   -0.067397   0.236863
    32  H    0.032574   0.155452
    33  H   -0.311157   0.496302
    34  H   -0.422515   0.596448
    35  H   -0.246767   0.420559
    36  H    0.139816   0.034784
    37  H   -0.373231   0.565875
    38  H    0.018527   0.163136
    39  H   -0.411332   0.564652
 Sum of Mulliken charges =  -1.00000   1.00000

 Dipole moment (field-independent basis, Debye):
    X=             -1.2476    Y=              2.3777    Z=             -2.6544  Tot=              3.7757
 Quadrupole moment (field-independent basis, Debye-Ang):
   XX=           -186.1627   YY=           -188.8358   ZZ=           -164.8068
   XY=             -5.0474   XZ=              5.3230   YZ=              2.1030

 Summary of Natural Population Analysis:

                                       Natural Population
                Natural  -----------------------------------------------
    Atom  No    Charge         Core      Valence    Rydberg      Total
 -----------------------------------------------------------------------
      C    1   -0.29701      0.99963     2.29285    0.00453     3.29701
      C    2    0.07288      0.99960     1.91434    0.01319     2.92712
      N    3   -0.16101      0.99970     2.65042    0.01089     3.66101
      N    4   -0.11082      0.99962     2.59867    0.01253     3.61082
      C    5    0.08494      0.99951     1.90256    0.01299     2.91506
      C    6   -0.15560      0.99944     2.14808    0.00808     3.15560
      C    7   -0.19521      0.99957     2.18500    0.01064     3.19521
      C    8   -0.08351      0.99945     2.07069    0.01337     3.08351
      C    9   -0.18115      0.99960     2.17058    0.01097     3.18115
      C   10   -0.19181      0.99962     2.18320    0.00900     3.19181
      C   11   -0.19424      0.99959     2.18572    0.00893     3.19424
      C   12   -0.00319      0.99945     1.99325    0.01049     3.00319
      C   13   -0.09493      0.99951     2.08557    0.00985     3.09493
      C   14   -0.09469      0.99956     2.08526    0.00987     3.09469
      C   15   -0.10159      0.99956     2.09192    0.01011     3.10159
      C   16   -0.09688      0.99951     2.08810    0.00927     3.09688
      C   17   -0.01314      0.99944     2.00154    0.01215     3.01314
      C   18    0.17191      0.99962     1.80741    0.02107     2.82809
      N   19   -0.18232      0.99979     2.67115    0.01138     3.68232
      C   20   -0.17550      0.99963     2.16797    0.00790     3.17550
      H   21    0.10736      0.00000     0.39159    0.00106     0.39264
      H   22    0.10460      0.00000     0.39416    0.00124     0.39540
      H   23    0.10178      0.00000     0.39707    0.00114     0.39822
      H   24    0.11422      0.00000     0.38450    0.00128     0.38578
      H   25    0.11162      0.00000     0.38655    0.00183     0.38838
      H   26    0.11320      0.00000     0.38547    0.00133     0.38680
      H   27    0.10477      0.00000     0.39338    0.00185     0.39523
      H   28    0.10584      0.00000     0.39188    0.00228     0.39416
      H   29    0.10243      0.00000     0.39454    0.00303     0.39757
      H   30    0.10578      0.00000     0.39230    0.00192     0.39422
      H   31    0.10570      0.00000     0.39309    0.00121     0.39430
      H   32    0.10446      0.00000     0.39421    0.00133     0.39554
      H   33    0.10146      0.00000     0.39692    0.00162     0.39854
      H   34    0.10273      0.00000     0.39602    0.00125     0.39727
      H   35    0.10210      0.00000     0.39702    0.00088     0.39790
      H   36    0.10347      0.00000     0.39493    0.00160     0.39653
      H   37    0.10136      0.00000     0.39678    0.00186     0.39864
      H   38    0.11085      0.00000     0.38777    0.00138     0.38915
      H   39    0.09913      0.00000     0.39963    0.00123     0.40087
 =======================================================================
   * Total *   -0.00000     19.99140    50.76208    0.24652    71.00000

 Normal termination of Gaussian 16 at Sat Dec 12 18:28:10 2020.
