 Gaussian 16, Revision A.03,

 -----------------------------------------------------------
 # opt freq B3LYP/6-31G(d) empiricaldispersion=gd3bj scf=xqc
 -----------------------------------------------------------

 ------------------------------
 CID_69248663_JID_5400_neutraal
 ------------------------------
 Symbolic Z-matrix:
 Charge =  0 Multiplicity = 1

 SCF Done:  E(RB3LYP) =  -1047.68226618     A.U. after   15 cycles
 SCF Done:  E(RB3LYP) =  -1047.68729676     A.U. after   13 cycles
 SCF Done:  E(RB3LYP) =  -1047.68841170     A.U. after   13 cycles
 SCF Done:  E(RB3LYP) =  -1047.68844293     A.U. after   12 cycles
 SCF Done:  E(RB3LYP) =  -1047.68935652     A.U. after   12 cycles
 SCF Done:  E(RB3LYP) =  -1047.68945751     A.U. after   11 cycles
 SCF Done:  E(RB3LYP) =  -1047.68949901     A.U. after   11 cycles
 SCF Done:  E(RB3LYP) =  -1047.68952670     A.U. after   11 cycles
 SCF Done:  E(RB3LYP) =  -1047.68958274     A.U. after   12 cycles
 SCF Done:  E(RB3LYP) =  -1047.68961039     A.U. after   12 cycles
 SCF Done:  E(RB3LYP) =  -1047.68963012     A.U. after   10 cycles
 SCF Done:  E(RB3LYP) =  -1047.68963248     A.U. after   10 cycles
 SCF Done:  E(RB3LYP) =  -1047.68963325     A.U. after   10 cycles
 SCF Done:  E(RB3LYP) =  -1047.68963329     A.U. after    9 cycles
 SCF Done:  E(RB3LYP) =  -1047.68963331     A.U. after    7 cycles
 Optimization completed.
    -- Stationary point found.
 Normal termination of Gaussian 16 at Thu Dec 10 16:02:25 2020.

 --------------------------------------------------------------------
 #N Geom=AllCheck Guess=TCheck SCRF=Check GenChk RB3LYP/6-31G(d) Freq
 --------------------------------------------------------------------

 Structure from the checkpoint file:  "JID_5400.chk"
 ------------------------------
 CID_69248663_JID_5400_neutraal
 ------------------------------
 Charge =  0 Multiplicity = 1

 SCF Done:  E(RB3LYP) =  -1047.68963331     A.U. after    1 cycles

  Exact polarizability: 171.469   7.941 136.136 -11.974   6.053  97.698
 Approx polarizability: 241.067  11.173 209.387 -28.889  11.030 159.888

                      1                      2                      3
                      A                      A                      A
 Frequencies --     16.8510                38.2282                42.5371
 Red. masses --      5.5402                 4.7119                 5.0486
 Frc consts  --      0.0009                 0.0041                 0.0054
 IR Inten    --      2.2186                 1.6987                 0.2692

                      4                      5                      6
                      A                      A                      A
 Frequencies --     86.9748               127.1695               138.8440
 Red. masses --      4.4077                 1.1477                 2.9792
 Frc consts  --      0.0196                 0.0109                 0.0338
 IR Inten    --      0.4163                 0.2506                 0.0144

                      7                      8                      9
                      A                      A                      A
 Frequencies --    145.6394               178.3525               210.0932
 Red. masses --      3.2579                 3.9470                 4.7440
 Frc consts  --      0.0407                 0.0740                 0.1234
 IR Inten    --      0.1474                 1.7882                 1.3877

                     10                     11                     12
                      A                      A                      A
 Frequencies --    262.1274               284.0730               297.6206
 Red. masses --      3.5263                 3.0380                 2.4279
 Frc consts  --      0.1428                 0.1444                 0.1267
 IR Inten    --      5.1827                 5.3207                 4.0296

                     13                     14                     15
                      A                      A                      A
 Frequencies --    333.1301               344.7472               402.1472
 Red. masses --      4.1420                 3.8679                 4.6523
 Frc consts  --      0.2708                 0.2709                 0.4433
 IR Inten    --      8.0748                 2.7638                 1.7255

                     16                     17                     18
                      A                      A                      A
 Frequencies --    409.0037               454.3377               477.6871
 Red. masses --      2.7228                 3.9628                 5.2194
 Frc consts  --      0.2684                 0.4820                 0.7017
 IR Inten    --     12.1647                 3.4419                 0.4460

                     19                     20                     21
                      A                      A                      A
 Frequencies --    533.2849               556.1471               566.1637
 Red. masses --      3.8710                 3.8802                 3.0345
 Frc consts  --      0.6486                 0.7071                 0.5731
 IR Inten    --     13.1074                 4.0105                 4.6772

                     22                     23                     24
                      A                      A                      A
 Frequencies --    598.8913               613.6341               645.4878
 Red. masses --      3.1979                 4.0280                 4.5567
 Frc consts  --      0.6758                 0.8936                 1.1186
 IR Inten    --      6.6942                10.2952                 6.6231

                     25                     26                     27
                      A                      A                      A
 Frequencies --    728.2999               754.1775               765.0504
 Red. masses --      1.5564                 2.8604                 5.5806
 Frc consts  --      0.4864                 0.9586                 1.9245
 IR Inten    --     72.6970                19.9825                25.1802

                     28                     29                     30
                      A                      A                      A
 Frequencies --    850.0873               854.7289               875.6984
 Red. masses --      1.4509                 2.5534                 2.5500
 Frc consts  --      0.6178                 1.0991                 1.1521
 IR Inten    --      0.8984                 7.7189                11.3128

                     31                     32                     33
                      A                      A                      A
 Frequencies --    907.4178               933.0014               965.9205
 Red. masses --      5.1842                 1.5752                 2.6698
 Frc consts  --      2.5150                 0.8079                 1.4676
 IR Inten    --      6.6442                 0.5130                 9.3286

                     34                     35                     36
                      A                      A                      A
 Frequencies --    976.9138              1004.1919              1043.2738
 Red. masses --      2.0952                 4.1110                 3.5253
 Frc consts  --      1.1781                 2.4425                 2.2607
 IR Inten    --      1.6037                12.2637                 8.0069

                     37                     38                     39
                      A                      A                      A
 Frequencies --   1061.4803              1092.7616              1117.2639
 Red. masses --      3.6195                 1.9243                 1.8680
 Frc consts  --      2.4029                 1.3539                 1.3738
 IR Inten    --     16.2492                 3.8738                 2.7748

                     40                     41                     42
                      A                      A                      A
 Frequencies --   1141.4965              1176.0696              1186.1819
 Red. masses --      2.6165                 1.1486                 1.2782
 Frc consts  --      2.0088                 0.9360                 1.0597
 IR Inten    --     14.8629                12.0286                 1.2112

                     43                     44                     45
                      A                      A                      A
 Frequencies --   1208.4936              1214.7314              1222.2129
 Red. masses --      1.3864                 1.6144                 1.6818
 Frc consts  --      1.1929                 1.4035                 1.4802
 IR Inten    --     24.0988                47.3747               122.6913

                     46                     47                     48
                      A                      A                      A
 Frequencies --   1234.6694              1278.2416              1285.9133
 Red. masses --      1.9310                 1.9853                 1.5860
 Frc consts  --      1.7343                 1.9112                 1.5451
 IR Inten    --    173.0622               127.6852                63.8227

                     49                     50                     51
                      A                      A                      A
 Frequencies --   1303.2215              1346.1247              1370.0302
 Red. masses --      1.2262                 2.2039                 1.7598
 Frc consts  --      1.2270                 2.3529                 1.9461
 IR Inten    --      6.1428                76.0997                 3.9242

                     52                     53                     54
                      A                      A                      A
 Frequencies --   1388.7124              1390.4679              1402.1952
 Red. masses --      1.5042                 1.4717                 1.5685
 Frc consts  --      1.7092                 1.6765                 1.8170
 IR Inten    --      7.0225                 1.2204                12.1396

                     55                     56                     57
                      A                      A                      A
 Frequencies --   1406.0043              1436.8376              1492.6374
 Red. masses --      1.5421                 3.1755                 1.2238
 Frc consts  --      1.7961                 3.8626                 1.6065
 IR Inten    --     46.3350                63.7667                 9.3683

                     58                     59                     60
                      A                      A                      A
 Frequencies --   1500.8788              1510.3381              1512.9087
 Red. masses --      1.0859                 1.0987                 1.0471
 Frc consts  --      1.4413                 1.4767                 1.4121
 IR Inten    --     36.6535                 1.4347                 7.6654

                     61                     62                     63
                      A                      A                      A
 Frequencies --   1518.2056              1521.1718              1522.3013
 Red. masses --      1.0874                 1.0851                 1.0467
 Frc consts  --      1.4768                 1.4794                 1.4291
 IR Inten    --      5.0107                 2.2347                 9.3910

                     64                     65                     66
                      A                      A                      A
 Frequencies --   1532.5137              1685.6109              1727.6914
 Red. masses --      1.1052                 8.3287                 8.2546
 Frc consts  --      1.5293                13.9425                14.5171
 IR Inten    --      0.4579               269.4202               129.8197

                     67                     68                     69
                      A                      A                      A
 Frequencies --   1836.3711              3016.3461              3024.7566
 Red. masses --     11.1345                 1.0689                 1.0590
 Frc consts  --     22.1228                 5.7300                 5.7086
 IR Inten    --    166.4100                45.7844                33.3499

                     70                     71                     72
                      A                      A                      A
 Frequencies --   3041.2365              3047.4914              3058.7977
 Red. masses --      1.0735                 1.0652                 1.0924
 Frc consts  --      5.8500                 5.8287                 6.0217
 IR Inten    --     18.1194                11.3665                28.7763

                     73                     74                     75
                      A                      A                      A
 Frequencies --   3066.7705              3082.4347              3092.2433
 Red. masses --      1.0901                 1.0294                 1.0983
 Frc consts  --      6.0408                 5.7625                 6.1873
 IR Inten    --     35.3364                27.4164                57.1314

                     76                     77                     78
                      A                      A                      A
 Frequencies --   3096.8031              3097.0739              3145.6354
 Red. masses --      1.0709                 1.0943                 1.1043
 Frc consts  --      6.0511                 6.1844                 6.4383
 IR Inten    --     28.1945                35.6952                 2.4499

                     79                     80                     81
                      A                      A                      A
 Frequencies --   3160.7785              3193.1193              3485.8273
 Red. masses --      1.1079                 1.1077                 1.0745
 Frc consts  --      6.5213                 6.6543                 7.6929
 IR Inten    --     15.4683                14.1631                 1.2940

 - Thermochemistry -
 -------------------
 Temperature   298.150 Kelvin.  Pressure   1.00000 Atm.
 Atom     1 has atomic number  6 and mass  12.00000

 Molecular mass:   226.07760 amu.
 Principal axes and moments of inertia in atomic units:
                           1         2         3
     Eigenvalues --  2057.676014769.244016101.01365
           X            0.99974   0.02266   0.00167
           Y           -0.02266   0.99974   0.00359
           Z           -0.00159  -0.00363   0.99999
 This molecule is an asymmetric top.
 Rotational symmetry number  1.
 Warning -- assumption of classical behavior for rotation
           may cause significant error
 Rotational temperatures (Kelvin)      0.04209     0.01816     0.01420
 Rotational constants (GHZ):           0.87708     0.37841     0.29581
 Zero-point vibrational energy     625975.8 (Joules/Mol)
                                  149.61182 (Kcal/Mol)
 Warning -- explicit consideration of  23 degrees of freedom as
           vibrations may cause significant error
 Vibrational temperatures:     24.24    55.00    61.20   125.14   182.97
          (Kelvin)            199.77   209.54   256.61   302.28   377.14
                              408.72   428.21   479.30   496.01   578.60
                              588.47   653.69   687.29   767.28   800.17
                              814.58   861.67   882.88   928.71  1047.86
                             1085.09  1100.74  1223.09  1229.76  1259.93
                             1305.57  1342.38  1389.74  1405.56  1444.81
                             1501.04  1527.23  1572.24  1607.49  1642.36
                             1692.10  1706.65  1738.75  1747.73  1758.49
                             1776.41  1839.10  1850.14  1875.05  1936.77
                             1971.17  1998.05  2000.57  2017.45  2022.93
                             2067.29  2147.57  2159.43  2173.04  2176.74
                             2184.36  2188.63  2190.25  2204.95  2425.22
                             2485.76  2642.13  4339.85  4351.95  4375.66
                             4384.66  4400.93  4412.40  4434.94  4449.05
                             4455.61  4456.00  4525.87  4547.66  4594.19
                             5015.33

 Zero-point correction=                           0.238422 (Hartree/Particle)
 Thermal correction to Energy=                    0.253025
 Thermal correction to Enthalpy=                  0.253970
 Thermal correction to Gibbs Free Energy=         0.194719
 Sum of electronic and zero-point Energies=          -1047.451212
 Sum of electronic and thermal Energies=             -1047.436608
 Sum of electronic and thermal Enthalpies=           -1047.435664
 Sum of electronic and thermal Free Energies=        -1047.494915

                     E (Thermal)             CV                S
                      KCal/Mol        Cal/Mol-Kelvin    Cal/Mol-Kelvin
 Total                  158.776             54.143            124.704
 Electronic               0.000              0.000              0.000
 Translational            0.889              2.981             42.149
 Rotational               0.889              2.981             32.460
 Vibrational            156.998             48.182             50.095
 Vibration     1          0.593              1.986              6.974
 Vibration     2          0.594              1.982              5.349
 Vibration     3          0.595              1.980              5.137
 Vibration     4          0.601              1.958              3.727
 Vibration     5          0.611              1.926              2.988
 Vibration     6          0.614              1.915              2.820
 Vibration     7          0.617              1.907              2.728
 Vibration     8          0.629              1.869              2.346
 Vibration     9          0.642              1.825              2.043
 Vibration    10          0.669              1.742              1.648
 Vibration    11          0.682              1.703              1.509
 Vibration    12          0.691              1.678              1.430
 Vibration    13          0.715              1.609              1.245
 Vibration    14          0.723              1.586              1.190
 Vibration    15          0.768              1.465              0.955
 Vibration    16          0.773              1.451              0.930
 Vibration    17          0.813              1.351              0.783
 Vibration    18          0.834              1.300              0.716
 Vibration    19          0.888              1.176              0.580
 Vibration    20          0.912              1.126              0.532
 Vibration    21          0.922              1.104              0.512
 Vibration    22          0.957              1.034              0.452
 Vibration    23          0.973              1.003              0.427

 Optimization completed.
    -- Stationary point found.
 Normal termination of Gaussian 16 at Thu Dec 10 16:11:25 2020.

 ----------------------------------------------------------------------
 # B3LYP/6-311++G(d,p) empiricaldispersion=gd3bj scf=xqc pop=npa geom=c
 heck
 ----------------------------------------------------------------------

 --------------------------------------
 CID_69248663_JID_5400_Energie_neutraal
 --------------------------------------
 Structure from the checkpoint file:  "JID_5400.chk"
 Charge =  0 Multiplicity = 1

 SCF Done:  E(RB3LYP) =  -1047.90000481     A.U. after   16 cycles
 Normal termination of Gaussian 16 at Thu Dec 10 16:15:34 2020.

 ----------------------------------------------------------------------
 # B3LYP/6-311++G(d,p) empiricaldispersion=gd3bj scf=xqc pop=npa geom=c
 heck
 ----------------------------------------------------------------------

 ------------------------------------
 CID_69248663_JID_5400_Energie_kation
 ------------------------------------
 Structure from the checkpoint file:  "JID_5400.chk"
 Charge =  1 Multiplicity = 2

 SCF Done:  E(UB3LYP) =  -1047.64031980     A.U. after   22 cycles
 Normal termination of Gaussian 16 at Thu Dec 10 16:23:22 2020.
 Gaussian 16:  ES64L-G16RevA.03 25-Dec-2016

 ----------------------------------------------------------------------
 # B3LYP/6-311++G(d,p) empiricaldispersion=gd3bj scf=xqc pop=npa geom=c
 heck
 ----------------------------------------------------------------------

 -----------------------------------
 CID_69248663_JID_5400_Energie_anion
 -----------------------------------
 Structure from the checkpoint file:  "JID_5400.chk"
 Charge = -1 Multiplicity = 2

                         Standard orientation:
 ---------------------------------------------------------------------
 Center     Atomic      Atomic             Coordinates (Angstroms)
 Number     Number       Type             X           Y           Z
 ---------------------------------------------------------------------
      1          6           0        4.441111   -0.785385    0.881939
      2          8           0        3.546172   -0.429523   -0.189781
      3          6           0        2.257425   -0.758818    0.007653
      4          8           0        1.831198   -1.319332    0.991364
      5          6           0        1.389612   -0.336863   -1.178047
      6          7           0        0.209682    0.369610   -0.740594
      7          6           0       -1.011079   -0.249742   -0.416501
      8          6           0       -1.902130    0.578792    0.157342
      9          6           0       -3.268990    0.176562    0.622797
     10          6           0       -3.342379   -1.355218    0.740810
     11          6           0       -2.752847   -2.034662   -0.501548
     12          6           0       -1.260191   -1.704265   -0.681247
     13         16           0       -1.245201    2.213108    0.350360
     14          6           0        0.333958    1.698101   -0.311344
     15          7           0        1.339181    2.484207   -0.337772
     16          1           0        5.427208   -0.451466    0.560878
     17          1           0        4.429299   -1.866125    1.042618
     18          1           0        4.140909   -0.281396    1.803453
     19          1           0        1.962350    0.283814   -1.871639
     20          1           0        1.088363   -1.239901   -1.713616
     21          1           0       -4.037268    0.539808   -0.076174
     22          1           0       -3.491940    0.639817    1.592114
     23          1           0       -4.382802   -1.667369    0.886010
     24          1           0       -2.781350   -1.673548    1.628878
     25          1           0       -2.879384   -3.121244   -0.441933
     26          1           0       -3.303739   -1.696565   -1.389132
     27          1           0       -0.640234   -2.304486   -0.000379
     28          1           0       -0.952822   -1.971530   -1.701742
     29          1           0        2.176686    2.043580   -0.720320
 ---------------------------------------------------------------------

 SCF Done:  E(UB3LYP) =  -1047.89027537     A.U. after   33 cycles
 SCF Done:  E(UB3LYP) =  -1047.89027537     a.u. after    1 cycles

 The electronic state is 2-A.
 Alpha  occ. eigenvalues --  -88.77121 -19.08916 -19.02874 -14.27269 -14.18584
 Alpha  occ. eigenvalues --  -10.21694 -10.17765 -10.13863 -10.13681 -10.12026
 Alpha  occ. eigenvalues --  -10.09884 -10.09126 -10.08490 -10.08010 -10.07756
 Alpha  occ. eigenvalues --   -7.85772  -5.82107  -5.81764  -5.81235  -1.02742
 Alpha  occ. eigenvalues --   -0.94048  -0.90584  -0.79478  -0.75758  -0.71391
 Alpha  occ. eigenvalues --   -0.67682  -0.65338  -0.62463  -0.61439  -0.53918
 Alpha  occ. eigenvalues --   -0.51878  -0.49963  -0.47443  -0.45438  -0.43757
 Alpha  occ. eigenvalues --   -0.42768  -0.40486  -0.39081  -0.38872  -0.36617
 Alpha  occ. eigenvalues --   -0.35503  -0.35048  -0.34331  -0.32563  -0.31889
 Alpha  occ. eigenvalues --   -0.31590  -0.30172  -0.29506  -0.28705  -0.27899
 Alpha  occ. eigenvalues --   -0.26866  -0.24586  -0.24413  -0.23169  -0.22821
 Alpha  occ. eigenvalues --   -0.20795  -0.20156  -0.18353  -0.17943  -0.09938
 Alpha  occ. eigenvalues --    0.03996
 Alpha virt. eigenvalues --    0.05652   0.06688   0.07708   0.07780   0.08460
 Alpha virt. eigenvalues --    0.08735   0.09197   0.09538   0.09788   0.10536
 Alpha virt. eigenvalues --    0.10797   0.11137   0.11370   0.12098   0.12652

  Beta  occ. eigenvalues --  -88.77119 -19.08905 -19.02858 -14.27269 -14.18577
  Beta  occ. eigenvalues --  -10.21668 -10.17763 -10.13835 -10.13638 -10.12024
  Beta  occ. eigenvalues --  -10.09878 -10.09113 -10.08456 -10.07994 -10.07729
  Beta  occ. eigenvalues --   -7.85770  -5.82101  -5.81761  -5.81233  -1.02711
  Beta  occ. eigenvalues --   -0.94020  -0.90575  -0.79463  -0.75733  -0.71357
  Beta  occ. eigenvalues --   -0.67635  -0.65292  -0.62431  -0.61383  -0.53863
  Beta  occ. eigenvalues --   -0.51837  -0.49905  -0.47401  -0.45397  -0.43724
  Beta  occ. eigenvalues --   -0.42704  -0.40435  -0.39045  -0.38830  -0.36564
  Beta  occ. eigenvalues --   -0.35468  -0.35011  -0.34298  -0.32533  -0.31844
  Beta  occ. eigenvalues --   -0.31555  -0.30130  -0.29451  -0.28672  -0.27859
  Beta  occ. eigenvalues --   -0.26838  -0.24544  -0.24366  -0.23136  -0.22775
  Beta  occ. eigenvalues --   -0.20780  -0.20137  -0.18340  -0.17929  -0.09922
  Beta virt. eigenvalues --    0.06249   0.06601   0.07661   0.08012   0.08145
  Beta virt. eigenvalues --    0.08722   0.09220   0.09583   0.09936   0.10001
  Beta virt. eigenvalues --    0.10903   0.11059   0.11445   0.11641   0.12278

 Mulliken charges and spin densities:
               1          2
     1  C    0.713618  -0.950035
     2  O   -0.101565   0.081333
     3  C   -0.854753   0.949447
     4  O   -0.240531   0.008834
     5  C    1.270404  -1.924198
     6  N    0.377999   0.175570
     7  C   -1.514212   0.063770
     8  C    0.972820   0.462906
     9  C    0.568492  -0.818888
    10  C   -0.286857   0.137651
    11  C    0.485331  -0.987049
    12  C    0.357476  -0.853531
    13  S   -0.251466  -0.094405
    14  C    0.117921  -0.009856
    15  N   -0.375986   0.025457
    16  H   -0.476838   0.628983
    17  H   -0.281259   0.459813
    18  H   -0.077202   0.255620
    19  H   -0.131933   0.382436
    20  H   -0.751634   0.941724
    21  H   -0.065831   0.224109
    22  H    0.078136   0.060678
    23  H   -0.242777   0.414182
    24  H    0.132105   0.002396
    25  H   -0.491080   0.675824
    26  H   -0.033254   0.188079
    27  H    0.052188   0.155298
    28  H   -0.173202   0.346591
    29  H    0.223890  -0.002740
 Sum of Mulliken charges =  -1.00000   1.00000

 Dipole moment (field-independent basis, Debye):
    X=             -2.3946    Y=              2.9830    Z=              1.8364  Tot=              4.2432
 Quadrupole moment (field-independent basis, Debye-Ang):
   XX=           -171.7738   YY=           -151.3683   ZZ=           -129.4318
   XY=             -4.9708   XZ=             -2.8119   YZ=             -4.5799

 Summary of Natural Population Analysis:

                                       Natural Population
                Natural  -----------------------------------------------
    Atom  No    Charge         Core      Valence    Rydberg      Total
 -----------------------------------------------------------------------
      C    1   -0.10480      0.99959     2.09625    0.00896     3.10480
      O    2   -0.27595      0.99986     3.26596    0.01013     4.27595
      C    3    0.40476      0.99970     1.56989    0.02565     2.59524
      O    4   -0.29772      0.99987     3.29217    0.00568     4.29772
      C    5   -0.13266      0.99956     2.11926    0.01383     3.13266
      N    6   -0.24460      0.99958     2.73252    0.01249     3.74460
      C    7    0.08745      0.99936     1.90095    0.01223     2.91255
      C    8   -0.11093      0.99935     2.10110    0.01048     3.11093
      C    9   -0.19903      0.99958     2.18982    0.00963     3.19903
      C   10   -0.18572      0.99963     2.17720    0.00888     3.18572
      C   11   -0.18421      0.99963     2.17603    0.00854     3.18421
      C   12   -0.20573      0.99959     2.19702    0.00912     3.20573
      S   13    0.15909      4.99944     2.82249    0.01899     7.84091
      C   14    0.15930      0.99962     1.81961    0.02147     2.84070
      N   15   -0.37648      0.99967     2.86508    0.01172     3.87648
      H   16    0.09464      0.00000     0.40370    0.00165     0.40536
      H   17    0.09418      0.00000     0.40445    0.00138     0.40582
      H   18    0.09333      0.00000     0.40557    0.00111     0.40667
      H   19    0.11062      0.00000     0.38752    0.00186     0.38938
      H   20    0.12400      0.00000     0.37310    0.00290     0.37600
      H   21    0.10081      0.00000     0.39781    0.00138     0.39919
      H   22    0.10242      0.00000     0.39648    0.00111     0.39758
      H   23    0.10038      0.00000     0.39846    0.00116     0.39962
      H   24    0.09620      0.00000     0.40245    0.00135     0.40380
      H   25    0.10290      0.00000     0.39564    0.00146     0.39710
      H   26    0.09572      0.00000     0.40255    0.00173     0.40428
      H   27    0.11279      0.00000     0.38557    0.00165     0.38721
      H   28    0.10885      0.00000     0.38879    0.00236     0.39115
      H   29    0.17040      0.00000     0.32723    0.00238     0.32960
 =======================================================================
   * Total *    0.00000     18.99405    40.79469    0.21127    60.00000

 Normal termination of Gaussian 16 at Thu Dec 10 16:34:30 2020.
