 Gaussian 16, Revision A.03,

 -----------------------------------------------------------
 # opt freq B3LYP/6-31G(d) empiricaldispersion=gd3bj scf=xqc
 -----------------------------------------------------------

 -------------------------------
 CID_151909928_JID_4512_neutraal
 -------------------------------
 Symbolic Z-matrix:
 Charge =  0 Multiplicity = 1

 SCF Done:  E(RB3LYP) =  -629.269148875     A.U. after   16 cycles
 SCF Done:  E(RB3LYP) =  -629.278437960     A.U. after   15 cycles
 SCF Done:  E(RB3LYP) =  -629.282937215     A.U. after   14 cycles
 SCF Done:  E(RB3LYP) =  -629.284831258     A.U. after   14 cycles
 SCF Done:  E(RB3LYP) =  -629.285672892     A.U. after   14 cycles
 SCF Done:  E(RB3LYP) =  -629.286045136     A.U. after   13 cycles
 SCF Done:  E(RB3LYP) =  -629.286276465     A.U. after   11 cycles
 SCF Done:  E(RB3LYP) =  -629.286339358     A.U. after   12 cycles
 SCF Done:  E(RB3LYP) =  -629.286385565     A.U. after   11 cycles
 SCF Done:  E(RB3LYP) =  -629.286392138     A.U. after   10 cycles
 SCF Done:  E(RB3LYP) =  -629.286394497     A.U. after    8 cycles
 SCF Done:  E(RB3LYP) =  -629.286395165     A.U. after    9 cycles
 SCF Done:  E(RB3LYP) =  -629.286395743     A.U. after    8 cycles
 SCF Done:  E(RB3LYP) =  -629.286395884     A.U. after    8 cycles
 Optimization completed.
    -- Stationary point found.

 1\1\GINC-NODE354\FOpt\RB3LYP\6-31G(d)\C9H21N5\VSC10255\10-Dec-2020\0\\
 # opt freq B3LYP/6-31G(d) empiricaldispersion=gd3bj scf=xqc\\CID_15190
 9928_JID_4512_neutraal\\0,1\C,0.7927302561,-0.2477005591,-0.0747509996
 \C,0.3937431151,1.0530283313,-0.778692755\C,1.2217895678,1.3699955871,
 -2.0320645988\C,1.1914283755,0.2931362963,-3.128253671\C,-0.1772335734
 ,-0.127517084,-3.6714186174\N,-0.8271648477,0.9030361577,-4.5037610177
 \N,-1.8966528537,0.4138994486,-5.2914504455\C,-1.5480605733,0.28254931
 48,-6.7061728248\C,-0.509898832,-0.7871807516,-7.081471239\C,-0.930901

 Normal termination of Gaussian 16 at Thu Dec 10 10:00:03 2020.

 --------------------------------------------------------------------
 #N Geom=AllCheck Guess=TCheck SCRF=Check GenChk RB3LYP/6-31G(d) Freq
 --------------------------------------------------------------------

 Structure from the checkpoint file:  "JID_4512.chk"
 -------------------------------
 CID_151909928_JID_4512_neutraal
 -------------------------------
 Charge =  0 Multiplicity = 1

 SCF Done:  E(RB3LYP) =  -629.286395884     A.U. after    1 cycles

  Exact polarizability: 145.827  -0.682 150.830   0.136   3.174 104.197
 Approx polarizability: 174.267   7.059 243.489   1.456  10.562 156.521

                      1                      2                      3
                      A                      A                      A
 Frequencies --     25.3292                35.3360                46.3433
 Red. masses --      3.4225                 4.3947                 4.4456
 Frc consts  --      0.0013                 0.0032                 0.0056
 IR Inten    --      0.0520                 0.0658                 0.4100

                      4                      5                      6
                      A                      A                      A
 Frequencies --     53.4962                58.8538                66.1451
 Red. masses --      3.2916                 3.3537                 2.7377
 Frc consts  --      0.0056                 0.0068                 0.0071
 IR Inten    --      0.1476                 0.1217                 0.0439

                      7                      8                      9
                      A                      A                      A
 Frequencies --     92.6019               138.5523               154.7088
 Red. masses --      2.9183                 2.8821                 1.8879
 Frc consts  --      0.0147                 0.0326                 0.0266
 IR Inten    --      0.3819                 0.4411                 0.1650

                     10                     11                     12
                      A                      A                      A
 Frequencies --    184.2309               221.8242               227.3878
 Red. masses --      2.6381                 2.8935                 2.1528
 Frc consts  --      0.0528                 0.0839                 0.0656
 IR Inten    --      0.4489                 1.0685                 0.3449

                     13                     14                     15
                      A                      A                      A
 Frequencies --    250.3952               276.9567               295.1404
 Red. masses --      1.5350                 2.0302                 1.8730
 Frc consts  --      0.0567                 0.0918                 0.0961
 IR Inten    --      1.0531                 1.1079                 0.1210

                     16                     17                     18
                      A                      A                      A
 Frequencies --    343.5737               366.1294               391.2030
 Red. masses --      2.0914                 2.0563                 2.0415
 Frc consts  --      0.1455                 0.1624                 0.1841
 IR Inten    --      3.2977                 3.0232                 0.9546

                     19                     20                     21
                      A                      A                      A
 Frequencies --    423.8425               456.7410               468.1645
 Red. masses --      2.9479                 1.9901                 2.6012
 Frc consts  --      0.3120                 0.2446                 0.3359
 IR Inten    --      0.7233                 2.0128                 0.8099

                     22                     23                     24
                      A                      A                      A
 Frequencies --    521.6684               541.7726               545.5684
 Red. masses --      3.2297                 7.8200                 3.1338
 Frc consts  --      0.5178                 1.3524                 0.5496
 IR Inten    --      3.1153                15.0228                 1.9751

                     25                     26                     27
                      A                      A                      A
 Frequencies --    656.2419               681.5267               737.7515
 Red. masses --      2.9184                 1.9778                 1.2608
 Frc consts  --      0.7405                 0.5412                 0.4043
 IR Inten    --     15.8591                39.5245                18.1637

                     28                     29                     30
                      A                      A                      A
 Frequencies --    747.3422               787.8320               801.6836
 Red. masses --      1.4117                 2.2797                 2.6243
 Frc consts  --      0.4646                 0.8337                 0.9937
 IR Inten    --     22.3520                 2.0732                 0.6388

                     31                     32                     33
                      A                      A                      A
 Frequencies --    826.0018               855.4161               867.2430
 Red. masses --      3.3969                 1.5807                 1.5299
 Frc consts  --      1.3655                 0.6815                 0.6779
 IR Inten    --     12.5940                 4.4755                 1.7226

                     34                     35                     36
                      A                      A                      A
 Frequencies --    915.9587               933.8589               958.1860
 Red. masses --      2.1135                 1.8241                 2.0155
 Frc consts  --      1.0448                 0.9373                 1.0902
 IR Inten    --      0.8817                15.6699                 0.3851

                     37                     38                     39
                      A                      A                      A
 Frequencies --    975.5514              1019.5180              1036.8120
 Red. masses --      1.4861                 1.6083                 1.6894
 Frc consts  --      0.8333                 0.9849                 1.0700
 IR Inten    --      2.9332                 2.7867                12.4846

                     40                     41                     42
                      A                      A                      A
 Frequencies --   1038.3130              1058.3331              1084.1179
 Red. masses --      1.6857                 1.8094                 2.5504
 Frc consts  --      1.0707                 1.1941                 1.7661
 IR Inten    --     13.8854                10.0934                 3.7073

                     43                     44                     45
                      A                      A                      A
 Frequencies --   1113.6564              1139.3501              1148.7511
 Red. masses --      2.8063                 2.5880                 2.0766
 Frc consts  --      2.0506                 1.9794                 1.6145
 IR Inten    --     32.0029                 9.7800                10.1963

                     46                     47                     48
                      A                      A                      A
 Frequencies --   1151.6656              1163.0852              1174.2220
 Red. masses --      2.2349                 2.0637                 2.3458
 Frc consts  --      1.7465                 1.6448                 1.9057
 IR Inten    --      0.4569                16.9068                 2.7083

                     49                     50                     51
                      A                      A                      A
 Frequencies --   1246.6651              1266.2328              1267.7399
 Red. masses --      1.4167                 1.7384                 1.3356
 Frc consts  --      1.2972                 1.6422                 1.2647
 IR Inten    --     21.2060                27.5170                 4.2620

                     52                     53                     54
                      A                      A                      A
 Frequencies --   1289.1245              1298.1462              1321.5502
 Red. masses --      2.2511                 1.2965                 1.2229
 Frc consts  --      2.2041                 1.2873                 1.2584
 IR Inten    --     37.0780                 6.3078                 3.5838

                     55                     56                     57
                      A                      A                      A
 Frequencies --   1346.5060              1358.3906              1384.3968
 Red. masses --      1.1202                 1.1096                 1.3460
 Frc consts  --      1.1966                 1.2063                 1.5199
 IR Inten    --      1.7944                 5.3701                14.7648

                     58                     59                     60
                      A                      A                      A
 Frequencies --   1389.1194              1400.4021              1406.3299
 Red. masses --      1.3629                 1.4334                 1.4540
 Frc consts  --      1.5495                 1.6562                 1.6943
 IR Inten    --      3.6429                 9.6129                 1.2054

                     61                     62                     63
                      A                      A                      A
 Frequencies --   1418.0805              1423.9757              1428.4545
 Red. masses --      1.3077                 1.3716                 1.3828
 Frc consts  --      1.5494                 1.6387                 1.6624
 IR Inten    --      9.2826                 2.7452                14.0524

                     64                     65                     66
                      A                      A                      A
 Frequencies --   1443.4140              1444.3538              1496.4830
 Red. masses --      1.2756                 1.2527                 1.0821
 Frc consts  --      1.5659                 1.5397                 1.4278
 IR Inten    --      3.4917                 4.3059                 3.6927

                     67                     68                     69
                      A                      A                      A
 Frequencies --   1503.2968              1509.0856              1517.0872
 Red. masses --      1.0758                 1.0875                 1.1077
 Frc consts  --      1.4325                 1.4592                 1.5021
 IR Inten    --      2.6974                 2.0123                 0.7929

                     70                     71                     72
                      A                      A                      A
 Frequencies --   1519.1785              1521.8418              1528.0920
 Red. masses --      1.0939                 1.0651                 1.0895
 Frc consts  --      1.4874                 1.4534                 1.4989
 IR Inten    --     11.0801                 0.6124                 0.6896

                     73                     74                     75
                      A                      A                      A
 Frequencies --   1531.5582              1534.4276              1535.8494
 Red. masses --      1.1106                 1.0536                 1.0675
 Frc consts  --      1.5349                 1.4615                 1.4836
 IR Inten    --     10.3490                10.3560                 2.5261

                     76                     77                     78
                      A                      A                      A
 Frequencies --   1540.0337              1543.2308              2231.6660
 Red. masses --      1.0683                 1.0826                13.9542
 Frc consts  --      1.4928                 1.5191                40.9463
 IR Inten    --      5.2320                 2.5450               520.7853

                     79                     80                     81
                      A                      A                      A
 Frequencies --   3007.6199              3029.1515              3029.7514
 Red. masses --      1.0717                 1.0700                 1.0670
 Frc consts  --      5.7118                 5.7844                 5.7709
 IR Inten    --     36.6132                19.0408                24.7495

                     82                     83                     84
                      A                      A                      A
 Frequencies --   3034.0331              3039.6611              3044.0028
 Red. masses --      1.0616                 1.0463                 1.0573
 Frc consts  --      5.7576                 5.6958                 5.7720
 IR Inten    --     28.6008                13.0212                49.8175

                     85                     86                     87
                      A                      A                      A
 Frequencies --   3047.1844              3047.5535              3061.1068
 Red. masses --      1.0373                 1.0607                 1.0725
 Frc consts  --      5.6750                 5.8045                 5.9210
 IR Inten    --     20.7683                24.2339                12.0606

                     88                     89                     90
                      A                      A                      A
 Frequencies --   3067.4355              3077.8499              3079.2256
 Red. masses --      1.0932                 1.1007                 1.0925
 Frc consts  --      6.0605                 6.1436                 6.1029
 IR Inten    --     28.7710                28.2728                88.4999

                     91                     92                     93
                      A                      A                      A
 Frequencies --   3080.6375              3106.4078              3108.5971
 Red. masses --      1.0967                 1.0954                 1.1003
 Frc consts  --      6.1321                 6.2276                 6.2643
 IR Inten    --      5.1576                44.1805                75.0277

                     94                     95                     96
                      A                      A                      A
 Frequencies --   3111.5845              3111.9650              3114.4166
 Red. masses --      1.1017                 1.1009                 1.1021
 Frc consts  --      6.2844                 6.2814                 6.2985
 IR Inten    --     44.5414                41.6620                51.6927

                     97                     98                     99
                      A                      A                      A
 Frequencies --   3118.5184              3135.6686              3437.3939
 Red. masses --      1.1023                 1.0898                 1.0744
 Frc consts  --      6.3161                 6.3132                 7.4793
 IR Inten    --     27.9340                15.2735                 7.5224

 - Thermochemistry -
 -------------------
 Temperature   298.150 Kelvin.  Pressure   1.00000 Atm.
 Atom     1 has atomic number  6 and mass  12.00000

 Molecular mass:   199.17970 amu.
 Principal axes and moments of inertia in atomic units:
                           1         2         3
     Eigenvalues --  2240.664184925.402736519.73319
           X            0.99992   0.01275  -0.00062
           Y           -0.01274   0.99985   0.01177
           Z            0.00077  -0.01176   0.99993
 This molecule is an asymmetric top.
 Rotational symmetry number  1.
 Warning -- assumption of classical behavior for rotation
           may cause significant error
 Rotational temperatures (Kelvin)      0.03866     0.01759     0.01328
 Rotational constants (GHZ):           0.80545     0.36641     0.27681
 Zero-point vibrational energy     822988.1 (Joules/Mol)
                                  196.69887 (Kcal/Mol)
 Warning -- explicit consideration of  24 degrees of freedom as
           vibrations may cause significant error
 Vibrational temperatures:     36.44    50.84    66.68    76.97    84.68
          (Kelvin)             95.17   133.23   199.35   222.59   265.07
                              319.16   327.16   360.26   398.48   424.64
                              494.33   526.78   562.85   609.81   657.15
                              673.58   750.56   779.49   784.95   944.19
                              980.56  1061.46  1075.26  1133.51  1153.44
                             1188.43  1230.75  1247.77  1317.86  1343.61
                             1378.62  1403.60  1466.86  1491.74  1493.90
                             1522.71  1559.80  1602.30  1639.27  1652.80
                             1656.99  1673.42  1689.44  1793.67  1821.83
                             1823.99  1854.76  1867.74  1901.42  1937.32
                             1954.42  1991.84  1998.63  2014.87  2023.40
                             2040.30  2048.78  2055.23  2076.75  2078.10
                             2153.11  2162.91  2171.24  2182.75  2185.76
                             2189.59  2198.58  2203.57  2207.70  2209.74
                             2215.77  2220.36  3210.87  4327.29  4358.27
                             4359.14  4365.30  4373.39  4379.64  4384.22
                             4384.75  4404.25  4413.36  4428.34  4430.32
                             4432.35  4469.43  4472.58  4476.88  4477.42
                             4480.95  4486.85  4511.53  4945.64

 Zero-point correction=                           0.313460 (Hartree/Particle)
 Thermal correction to Energy=                    0.330264
 Thermal correction to Enthalpy=                  0.331208
 Thermal correction to Gibbs Free Energy=         0.266777
 Sum of electronic and zero-point Energies=           -628.972936
 Sum of electronic and thermal Energies=              -628.956132
 Sum of electronic and thermal Enthalpies=            -628.955187
 Sum of electronic and thermal Free Energies=         -629.019619

                     E (Thermal)             CV                S
                      KCal/Mol        Cal/Mol-Kelvin    Cal/Mol-Kelvin
 Total                  207.244             60.550            135.607
 Electronic               0.000              0.000              0.000
 Translational            0.889              2.981             41.772
 Rotational               0.889              2.981             32.642
 Vibrational            205.467             54.588             61.193
 Vibration     1          0.593              1.985              6.165
 Vibration     2          0.594              1.982              5.505
 Vibration     3          0.595              1.979              4.968
 Vibration     4          0.596              1.976              4.684
 Vibration     5          0.596              1.974              4.495
 Vibration     6          0.598              1.970              4.265
 Vibration     7          0.602              1.954              3.604
 Vibration     8          0.614              1.915              2.824
 Vibration     9          0.620              1.897              2.613
 Vibration    10          0.631              1.861              2.285
 Vibration    11          0.648              1.808              1.944
 Vibration    12          0.651              1.799              1.899
 Vibration    13          0.663              1.762              1.728
 Vibration    14          0.678              1.716              1.552
 Vibration    15          0.689              1.683              1.444
 Vibration    16          0.722              1.588              1.196
 Vibration    17          0.739              1.542              1.096
 Vibration    18          0.759              1.489              0.996
 Vibration    19          0.786              1.418              0.879
 Vibration    20          0.815              1.346              0.776
 Vibration    21          0.825              1.321              0.743
 Vibration    22          0.877              1.202              0.606
 Vibration    23          0.897              1.158              0.561
 Vibration    24          0.901              1.149              0.553

                           ! Non-Optimized Parameters !

 1\1\GINC-NODE354\Freq\RB3LYP\6-31G(d)\C9H21N5\VSC10255\10-Dec-2020\0\\
 #N Geom=AllCheck Guess=TCheck SCRF=Check GenChk RB3LYP/6-31G(d) Freq\\
 CID_151909928_JID_4512_neutraal\\0,1\C,0.7927302561,-0.2477005591,-0.0
 747509996\C,0.3937431151,1.0530283313,-0.778692755\C,1.2217895678,1.36
 99955871,-2.0320645988\C,1.1914283755,0.2931362963,-3.128253671\C,-0.1
 772335734,-0.127517084,-3.6714186174\N,-0.8271648477,0.9030361577,-4.5
 037610177\N,-1.8966528537,0.4138994486,-5.2914504455\C,-1.5480605733,0
 .2825493148,-6.7061728248\C,-0.509898832,-0.7871807516,-7.081471239\C,

 Normal termination of Gaussian 16 at Thu Dec 10 10:09:09 2020.

 ----------------------------------------------------------------------
 # B3LYP/6-311++G(d,p) empiricaldispersion=gd3bj scf=xqc pop=npa geom=c
 heck
 ----------------------------------------------------------------------

 ---------------------------------------
 CID_151909928_JID_4512_Energie_neutraal
 ---------------------------------------
 Structure from the checkpoint file:  "JID_4512.chk"
 Charge =  0 Multiplicity = 1

 SCF Done:  E(RB3LYP) =  -629.466171228     A.U. after   16 cycles
 Normal termination of Gaussian 16 at Thu Dec 10 10:14:09 2020.

 ----------------------------------------------------------------------
 # B3LYP/6-311++G(d,p) empiricaldispersion=gd3bj scf=xqc pop=npa geom=c
 heck
 ----------------------------------------------------------------------

 -------------------------------------
 CID_151909928_JID_4512_Energie_kation
 -------------------------------------
 Structure from the checkpoint file:  "JID_4512.chk"
 Charge =  1 Multiplicity = 2

 SCF Done:  E(UB3LYP) =  -629.158627281     A.U. after   33 cycles
 SCF Done:  E(UB3LYP) =  -629.158627281     a.u. after    1 cycles
 Normal termination of Gaussian 16 at Thu Dec 10 10:26:13 2020.
 Gaussian 16:  ES64L-G16RevA.03 25-Dec-2016

 ------------------------------------
 CID_151909928_JID_4512_Energie_anion
 ------------------------------------
 Structure from the checkpoint file:  "JID_4512.chk"
 Charge = -1 Multiplicity = 2

                         Standard orientation:
 ---------------------------------------------------------------------
 Center     Atomic      Atomic             Coordinates (Angstroms)
 Number     Number       Type             X           Y           Z
 ---------------------------------------------------------------------
      1          6           0       -3.901209   -2.074001   -0.807489
      2          6           0       -3.646079   -0.616783   -0.409941
      3          6           0       -2.923831   -0.448287    0.934320
      4          6           0       -1.554384   -1.138757    1.034541
      5          6           0       -0.498792   -0.775889   -0.013918
      6          7           0        0.046967    0.586258    0.140832
      7          7           0        1.249378    0.807095   -0.572577
      8          6           0        2.428158    0.835192    0.293389
      9          6           0        2.833404   -0.480259    0.977724
     10          6           0        3.236053   -1.611330    0.019535
     11          6           0        4.504019   -1.319640   -0.789821
     12          7           0       -0.985585    1.482393   -0.418618
     13          7           0       -0.702056    2.666892   -0.185867
     14          7           0       -0.520534    3.787316   -0.061092
     15          1           0       -2.966591   -2.619466   -0.982781
     16          1           0       -4.491781   -2.134603   -1.728453
     17          1           0       -4.451346   -2.608395   -0.022611
     18          1           0       -3.073236   -0.110588   -1.195846
     19          1           0       -4.606381   -0.087948   -0.350657
     20          1           0       -2.808159    0.619939    1.141078
     21          1           0       -3.558115   -0.856556    1.734029
     22          1           0       -1.122420   -0.938851    2.023043
     23          1           0       -1.694401   -2.226024    0.974017
     24          1           0        0.355284   -1.441942    0.122802
     25          1           0       -0.875097   -0.923043   -1.038779
     26          1           0        1.342879    0.163141   -1.360092
     27          1           0        3.251537    1.209603   -0.326547
     28          1           0        2.232396    1.595192    1.055815
     29          1           0        3.676554   -0.266041    1.649606
     30          1           0        2.007792   -0.810746    1.620453
     31          1           0        3.384163   -2.529046    0.602622
     32          1           0        2.408995   -1.829032   -0.671133
     33          1           0        5.350048   -1.101347   -0.126969
     34          1           0        4.780084   -2.177040   -1.413200
     35          1           0        4.376556   -0.458359   -1.455184
 ---------------------------------------------------------------------

 SCF Done:  E(UB3LYP) =  -629.459665069     A.U. after   33 cycles
 SCF Done:  E(UB3LYP) =  -629.459665069     a.u. after    1 cycles

 The electronic state is 2-A.
 Alpha  occ. eigenvalues --  -14.31828 -14.25552 -14.23538 -14.23221 -14.22029
 Alpha  occ. eigenvalues --  -10.09196 -10.09182 -10.07055 -10.06737 -10.06644
 Alpha  occ. eigenvalues --  -10.06412 -10.06267 -10.06252 -10.06087  -0.99903
 Alpha  occ. eigenvalues --   -0.90001  -0.81474  -0.72708  -0.69927  -0.67975
 Alpha  occ. eigenvalues --   -0.63648  -0.60501  -0.57355  -0.53898  -0.51953
 Alpha  occ. eigenvalues --   -0.47588  -0.45892  -0.45096  -0.40094  -0.37805
 Alpha  occ. eigenvalues --   -0.37537  -0.36475  -0.36123  -0.35509  -0.34396
 Alpha  occ. eigenvalues --   -0.34223  -0.32206  -0.31587  -0.30747  -0.29977
 Alpha  occ. eigenvalues --   -0.29090  -0.28741  -0.27819  -0.27449  -0.26147
 Alpha  occ. eigenvalues --   -0.24095  -0.23898  -0.23277  -0.22747  -0.22547
 Alpha  occ. eigenvalues --   -0.21948  -0.21288  -0.16796  -0.13031  -0.10175
 Alpha  occ. eigenvalues --    0.04386
 Alpha virt. eigenvalues --    0.05914   0.06310   0.07614   0.07883   0.08596
 Alpha virt. eigenvalues --    0.09000   0.09342   0.10436   0.10869   0.11178
 Alpha virt. eigenvalues --    0.11195   0.11746   0.12311   0.12534   0.13359

  Beta  occ. eigenvalues --  -14.31511 -14.25404 -14.23595 -14.22761 -14.22021
  Beta  occ. eigenvalues --  -10.09192 -10.09161 -10.07037 -10.06732 -10.06635
  Beta  occ. eigenvalues --  -10.06393 -10.06241 -10.06231 -10.06082  -0.99293
  Beta  occ. eigenvalues --   -0.89762  -0.81228  -0.72605  -0.69892  -0.67916
  Beta  occ. eigenvalues --   -0.63579  -0.60450  -0.57240  -0.53819  -0.51845
  Beta  occ. eigenvalues --   -0.47490  -0.45832  -0.44953  -0.39926  -0.37639
  Beta  occ. eigenvalues --   -0.36851  -0.36410  -0.35882  -0.35264  -0.34254
  Beta  occ. eigenvalues --   -0.33885  -0.31876  -0.31438  -0.30229  -0.29879
  Beta  occ. eigenvalues --   -0.29035  -0.28694  -0.27786  -0.27287  -0.26088
  Beta  occ. eigenvalues --   -0.24057  -0.23851  -0.23188  -0.22715  -0.22454
  Beta  occ. eigenvalues --   -0.21896  -0.20682  -0.16624  -0.12952  -0.10020
  Beta virt. eigenvalues --    0.06364   0.06818   0.07830   0.08120   0.08769
  Beta virt. eigenvalues --    0.09119   0.09510   0.09907   0.10632   0.11034
  Beta virt. eigenvalues --    0.11255   0.11382   0.11898   0.12378   0.12577

 Mulliken charges and spin densities:
               1          2
     1  C    0.239989  -0.887600
     2  C   -0.560404   0.343672
     3  C    0.073735  -0.061739
     4  C    0.163548  -0.539750
     5  C   -0.505308  -0.090562
     6  N   -0.097643   0.190955
     7  N   -0.127843  -0.094652
     8  C    0.015686  -0.497434
     9  C   -0.207472   0.150461
    10  C   -0.540585   0.431669
    11  C    1.166124  -1.797618
    12  N   -0.724903   0.329416
    13  N    0.489109  -0.172719
    14  N    0.069891   0.106103
    15  H   -0.058616   0.202682
    16  H   -0.059844   0.185616
    17  H   -0.032520   0.158596
    18  H    0.086018   0.081999
    19  H    0.004998   0.142442
    20  H    0.116588   0.006185
    21  H   -0.004685   0.145184
    22  H    0.113800   0.053934
    23  H    0.015481   0.116654
    24  H   -0.088867   0.265867
    25  H    0.050340   0.134826
    26  H    0.058571   0.154856
    27  H    0.061891   0.098377
    28  H    0.216924  -0.049939
    29  H   -0.065046   0.215624
    30  H    0.122648   0.014126
    31  H   -0.417025   0.575777
    32  H    0.115730  -0.012628
    33  H   -0.076797   0.208209
    34  H   -0.491152   0.636674
    35  H   -0.122358   0.254737
 Sum of Mulliken charges =  -1.00000   1.00000

 Dipole moment (field-independent basis, Debye):
    X=             -2.5488    Y=             -0.1451    Z=              2.0227  Tot=              3.2571
 Quadrupole moment (field-independent basis, Debye-Ang):
   XX=           -162.8827   YY=           -147.5291   ZZ=           -112.5742
   XY=             13.0088   XZ=              3.0713   YZ=             -1.4897

 Summary of Natural Population Analysis:

                                       Natural Population
                Natural  -----------------------------------------------
    Atom  No    Charge         Core      Valence    Rydberg      Total
 -----------------------------------------------------------------------
      C    1   -0.28676      0.99967     2.28299    0.00410     3.28676
      C    2   -0.19502      0.99964     2.18810    0.00728     3.19502
      C    3   -0.18872      0.99962     2.18175    0.00735     3.18872
      C    4   -0.19609      0.99962     2.18653    0.00994     3.19609
      C    5   -0.09326      0.99959     2.08031    0.01335     3.09326
      N    6   -0.09912      0.99971     2.58457    0.01484     3.59912
      N    7   -0.24823      0.99974     2.73505    0.01344     3.74823
      C    8   -0.08976      0.99962     2.07750    0.01265     3.08976
      C    9   -0.20173      0.99962     2.19362    0.00849     3.20173
      C   10   -0.19602      0.99964     2.18725    0.00913     3.19602
      C   11   -0.28706      0.99967     2.28185    0.00554     3.28706
      N   12   -0.15187      0.99972     2.63684    0.01531     3.65187
      N   13    0.13815      0.99972     2.34561    0.01652     3.36185
      N   14    0.00952      0.99982     2.47809    0.01257     3.49048
      H   15    0.09586      0.00000     0.40300    0.00114     0.40414
      H   16    0.09646      0.00000     0.40253    0.00101     0.40354
      H   17    0.09236      0.00000     0.40643    0.00121     0.40764
      H   18    0.10425      0.00000     0.39403    0.00172     0.39575
      H   19    0.09184      0.00000     0.40702    0.00114     0.40816
      H   20    0.10583      0.00000     0.39274    0.00143     0.39417
      H   21    0.08947      0.00000     0.40941    0.00113     0.41053
      H   22    0.10018      0.00000     0.39857    0.00126     0.39982
      H   23    0.09553      0.00000     0.40344    0.00103     0.40447
      H   24    0.09706      0.00000     0.40089    0.00205     0.40294
      H   25    0.08785      0.00000     0.41018    0.00198     0.41215
      H   26    0.16426      0.00000     0.33254    0.00320     0.33574
      H   27    0.09190      0.00000     0.40713    0.00096     0.40810
      H   28    0.09872      0.00000     0.40006    0.00122     0.40128
      H   29    0.09510      0.00000     0.40379    0.00111     0.40490
      H   30    0.09901      0.00000     0.39969    0.00131     0.40099
      H   31    0.09732      0.00000     0.40142    0.00127     0.40268
      H   32    0.09148      0.00000     0.40674    0.00178     0.40852
      H   33    0.09522      0.00000     0.40368    0.00111     0.40478
      H   34    0.10146      0.00000     0.39712    0.00141     0.39854
      H   35    0.09481      0.00000     0.40408    0.00111     0.40519
 =======================================================================
   * Total *   -0.00000     13.99540    40.82453    0.18007    55.00000

 Normal termination of Gaussian 16 at Thu Dec 10 10:40:35 2020.
