 Gaussian 16, Revision A.03,

 -----------------------------------------------------------
 # opt freq B3LYP/6-31G(d) empiricaldispersion=gd3bj scf=xqc
 -----------------------------------------------------------

 ------------------------------
 CID_96636333_JID_1662_neutraal
 ------------------------------
 Symbolic Z-matrix:
 Charge =  0 Multiplicity = 1

 SCF Done:  E(RB3LYP) =  -529.052509835     A.U. after   15 cycles
 SCF Done:  E(RB3LYP) =  -529.057202142     A.U. after   13 cycles
 SCF Done:  E(RB3LYP) =  -529.057778437     A.U. after   12 cycles
 SCF Done:  E(RB3LYP) =  -529.057884560     A.U. after   11 cycles
 SCF Done:  E(RB3LYP) =  -529.057932984     A.U. after   11 cycles
 SCF Done:  E(RB3LYP) =  -529.057958585     A.U. after   11 cycles
 SCF Done:  E(RB3LYP) =  -529.057995329     A.U. after   11 cycles
 SCF Done:  E(RB3LYP) =  -529.058026912     A.U. after   10 cycles
 SCF Done:  E(RB3LYP) =  -529.058042533     A.U. after   10 cycles
 SCF Done:  E(RB3LYP) =  -529.058050409     A.U. after    9 cycles
 SCF Done:  E(RB3LYP) =  -529.058051427     A.U. after    9 cycles
 SCF Done:  E(RB3LYP) =  -529.058052106     A.U. after    8 cycles
 SCF Done:  E(RB3LYP) =  -529.058052584     A.U. after    8 cycles
 Optimization completed.
    -- Stationary point found.
 Normal termination of Gaussian 16 at Tue Dec  8 20:38:44 2020.

 --------------------------------------------------------------------
 #N Geom=AllCheck Guess=TCheck SCRF=Check GenChk RB3LYP/6-31G(d) Freq
 --------------------------------------------------------------------

 Structure from the checkpoint file:  "JID_1662.chk"
 ------------------------------
 CID_96636333_JID_1662_neutraal
 ------------------------------
 Charge =  0 Multiplicity = 1

 SCF Done:  E(RB3LYP) =  -529.058052584     A.U. after    1 cycles

  Exact polarizability: 119.667  -0.458  91.417   0.006   0.001  39.041
 Approx polarizability: 179.371   9.920 172.774   0.011   0.004  59.448

                      1                      2                      3
                      A                      A                      A
 Frequencies --    119.4895               122.4277               125.4394
 Red. masses --      1.1357                 8.5249                 5.9370
 Frc consts  --      0.0096                 0.0753                 0.0550
 IR Inten    --      0.4942                 5.8502                 1.8202

                      4                      5                      6
                      A                      A                      A
 Frequencies --    143.0627               246.3388               272.8172
 Red. masses --      4.4179                 4.8888                 3.2316
 Frc consts  --      0.0533                 0.1748                 0.1417
 IR Inten    --      5.4096                 0.0064                 2.9234

                      7                      8                      9
                      A                      A                      A
 Frequencies --    359.0255               437.9567               528.8118
 Red. masses --     13.1186                 8.9170                 9.6310
 Frc consts  --      0.9963                 1.0077                 1.5868
 IR Inten    --      1.3876                 2.3802                 5.1836

                     10                     11                     12
                      A                      A                      A
 Frequencies --    529.2425               563.3435               629.5132
 Red. masses --     10.0285                 6.0188                 3.0084
 Frc consts  --      1.6550                 1.1254                 0.7024
 IR Inten    --      1.9765                 1.0846                16.1667

                     13                     14                     15
                      A                      A                      A
 Frequencies --    631.6150               650.9176               733.4148
 Red. masses --      6.0977                 6.6658                10.9425
 Frc consts  --      1.4332                 1.6640                 3.4679
 IR Inten    --      0.2451                 0.5795                 0.1405

                     16                     17                     18
                      A                      A                      A
 Frequencies --    780.3842               794.5114               907.4681
 Red. masses --      1.5419                11.1757                 7.7956
 Frc consts  --      0.5533                 4.1565                 3.7824
 IR Inten    --      8.8624                 0.0042                 0.0023

                     19                     20                     21
                      A                      A                      A
 Frequencies --    943.1012              1018.1904              1060.1857
 Red. masses --      9.1180                 1.9912                 8.3467
 Frc consts  --      4.7782                 1.2162                 5.5275
 IR Inten    --     23.1814                15.6674                42.1845

                     22                     23                     24
                      A                      A                      A
 Frequencies --   1073.5333              1137.3402              1200.7972
 Red. masses --      1.4565                 4.3882                 4.2264
 Frc consts  --      0.9890                 3.3444                 3.5905
 IR Inten    --      3.0941                27.4926                41.2495

                     25                     26                     27
                      A                      A                      A
 Frequencies --   1278.7151              1349.8463              1429.4256
 Red. masses --      1.8605                 4.0277                 4.0061
 Frc consts  --      1.7923                 4.3239                 4.8228
 IR Inten    --     23.7054                 1.0615                39.3070

                     28                     29                     30
                      A                      A                      A
 Frequencies --   1447.4992              1496.2328              1498.5537
 Red. masses --      1.5673                 2.3825                 1.0425
 Frc consts  --      1.9348                 3.1426                 1.3793
 IR Inten    --     17.7086                 1.1095                 8.0560

                     31                     32                     33
                      A                      A                      A
 Frequencies --   1511.6817              1537.5599              1589.6477
 Red. masses --      1.7098                 9.0200                 5.7709
 Frc consts  --      2.3020                12.5638                 8.5920
 IR Inten    --     32.1834                 7.7451                51.3841

                     34                     35                     36
                      A                      A                      A
 Frequencies --   1632.2680              2358.0861              3054.3542
 Red. masses --     10.1078                12.6575                 1.0375
 Frc consts  --     15.8669                41.4685                 5.7027
 IR Inten    --      1.0024                38.3471                13.1124

                     37                     38                     39
                      A                      A                      A
 Frequencies --   3109.1917              3156.6780              3316.9724
 Red. masses --      1.1017                 1.1004                 1.0986
 Frc consts  --      6.2750                 6.4606                 7.1214
 IR Inten    --      6.6290                 2.5768                 4.9730

 - Thermochemistry -
 -------------------
 Temperature   298.150 Kelvin.  Pressure   1.00000 Atm.
 Atom     1 has atomic number  6 and mass  12.00000

 Molecular mass:   148.02728 amu.
 Principal axes and moments of inertia in atomic units:
                           1         2         3
     Eigenvalues --   898.590741800.083722687.38997
           X            0.99729  -0.07351   0.00000
           Y            0.07351   0.99729   0.00000
           Z           -0.00000  -0.00000   1.00000
 This molecule is an asymmetric top.
 Rotational symmetry number  1.
 Warning -- assumption of classical behavior for rotation
           may cause significant error
 Rotational temperatures (Kelvin)      0.09639     0.04812     0.03223
 Rotational constants (GHZ):           2.00841     1.00259     0.67156
 Zero-point vibrational energy     267817.8 (Joules/Mol)
                                   64.00999 (Kcal/Mol)
 Warning -- explicit consideration of  11 degrees of freedom as
           vibrations may cause significant error
 Vibrational temperatures:    171.92   176.15   180.48   205.84   354.43
          (Kelvin)            392.52   516.56   630.12   760.84   761.46
                              810.53   905.73   908.75   936.53  1055.22
                             1122.80  1143.12  1305.64  1356.91  1464.95
                             1525.37  1544.57  1636.38  1727.68  1839.79
                             1942.13  2056.62  2082.63  2152.75  2156.08
                             2174.97  2212.21  2287.15  2348.47  3392.76
                             4394.53  4473.43  4541.76  4772.38

 Zero-point correction=                           0.102006 (Hartree/Particle)
 Thermal correction to Energy=                    0.110706
 Thermal correction to Enthalpy=                  0.111650
 Thermal correction to Gibbs Free Energy=         0.067808
 Sum of electronic and zero-point Energies=           -528.956046
 Sum of electronic and thermal Energies=              -528.947347
 Sum of electronic and thermal Enthalpies=            -528.946403
 Sum of electronic and thermal Free Energies=         -528.990245

                     E (Thermal)             CV                S
                      KCal/Mol        Cal/Mol-Kelvin    Cal/Mol-Kelvin
 Total                   69.469             31.781             92.273
 Electronic               0.000              0.000              0.000
 Translational            0.889              2.981             40.887
 Rotational               0.889              2.981             29.854
 Vibrational             67.691             25.819             21.532
 Vibration     1          0.609              1.933              3.109
 Vibration     2          0.610              1.930              3.062
 Vibration     3          0.610              1.928              3.015
 Vibration     4          0.616              1.910              2.763
 Vibration     5          0.661              1.769              1.757
 Vibration     6          0.676              1.723              1.578
 Vibration     7          0.734              1.557              1.126
 Vibration     8          0.798              1.387              0.833
 Vibration     9          0.884              1.186              0.590
 Vibration    10          0.884              1.185              0.589
 Vibration    11          0.919              1.111              0.517

 Optimization completed.
    -- Stationary point found.
 Normal termination of Gaussian 16 at Tue Dec  8 20:41:05 2020.

 ----------------------------------------------------------------------
 # B3LYP/6-311++G(d,p) empiricaldispersion=gd3bj scf=xqc pop=npa geom=c
 heck
 ----------------------------------------------------------------------

 --------------------------------------
 CID_96636333_JID_1662_Energie_neutraal
 --------------------------------------
 Structure from the checkpoint file:  "JID_1662.chk"
 Charge =  0 Multiplicity = 1

 SCF Done:  E(RB3LYP) =  -529.198861113     A.U. after   15 cycles
 Normal termination of Gaussian 16 at Tue Dec  8 20:45:02 2020.

 ----------------------------------------------------------------------
 # B3LYP/6-311++G(d,p) empiricaldispersion=gd3bj scf=xqc pop=npa geom=c
 heck
 ----------------------------------------------------------------------

 ------------------------------------
 CID_96636333_JID_1662_Energie_kation
 ------------------------------------
 Structure from the checkpoint file:  "JID_1662.chk"
 Charge =  1 Multiplicity = 2

 SCF Done:  E(UB3LYP) =  -528.875633237     A.U. after   22 cycles
 Normal termination of Gaussian 16 at Tue Dec  8 20:48:40 2020.
 Gaussian 16:  ES64L-G16RevA.03 25-Dec-2016

 ----------------------------------------------------------------------
 # B3LYP/6-311++G(d,p) empiricaldispersion=gd3bj scf=xqc pop=npa geom=c
 heck
 ----------------------------------------------------------------------

 -----------------------------------
 CID_96636333_JID_1662_Energie_anion
 -----------------------------------
 Structure from the checkpoint file:  "JID_1662.chk"
 Charge = -1 Multiplicity = 2

                         Standard orientation:
 ---------------------------------------------------------------------
 Center     Atomic      Atomic             Coordinates (Angstroms)
 Number     Number       Type             X           Y           Z
 ---------------------------------------------------------------------
      1          6           0        2.294365   -1.750271   -0.000299
      2          6           0        1.038180   -0.963841   -0.000183
      3          6           0        0.818621    0.409117   -0.000014
      4          6           0       -0.608509    0.529851    0.000816
      5          6           0       -1.123681   -0.724753    0.000704
      6          8           0       -0.143902   -1.668065    0.000205
      7          7           0       -2.488971   -0.729180   -0.000279
      8          6           0       -2.752766    0.548591   -0.000464
      9          8           0       -1.658971    1.396920   -0.000095
     10          6           0        1.832201    1.398694   -0.000118
     11          7           0        2.673108    2.202898    0.000013
     12          1           0        3.151298   -1.072469   -0.000813
     13          1           0        2.355154   -2.394214   -0.885405
     14          1           0        2.355768   -2.393488    0.885302
     15          1           0       -3.718656    1.028976   -0.000760
 ---------------------------------------------------------------------

 SCF Done:  E(UB3LYP) =  -529.200212630     A.U. after   33 cycles
 SCF Done:  E(UB3LYP) =  -529.200212630     a.u. after    1 cycles

 The electronic state is 2-A.
 Alpha  occ. eigenvalues --  -19.05954 -19.03580 -14.18084 -14.15265 -10.10590
 Alpha  occ. eigenvalues --  -10.09370 -10.08422 -10.06416 -10.05949 -10.05158
 Alpha  occ. eigenvalues --  -10.04541  -0.99490  -0.96416  -0.79204  -0.75549
 Alpha  occ. eigenvalues --   -0.67590  -0.63774  -0.56875  -0.50053  -0.49351
 Alpha  occ. eigenvalues --   -0.44419  -0.40081  -0.36350  -0.35557  -0.33010
 Alpha  occ. eigenvalues --   -0.31197  -0.29776  -0.27381  -0.26895  -0.26326
 Alpha  occ. eigenvalues --   -0.23297  -0.22642  -0.22033  -0.18908  -0.18718
 Alpha  occ. eigenvalues --   -0.16632  -0.12993  -0.07993   0.06109
 Alpha virt. eigenvalues --    0.09068   0.09594   0.11850   0.12496   0.13286
 Alpha virt. eigenvalues --    0.13755   0.14984   0.16115   0.16347   0.16933
 Alpha virt. eigenvalues --    0.17420   0.17938   0.18609   0.19751   0.20268

  Beta  occ. eigenvalues --  -19.05829 -19.03309 -14.18040 -14.15106 -10.10261
  Beta  occ. eigenvalues --  -10.09371 -10.08470 -10.05904 -10.05590 -10.05151
  Beta  occ. eigenvalues --  -10.04610  -0.99244  -0.95910  -0.78979  -0.75298
  Beta  occ. eigenvalues --   -0.67220  -0.63187  -0.56584  -0.49700  -0.49096
  Beta  occ. eigenvalues --   -0.43872  -0.39791  -0.36071  -0.34738  -0.32663
  Beta  occ. eigenvalues --   -0.29985  -0.29481  -0.27261  -0.26107  -0.26038
  Beta  occ. eigenvalues --   -0.23099  -0.21843  -0.21755  -0.18582  -0.18038
  Beta  occ. eigenvalues --   -0.16542  -0.12070  -0.05742
  Beta virt. eigenvalues --    0.09134   0.09559   0.11811   0.12947   0.13210
  Beta virt. eigenvalues --    0.13645   0.14575   0.14900   0.16115   0.16746
  Beta virt. eigenvalues --    0.17072   0.17264   0.17837   0.18719   0.19707

 Mulliken charges and spin densities:
               1          2
     1  C   -0.499482  -0.069626
     2  C   -0.271905   0.451065
     3  C    1.542861   0.106530
     4  C    0.279382  -0.066510
     5  C   -0.053749   0.005062
     6  O   -0.161491   0.057614
     7  N   -0.189823  -0.006900
     8  C    0.106549   0.292896
     9  O   -0.188030   0.010157
    10  C   -1.729717  -0.014131
    11  N   -0.317651   0.080231
    12  H    0.170278   0.001139
    13  H    0.075135   0.076212
    14  H    0.057109   0.095368
    15  H    0.180534  -0.019108
 Sum of Mulliken charges =  -1.00000   1.00000

 Dipole moment (field-independent basis, Debye):
    X=             -2.0116    Y=             -1.6876    Z=             -0.0504  Tot=              2.6262
 Quadrupole moment (field-independent basis, Debye-Ang):
   XX=            -94.7927   YY=            -87.9694   ZZ=            -69.0537
   XY=            -14.8155   XZ=             -0.1259   YZ=              0.1557

 Summary of Natural Population Analysis:

                                       Natural Population
                Natural  -----------------------------------------------
    Atom  No    Charge         Core      Valence    Rydberg      Total
 -----------------------------------------------------------------------
      C    1   -0.31774      0.99964     2.31357    0.00454     3.31774
      C    2    0.33699      0.99949     1.65026    0.01326     2.66301
      C    3   -0.17386      0.99933     2.16571    0.00882     3.17386
      C    4    0.09816      0.99919     1.88676    0.01589     2.90184
      C    5    0.18451      0.99925     1.79803    0.01820     2.81549
      O    6   -0.21842      0.99984     3.21180    0.00677     4.21842
      N    7   -0.26056      0.99968     2.75187    0.00901     3.76056
      C    8    0.21726      0.99968     1.76039    0.02267     2.78274
      O    9   -0.22746      0.99987     3.22074    0.00686     4.22746
      C   10    0.16113      0.99965     1.82244    0.01679     2.83887
      N   11   -0.19931      0.99979     2.68830    0.01122     3.69931
      H   12    0.10769      0.00000     0.39177    0.00054     0.39231
      H   13    0.10727      0.00000     0.39172    0.00101     0.39273
      H   14    0.10759      0.00000     0.39136    0.00104     0.39241
      H   15    0.07675      0.00000     0.42237    0.00088     0.42325
 =======================================================================
   * Total *    0.00000     10.99540    26.86709    0.13751    38.00000

 Normal termination of Gaussian 16 at Tue Dec  8 20:56:52 2020.
