 Gaussian 16, Revision A.03,

 -----------------------------------------------------------
 # opt freq B3LYP/6-31G(d) empiricaldispersion=gd3bj scf=xqc
 -----------------------------------------------------------

 ------------------------------
 CID_72011160_JID_8863_neutraal
 ------------------------------
 Symbolic Z-matrix:
 Charge =  0 Multiplicity = 1

 SCF Done:  E(RB3LYP) =  -1538.10890702     A.U. after   15 cycles
 SCF Done:  E(RB3LYP) =  -1538.11614322     A.U. after   13 cycles
 SCF Done:  E(RB3LYP) =  -1538.11744067     A.U. after   13 cycles
 SCF Done:  E(RB3LYP) =  -1538.11773116     A.U. after   13 cycles
 SCF Done:  E(RB3LYP) =  -1538.11803998     A.U. after   12 cycles
 SCF Done:  E(RB3LYP) =  -1538.11822054     A.U. after   11 cycles
 SCF Done:  E(RB3LYP) =  -1538.11830777     A.U. after   11 cycles
 SCF Done:  E(RB3LYP) =  -1538.11837664     A.U. after   10 cycles
 SCF Done:  E(RB3LYP) =  -1538.11841347     A.U. after   10 cycles
 SCF Done:  E(RB3LYP) =  -1538.11842006     A.U. after   10 cycles
 SCF Done:  E(RB3LYP) =  -1538.11842255     A.U. after    8 cycles
 SCF Done:  E(RB3LYP) =  -1538.11842277     A.U. after    8 cycles
 SCF Done:  E(RB3LYP) =  -1538.11842294     A.U. after    8 cycles
 SCF Done:  E(RB3LYP) =  -1538.11842300     A.U. after    7 cycles
 SCF Done:  E(RB3LYP) =  -1538.11842306     A.U. after    7 cycles
 Optimization completed.
    -- Stationary point found.
 Normal termination of Gaussian 16 at Fri Dec 11 22:14:44 2020.

 --------------------------------------------------------------------
 #N Geom=AllCheck Guess=TCheck SCRF=Check GenChk RB3LYP/6-31G(d) Freq
 --------------------------------------------------------------------

 Structure from the checkpoint file:  "JID_8863.chk"
 ------------------------------
 CID_72011160_JID_8863_neutraal
 ------------------------------
 Charge =  0 Multiplicity = 1

 SCF Done:  E(RB3LYP) =  -1538.11842306     A.U. after    1 cycles

  Exact polarizability: 231.284   4.905 143.922 -12.905  17.154 133.037
 Approx polarizability: 314.956  11.623 235.621 -29.723  48.271 239.047

                      1                      2                      3
                      A                      A                      A
 Frequencies --      9.0618                20.9065                31.3256
 Red. masses --      6.0428                 6.0750                 3.3786
 Frc consts  --      0.0003                 0.0016                 0.0020
 IR Inten    --      0.8234                 0.8000                 0.0449

                      4                      5                      6
                      A                      A                      A
 Frequencies --     47.0419                62.9683                76.0251
 Red. masses --      6.2552                 7.4421                 6.7704
 Frc consts  --      0.0082                 0.0174                 0.0231
 IR Inten    --      0.1186                 1.6353                 0.5900

                      7                      8                      9
                      A                      A                      A
 Frequencies --     88.5058               114.3803               132.6278
 Red. masses --     11.0577                 4.5784                 4.4199
 Frc consts  --      0.0510                 0.0353                 0.0458
 IR Inten    --      3.8052                 0.6537                 0.3909

                     10                     11                     12
                      A                      A                      A
 Frequencies --    160.9369               205.7890               226.7857
 Red. masses --      5.9002                 3.7830                 1.0385
 Frc consts  --      0.0900                 0.0944                 0.0315
 IR Inten    --      0.3669                 5.6511                 0.0129

                     13                     14                     15
                      A                      A                      A
 Frequencies --    252.0190               258.1821               291.3252
 Red. masses --      3.7536                 1.3653                 5.3757
 Frc consts  --      0.1405                 0.0536                 0.2688
 IR Inten    --      0.4297                 0.7070                 0.7086

                     16                     17                     18
                      A                      A                      A
 Frequencies --    300.5322               326.9090               365.4989
 Red. masses --      6.0992                 2.8049                 3.2929
 Frc consts  --      0.3246                 0.1766                 0.2592
 IR Inten    --      1.0399                 5.5366                 2.9018

                     19                     20                     21
                      A                      A                      A
 Frequencies --    422.7129               432.9534               434.8887
 Red. masses --      6.9434                 8.5867                 7.0346
 Frc consts  --      0.7310                 0.9483                 0.7839
 IR Inten    --      7.9649                 1.0054                11.9365

                     22                     23                     24
                      A                      A                      A
 Frequencies --    490.2228               496.6490               523.9624
 Red. masses --      3.2767                 4.9820                 4.0641
 Frc consts  --      0.4640                 0.7240                 0.6574
 IR Inten    --      9.5809                 4.3585                18.6350

                     25                     26                     27
                      A                      A                      A
 Frequencies --    551.8691               580.8961               628.7523
 Red. masses --      1.3992                 3.1397                 3.3264
 Frc consts  --      0.2511                 0.6242                 0.7748
 IR Inten    --     54.3391                 1.6329                35.7590

                     28                     29                     30
                      A                      A                      A
 Frequencies --    654.8012               670.7296               699.1910
 Red. masses --     10.3022                 3.0814                10.6376
 Frc consts  --      2.6026                 0.8168                 3.0640
 IR Inten    --      3.2463                 4.2657                 2.2366

                     31                     32                     33
                      A                      A                      A
 Frequencies --    712.9855               743.4515               752.4739
 Red. masses --      1.1781                 7.3833                 8.4340
 Frc consts  --      0.3529                 2.4044                 2.8136
 IR Inten    --     57.4230                 0.3894                 4.4651

                     34                     35                     36
                      A                      A                      A
 Frequencies --    768.1673               815.7286               847.4422
 Red. masses --      5.4229                 7.0332                 1.2801
 Frc consts  --      1.8854                 2.7574                 0.5417
 IR Inten    --      5.1935                14.1101                 5.1329

                     37                     38                     39
                      A                      A                      A
 Frequencies --    863.3753               893.1130               906.4986
 Red. masses --      4.1962                 2.7522                 3.5509
 Frc consts  --      1.8429                 1.2934                 1.7192
 IR Inten    --     13.4347                 3.1989                 2.0963

                     40                     41                     42
                      A                      A                      A
 Frequencies --    918.4956               947.9292               950.6121
 Red. masses --      1.3385                 2.0487                 1.1698
 Frc consts  --      0.6653                 1.0846                 0.6228
 IR Inten    --      0.7333                 2.4868                 1.7228

                     43                     44                     45
                      A                      A                      A
 Frequencies --    974.6786               978.5330               993.6083
 Red. masses --     10.2923                 1.5342                 4.9570
 Frc consts  --      5.7608                 0.8656                 2.8834
 IR Inten    --     24.4847                 0.0484                 7.6071

                     46                     47                     48
                      A                      A                      A
 Frequencies --   1007.1203              1080.2456              1088.3795
 Red. masses --     10.8125                 1.6736                 1.8429
 Frc consts  --      6.4616                 1.1507                 1.2862
 IR Inten    --     14.3029                35.9940                 2.8854

                     49                     50                     51
                      A                      A                      A
 Frequencies --   1100.6942              1123.2138              1131.9873
 Red. masses --      7.2807                 1.1486                 2.2819
 Frc consts  --      5.1970                 0.8537                 1.7228
 IR Inten    --     45.6505                 2.0258                 1.1719

                     52                     53                     54
                      A                      A                      A
 Frequencies --   1167.9095              1199.7290              1242.5443
 Red. masses --      1.4411                 1.9662                 2.4892
 Frc consts  --      1.1581                 1.6675                 2.2643
 IR Inten    --     94.4464                11.1839                41.7386

                     55                     56                     57
                      A                      A                      A
 Frequencies --   1252.9617              1273.3187              1329.4175
 Red. masses --      1.4706                 1.2366                 3.3244
 Frc consts  --      1.3603                 1.1813                 3.4617
 IR Inten    --     14.7161                20.0623               197.1692

                     58                     59                     60
                      A                      A                      A
 Frequencies --   1334.9010              1353.8505              1360.8621
 Red. masses --      2.5258                 1.3290                 1.5385
 Frc consts  --      2.6518                 1.4352                 1.6787
 IR Inten    --    138.2195                 0.8988                 2.5406

                     61                     62                     63
                      A                      A                      A
 Frequencies --   1387.2887              1426.7277              1448.3980
 Red. masses --      2.4157                 1.2183                 1.2246
 Frc consts  --      2.7392                 1.4611                 1.5136
 IR Inten    --      1.9890                 3.1185                 2.2541

                     64                     65                     66
                      A                      A                      A
 Frequencies --   1461.9305              1473.1723              1519.3725
 Red. masses --      5.6072                 1.1323                 1.0415
 Frc consts  --      7.0608                 1.4478                 1.4166
 IR Inten    --     17.0667                48.4533                 1.7488

                     67                     68                     69
                      A                      A                      A
 Frequencies --   1520.9122              1531.4508              1538.6945
 Red. masses --      1.0487                 1.1050                 1.1927
 Frc consts  --      1.4292                 1.5269                 1.6637
 IR Inten    --      1.4792                18.1131                53.5357

                     70                     71                     72
                      A                      A                      A
 Frequencies --   1545.3216              1571.9027              1631.3559
 Red. masses --      1.8530                 4.8047                 9.4774
 Frc consts  --      2.6071                 6.9946                14.8606
 IR Inten    --     96.8958                 0.2144               214.5649

                     73                     74                     75
                      A                      A                      A
 Frequencies --   1670.0304              1809.2981              3056.1182
 Red. masses --     10.8624                 8.9771                 1.0342
 Frc consts  --     17.8494                17.3143                 5.6910
 IR Inten    --    181.5638               330.8200                20.0487

                     76                     77                     78
                      A                      A                      A
 Frequencies --   3059.1764              3082.7036              3118.2856
 Red. masses --      1.0352                 1.0849                 1.0570
 Frc consts  --      5.7083                 6.0746                 6.0556
 IR Inten    --     18.9556                 2.3015                 6.7168

                     79                     80                     81
                      A                      A                      A
 Frequencies --   3126.5588              3133.0073              3133.0270
 Red. masses --      1.1034                 1.1032                 1.1026
 Frc consts  --      6.3553                 6.3803                 6.3768
 IR Inten    --      0.2815                24.3743                49.0456

                     82                     83                     84
                      A                      A                      A
 Frequencies --   3135.4050              3190.5686              3221.9408
 Red. masses --      1.1030                 1.1103                 1.0885
 Frc consts  --      6.3887                 6.6593                 6.6572
 IR Inten    --     24.8580                 2.8699                 5.7077

                     85                     86                     87
                      A                      A                      A
 Frequencies --   3236.4612              3267.6191              3603.5060
 Red. masses --      1.0959                 1.0971                 1.0765
 Frc consts  --      6.7632                 6.9015                 8.2360
 IR Inten    --      4.4127                 1.3121                52.5125

 - Thermochemistry -
 -------------------
 Temperature   298.150 Kelvin.  Pressure   1.00000 Atm.
 Atom     1 has atomic number  6 and mass  12.00000

 Molecular mass:   283.04492 amu.
 Principal axes and moments of inertia in atomic units:
                           1         2         3
     Eigenvalues --  2372.37261********************
           X            0.99988   0.01516   0.00315
           Y           -0.01520   0.99978   0.01421
           Z           -0.00293  -0.01426   0.99989
 This molecule is an asymmetric top.
 Rotational symmetry number  1.
 Warning -- assumption of classical behavior for rotation
           may cause significant error
 Rotational temperatures (Kelvin)      0.03651     0.00801     0.00768
 Rotational constants (GHZ):           0.76073     0.16686     0.15996
 Zero-point vibrational energy     619503.6 (Joules/Mol)
                                  148.06491 (Kcal/Mol)
 Warning -- explicit consideration of  26 degrees of freedom as
           vibrations may cause significant error
 Vibrational temperatures:     13.04    30.08    45.07    67.68    90.60
          (Kelvin)            109.38   127.34   164.57   190.82   231.55
                              296.08   326.29   362.60   371.47   419.15
                              432.40   470.35   525.87   608.19   622.92
                              625.71   705.32   714.57   753.87   794.02
                              835.78   904.63   942.11   965.03  1005.98
                             1025.83  1069.66  1082.64  1105.22  1173.65
                             1219.28  1242.20  1284.99  1304.25  1321.51
                             1363.86  1367.72  1402.35  1407.89  1429.58
                             1449.02  1554.23  1565.94  1583.65  1616.05
                             1628.68  1680.36  1726.14  1787.74  1802.73
                             1832.02  1912.74  1920.62  1947.89  1957.98
                             1996.00  2052.74  2083.92  2103.39  2119.57
                             2186.04  2188.25  2203.42  2213.84  2223.37
                             2261.62  2347.16  2402.80  2603.18  4397.07
                             4401.47  4435.32  4486.52  4498.42  4507.70
                             4507.73  4511.15  4590.52  4635.65  4656.55
                             4701.38  5184.64

 Zero-point correction=                           0.235956 (Hartree/Particle)
 Thermal correction to Energy=                    0.253963
 Thermal correction to Enthalpy=                  0.254907
 Thermal correction to Gibbs Free Energy=         0.185590
 Sum of electronic and zero-point Energies=          -1537.882467
 Sum of electronic and thermal Energies=             -1537.864460
 Sum of electronic and thermal Enthalpies=           -1537.863516
 Sum of electronic and thermal Free Energies=        -1537.932833

                     E (Thermal)             CV                S
                      KCal/Mol        Cal/Mol-Kelvin    Cal/Mol-Kelvin
 Total                  159.364             65.422            145.891
 Electronic               0.000              0.000              0.000
 Translational            0.889              2.981             42.819
 Rotational               0.889              2.981             34.025
 Vibrational            157.587             59.460             69.046
 Vibration     1          0.593              1.987              8.207
 Vibration     2          0.593              1.986              6.546
 Vibration     3          0.594              1.983              5.744
 Vibration     4          0.595              1.979              4.938
 Vibration     5          0.597              1.972              4.362
 Vibration     6          0.599              1.965              3.991
 Vibration     7          0.601              1.957              3.693
 Vibration     8          0.607              1.938              3.193
 Vibration     9          0.613              1.921              2.908
 Vibration    10          0.622              1.890              2.539
 Vibration    11          0.640              1.832              2.081
 Vibration    12          0.650              1.800              1.904
 Vibration    13          0.664              1.759              1.716
 Vibration    14          0.667              1.749              1.674
 Vibration    15          0.687              1.690              1.466
 Vibration    16          0.693              1.673              1.414
 Vibration    17          0.711              1.622              1.275
 Vibration    18          0.739              1.543              1.099
 Vibration    19          0.785              1.421              0.883
 Vibration    20          0.794              1.398              0.849
 Vibration    21          0.795              1.394              0.843
 Vibration    22          0.846              1.272              0.683
 Vibration    23          0.852              1.257              0.667
 Vibration    24          0.879              1.197              0.601
 Vibration    25          0.907              1.136              0.540
 Vibration    26          0.938              1.073              0.484

 Optimization completed.
    -- Stationary point found.
 Normal termination of Gaussian 16 at Fri Dec 11 22:26:01 2020.

 ----------------------------------------------------------------------
 # B3LYP/6-311++G(d,p) empiricaldispersion=gd3bj scf=xqc pop=npa geom=c
 heck
 ----------------------------------------------------------------------

 --------------------------------------
 CID_72011160_JID_8863_Energie_neutraal
 --------------------------------------
 Structure from the checkpoint file:  "JID_8863.chk"
 Charge =  0 Multiplicity = 1

 SCF Done:  E(RB3LYP) =  -1538.37869589     A.U. after   16 cycles
 Normal termination of Gaussian 16 at Fri Dec 11 22:30:40 2020.

 ----------------------------------------------------------------------
 # B3LYP/6-311++G(d,p) empiricaldispersion=gd3bj scf=xqc pop=npa geom=c
 heck
 ----------------------------------------------------------------------

 ------------------------------------
 CID_72011160_JID_8863_Energie_kation
 ------------------------------------
 Structure from the checkpoint file:  "JID_8863.chk"
 Charge =  1 Multiplicity = 2

 SCF Done:  E(UB3LYP) =  -1538.07357001     A.U. after   31 cycles
 Normal termination of Gaussian 16 at Fri Dec 11 22:42:14 2020.
 Gaussian 16:  ES64L-G16RevA.03 25-Dec-2016

 ----------------------------------------------------------------------
 # B3LYP/6-311++G(d,p) empiricaldispersion=gd3bj scf=xqc pop=npa geom=c
 heck
 ----------------------------------------------------------------------

 -----------------------------------
 CID_72011160_JID_8863_Energie_anion
 -----------------------------------
 Structure from the checkpoint file:  "JID_8863.chk"
 Charge = -1 Multiplicity = 2

                         Standard orientation:
 ---------------------------------------------------------------------
 Center     Atomic      Atomic             Coordinates (Angstroms)
 Number     Number       Type             X           Y           Z
 ---------------------------------------------------------------------
      1          6           0        4.348017    2.217729   -0.565266
      2          6           0        4.643069    0.713316   -0.425121
      3          6           0        5.524658    0.421189    0.802413
      4          6           0        3.379489   -0.076551   -0.377893
      5          7           0        2.937557   -0.975175   -1.191420
      6          7           0        1.701166   -1.420033   -0.688682
      7          6           0        1.498103   -0.730206    0.391090
      8          8           0        2.503107    0.140941    0.672698
      9          7           0        0.452087   -0.746040    1.278114
     10          6           0       -0.800584   -1.361326    1.160302
     11          8           0       -1.557407   -1.337792    2.111602
     12          6           0       -1.166717   -1.959075   -0.175881
     13         16           0       -1.491661   -0.634321   -1.430029
     14          6           0       -2.876078    0.176741   -0.703440
     15          6           0       -4.209406   -0.121691   -0.855045
     16          6           0       -5.064783    0.757012   -0.131746
     17          6           0       -4.375036    1.719103    0.559525
     18         16           0       -2.667329    1.568340    0.339579
     19          1           0        3.806225    2.591197    0.310315
     20          1           0        3.743909    2.421244   -1.454889
     21          1           0        5.285609    2.776892   -0.649374
     22          1           0        5.158340    0.364654   -1.326640
     23          1           0        5.023089    0.733047    1.724876
     24          1           0        5.755043   -0.646038    0.880258
     25          1           0        6.467556    0.972325    0.725746
     26          1           0        0.592984   -0.265620    2.158649
     27          1           0       -0.352444   -2.547161   -0.602890
     28          1           0       -2.063690   -2.561699   -0.036373
     29          1           0       -4.554349   -0.945947   -1.468850
     30          1           0       -6.146301    0.680198   -0.127576
     31          1           0       -4.777794    2.508683    1.179840
 ---------------------------------------------------------------------

 SCF Done:  E(UB3LYP) =  -1538.38028722     A.U. after   33 cycles
 SCF Done:  E(UB3LYP) =  -1538.38028722     a.u. after    1 cycles

 The electronic state is 2-A.
 Alpha  occ. eigenvalues --  -88.75849 -88.73410 -19.10981 -18.97875 -14.26031
 Alpha  occ. eigenvalues --  -14.23889 -14.22389 -10.19937 -10.16512 -10.15910
 Alpha  occ. eigenvalues --  -10.11115 -10.10005 -10.08430 -10.08372 -10.08367
 Alpha  occ. eigenvalues --  -10.08013 -10.06895 -10.06344  -7.84487  -7.81957
 Alpha  occ. eigenvalues --   -5.80774  -5.80409  -5.80101  -5.78370  -5.77998
 Alpha  occ. eigenvalues --   -5.77314  -1.06248  -0.93802  -0.87853  -0.84944
 Alpha  occ. eigenvalues --   -0.77074  -0.74984  -0.69543  -0.68881  -0.62447
 Alpha  occ. eigenvalues --   -0.62226  -0.60868  -0.57907  -0.55693  -0.54617
 Alpha  occ. eigenvalues --   -0.49171  -0.47905  -0.45177  -0.45106  -0.42455
 Alpha  occ. eigenvalues --   -0.40697  -0.39568  -0.38967  -0.37452  -0.36451
 Alpha  occ. eigenvalues --   -0.35271  -0.33858  -0.32618  -0.31832  -0.30830
 Alpha  occ. eigenvalues --   -0.30659  -0.29469  -0.28791  -0.28443  -0.27827
 Alpha  occ. eigenvalues --   -0.27021  -0.26417  -0.25869  -0.24700  -0.23723
 Alpha  occ. eigenvalues --   -0.23055  -0.22111  -0.21670  -0.18357  -0.16033
 Alpha  occ. eigenvalues --   -0.14565  -0.14155  -0.12856  -0.12130   0.03885
 Alpha virt. eigenvalues --    0.05187   0.07474   0.07525   0.07742   0.08225
 Alpha virt. eigenvalues --    0.08913   0.09058   0.09902   0.10196   0.10515
 Alpha virt. eigenvalues --    0.10737   0.11691   0.11855   0.12003   0.12495

  Beta  occ. eigenvalues --  -88.75814 -88.73367 -19.10915 -18.97586 -14.26072
  Beta  occ. eigenvalues --  -14.23910 -14.22345 -10.19844 -10.16474 -10.15681
  Beta  occ. eigenvalues --  -10.11113 -10.09911 -10.08349 -10.08339 -10.08195
  Beta  occ. eigenvalues --  -10.07981 -10.06930 -10.06262  -7.84456  -7.81910
  Beta  occ. eigenvalues --   -5.80759  -5.80393  -5.79987  -5.78289  -5.77944
  Beta  occ. eigenvalues --   -5.77282  -1.06145  -0.93349  -0.87796  -0.84798
  Beta  occ. eigenvalues --   -0.76895  -0.74923  -0.69499  -0.68563  -0.62282
  Beta  occ. eigenvalues --   -0.61897  -0.60815  -0.57757  -0.55565  -0.54365
  Beta  occ. eigenvalues --   -0.49106  -0.47727  -0.45040  -0.44994  -0.42261
  Beta  occ. eigenvalues --   -0.40421  -0.39415  -0.38921  -0.37354  -0.36282
  Beta  occ. eigenvalues --   -0.35179  -0.33529  -0.32198  -0.31637  -0.30739
  Beta  occ. eigenvalues --   -0.30363  -0.29347  -0.28695  -0.28376  -0.27524
  Beta  occ. eigenvalues --   -0.26774  -0.26385  -0.25576  -0.24465  -0.23508
  Beta  occ. eigenvalues --   -0.22715  -0.22056  -0.20957  -0.18300  -0.15764
  Beta  occ. eigenvalues --   -0.14088  -0.13755  -0.12328  -0.11758
  Beta virt. eigenvalues --    0.05963   0.07428   0.07705   0.07947   0.08265
  Beta virt. eigenvalues --    0.08823   0.09160   0.09201   0.09982   0.10373
  Beta virt. eigenvalues --    0.10776   0.10944   0.11794   0.11907   0.12067

 Mulliken charges and spin densities:
               1          2
     1  C    0.423052  -0.939095
     2  C   -2.059785   2.153061
     3  C    0.230440  -0.748319
     4  C    1.431672  -1.460527
     5  N   -0.003532   0.063728
     6  N   -0.155343  -0.031421
     7  C    0.038763  -0.146191
     8  O   -0.014089   0.041796
     9  N   -0.212091  -0.062488
    10  C   -0.319086   0.228770
    11  O   -0.294589   0.089362
    12  C   -0.234987  -0.062955
    13  S    0.102572   0.072288
    14  C    0.170604   0.040016
    15  C   -0.229787   0.070735
    16  C   -0.502551  -0.019930
    17  C   -0.108271   0.113712
    18  S   -0.112445   0.051831
    19  H    0.075566   0.073935
    20  H    0.089816   0.054542
    21  H   -0.444262   0.612393
    22  H    0.073229   0.118225
    23  H    0.069142   0.080330
    24  H    0.071301   0.071094
    25  H   -0.335723   0.501672
    26  H    0.268779   0.039096
    27  H    0.234239   0.011700
    28  H    0.290286  -0.013302
    29  H    0.138123  -0.005842
    30  H    0.108228   0.002531
    31  H    0.210729  -0.000745
 Sum of Mulliken charges =  -1.00000   1.00000

 Dipole moment (field-independent basis, Debye):
    X=             -2.5311    Y=             -0.3030    Z=              1.1231  Tot=              2.7856
 Quadrupole moment (field-independent basis, Debye-Ang):
   XX=           -203.7902   YY=           -146.4946   ZZ=           -146.2300
   XY=            -11.9282   XZ=              8.1548   YZ=              3.4937

 Summary of Natural Population Analysis:

                                       Natural Population
                Natural  -----------------------------------------------
    Atom  No    Charge         Core      Valence    Rydberg      Total
 -----------------------------------------------------------------------
      C    1   -0.28127      0.99965     2.27588    0.00574     3.28127
      C    2   -0.14209      0.99957     2.13267    0.00985     3.14209
      C    3   -0.28071      0.99965     2.27540    0.00566     3.28071
      C    4    0.26165      0.99956     1.71849    0.02031     2.73835
      N    5   -0.16184      0.99966     2.65024    0.01194     3.66184
      N    6   -0.19216      0.99966     2.67922    0.01329     3.69216
      C    7    0.35464      0.99961     1.62713    0.01863     2.64536
      O    8   -0.24732      0.99985     3.24093    0.00654     4.24732
      N    9   -0.32886      0.99963     2.81955    0.00968     3.82886
      C   10    0.36576      0.99968     1.61053    0.02403     2.63424
      O   11   -0.27530      0.99987     3.26928    0.00614     4.27530
      C   12   -0.28247      0.99954     2.27308    0.00984     3.28247
      S   13    0.13964      4.99948     2.83895    0.02193     7.86036
      C   14   -0.19098      0.99945     2.17698    0.01454     3.19098
      C   15   -0.11234      0.99944     2.10266    0.01024     3.11234
      C   16   -0.14404      0.99955     2.13477    0.00973     3.14404
      C   17   -0.16846      0.99956     2.15798    0.01093     3.16846
      S   18    0.22499      4.99936     2.75249    0.02316     7.77501
      H   19    0.10083      0.00000     0.39798    0.00120     0.39917
      H   20    0.10364      0.00000     0.39541    0.00095     0.39636
      H   21    0.10174      0.00000     0.39687    0.00139     0.39826
      H   22    0.11036      0.00000     0.38744    0.00220     0.38964
      H   23    0.10051      0.00000     0.39844    0.00105     0.39949
      H   24    0.10127      0.00000     0.39791    0.00081     0.39873
      H   25    0.10159      0.00000     0.39738    0.00102     0.39841
      H   26    0.20342      0.00000     0.29343    0.00315     0.29658
      H   27    0.12458      0.00000     0.37343    0.00199     0.37542
      H   28    0.10934      0.00000     0.38947    0.00119     0.39066
      H   29    0.10303      0.00000     0.39583    0.00114     0.39697
      H   30    0.09946      0.00000     0.39943    0.00110     0.40054
      H   31    0.10138      0.00000     0.39758    0.00103     0.39862
 =======================================================================
   * Total *   -0.00000     25.99276    47.75683    0.25041    74.00000

 Normal termination of Gaussian 16 at Fri Dec 11 22:55:08 2020.
