 Gaussian 16, Revision A.03,

 -----------------------------------------------------------
 # opt freq B3LYP/6-31G(d) empiricaldispersion=gd3bj scf=xqc
 -----------------------------------------------------------

 ------------------------------
 CID_55035635_JID_8952_neutraal
 ------------------------------
 Symbolic Z-matrix:
 Charge =  0 Multiplicity = 1

 SCF Done:  E(RB3LYP) =  -799.295296709     A.U. after   15 cycles
 SCF Done:  E(RB3LYP) =  -799.185959780     A.U. after   15 cycles
 SCF Done:  E(RB3LYP) =  -799.303826532     A.U. after   13 cycles
 SCF Done:  E(RB3LYP) =  -799.305407464     A.U. after   12 cycles
 SCF Done:  E(RB3LYP) =  -799.306108258     A.U. after   12 cycles
 SCF Done:  E(RB3LYP) =  -799.306648362     A.U. after   12 cycles
 SCF Done:  E(RB3LYP) =  -799.306942148     A.U. after   11 cycles
 SCF Done:  E(RB3LYP) =  -799.307183861     A.U. after   12 cycles
 SCF Done:  E(RB3LYP) =  -799.307278617     A.U. after   11 cycles
 SCF Done:  E(RB3LYP) =  -799.307430099     A.U. after   11 cycles
 SCF Done:  E(RB3LYP) =  -799.307664640     A.U. after    9 cycles
 SCF Done:  E(RB3LYP) =  -799.307664816     A.U. after    9 cycles
 SCF Done:  E(RB3LYP) =  -799.307664914     A.U. after    7 cycles
 SCF Done:  E(RB3LYP) =  -799.307665014     A.U. after    7 cycles
 SCF Done:  E(RB3LYP) =  -799.307665056     A.U. after    7 cycles
 Optimization completed.
    -- Stationary point found.
 Normal termination of Gaussian 16 at Fri Dec 11 23:19:50 2020.

 --------------------------------------------------------------------
 #N Geom=AllCheck Guess=TCheck SCRF=Check GenChk RB3LYP/6-31G(d) Freq
 --------------------------------------------------------------------

 Structure from the checkpoint file:  "JID_8952.chk"
 ------------------------------
 CID_55035635_JID_8952_neutraal
 ------------------------------
 Charge =  0 Multiplicity = 1

 SCF Done:  E(RB3LYP) =  -799.307665056     A.U. after    1 cycles

  Exact polarizability: 169.590 -17.220 161.203 -15.080 -21.338 129.093
 Approx polarizability: 252.688 -34.078 248.378 -37.682 -43.174 221.395

                      1                      2                      3
                      A                      A                      A
 Frequencies --     15.3658                29.6558                48.8931
 Red. masses --      4.3715                 4.0914                 6.0305
 Frc consts  --      0.0006                 0.0021                 0.0085
 IR Inten    --      0.6590                 1.0058                 0.8335

                      4                      5                      6
                      A                      A                      A
 Frequencies --     74.9528                84.1425                95.3114
 Red. masses --      5.3351                 4.3151                 4.8035
 Frc consts  --      0.0177                 0.0180                 0.0257
 IR Inten    --      1.4425                 2.0559                 0.7697

                      7                      8                      9
                      A                      A                      A
 Frequencies --    117.9343               171.5898               175.8984
 Red. masses --      1.1199                 5.0259                 4.6406
 Frc consts  --      0.0092                 0.0872                 0.0846
 IR Inten    --      0.7237                 1.2103                 0.4518

                     10                     11                     12
                      A                      A                      A
 Frequencies --    219.1476               244.1331               260.0283
 Red. masses --      3.0656                 3.5450                 1.6233
 Frc consts  --      0.0867                 0.1245                 0.0647
 IR Inten    --      2.8913                10.0242                20.6278

                     13                     14                     15
                      A                      A                      A
 Frequencies --    281.4262               302.9443               329.3425
 Red. masses --      2.1463                 2.3250                 3.3460
 Frc consts  --      0.1002                 0.1257                 0.2138
 IR Inten    --     18.7832                 3.8069                 6.8215

                     16                     17                     18
                      A                      A                      A
 Frequencies --    343.9214               398.2115               434.7379
 Red. masses --      3.7658                 2.7750                 3.9090
 Frc consts  --      0.2624                 0.2593                 0.4353
 IR Inten    --      4.8212                 2.0882                 3.8840

                     19                     20                     21
                      A                      A                      A
 Frequencies --    445.9014               460.9283               516.1047
 Red. masses --      2.9847                 2.5732                 3.4658
 Frc consts  --      0.3496                 0.3221                 0.5439
 IR Inten    --      6.5557                 8.5104                 2.8330

                     22                     23                     24
                      A                      A                      A
 Frequencies --    530.6466               535.7253               597.8904
 Red. masses --      2.1442                 4.6743                 3.9920
 Frc consts  --      0.3557                 0.7904                 0.8408
 IR Inten    --      7.0003                 0.8820                21.0902

                     25                     26                     27
                      A                      A                      A
 Frequencies --    603.5952               619.8149               657.9713
 Red. masses --      5.5181                 2.6142                 2.6826
 Frc consts  --      1.1845                 0.5917                 0.6843
 IR Inten    --      1.8049                28.3967               122.7918

                     28                     29                     30
                      A                      A                      A
 Frequencies --    681.7998               706.3437               715.3908
 Red. masses --      2.7704                 4.3209                 3.0086
 Frc consts  --      0.7588                 1.2702                 0.9072
 IR Inten    --     29.3594                13.9389                 7.1136

                     31                     32                     33
                      A                      A                      A
 Frequencies --    732.1527               751.3603               789.3951
 Red. masses --      1.2163                 4.7923                 1.4064
 Frc consts  --      0.3842                 1.5940                 0.5163
 IR Inten    --     31.8964                 6.8309                57.9278

                     34                     35                     36
                      A                      A                      A
 Frequencies --    791.0938               813.6132               817.9542
 Red. masses --      1.6674                 4.0431                 1.3853
 Frc consts  --      0.6148                 1.5769                 0.5461
 IR Inten    --    156.8707                18.7846                 1.4722

                     37                     38                     39
                      A                      A                      A
 Frequencies --    843.3392               903.3307               929.6911
 Red. masses --      3.6768                 1.3246                 1.5721
 Frc consts  --      1.5407                 0.6368                 0.8006
 IR Inten    --     13.0443                 0.3482                 1.6047

                     40                     41                     42
                      A                      A                      A
 Frequencies --    950.4011               964.5652               971.8414
 Red. masses --      2.4171                 1.7720                 1.2953
 Frc consts  --      1.2863                 0.9713                 0.7208
 IR Inten    --      1.5075                19.6288                 0.6617

                     43                     44                     45
                      A                      A                      A
 Frequencies --   1009.9880              1016.7933              1022.5400
 Red. masses --      2.3052                 5.6558                 4.7942
 Frc consts  --      1.3854                 3.4452                 2.9534
 IR Inten    --     15.6471                 8.6938                 1.1657

                     46                     47                     48
                      A                      A                      A
 Frequencies --   1033.6651              1047.2015              1078.1329
 Red. masses --      2.5839                 1.5636                 1.2574
 Frc consts  --      1.6266                 1.0103                 0.8611
 IR Inten    --      0.1674                 1.1658                22.1670

                     49                     50                     51
                      A                      A                      A
 Frequencies --   1085.9060              1129.8244              1140.6331
 Red. masses --      1.5076                 1.9305                 2.0964
 Frc consts  --      1.0475                 1.4519                 1.6070
 IR Inten    --      6.0023                11.1614                 8.7188

                     52                     53                     54
                      A                      A                      A
 Frequencies --   1148.7083              1188.3674              1201.6751
 Red. masses --      1.8630                 1.6870                 1.4548
 Frc consts  --      1.4484                 1.4036                 1.2378
 IR Inten    --      1.7233                 0.3252                30.4223

                     55                     56                     57
                      A                      A                      A
 Frequencies --   1208.3634              1269.2470              1275.5223
 Red. masses --      1.1502                 1.7549                 1.9432
 Frc consts  --      0.9895                 1.6657                 1.8627
 IR Inten    --      1.5779                14.0138                 4.3247

                     58                     59                     60
                      A                      A                      A
 Frequencies --   1286.9095              1336.8665              1342.7627
 Red. masses --      1.8075                 1.9206                 2.5929
 Frc consts  --      1.7637                 2.0224                 2.7545
 IR Inten    --      4.0122                 6.2655                50.7077

                     61                     62                     63
                      A                      A                      A
 Frequencies --   1366.8372              1369.2645              1389.3664
 Red. masses --      1.4906                 2.1536                 1.7409
 Frc consts  --      1.6407                 2.3789                 1.9800
 IR Inten    --     38.6226                 0.1333                85.3260

                     64                     65                     66
                      A                      A                      A
 Frequencies --   1416.1305              1440.8258              1450.2137
 Red. masses --      1.9488                 4.0589                 1.2401
 Frc consts  --      2.3027                 4.9646                 1.5367
 IR Inten    --     35.7285                 1.9067                 1.4903

                     67                     68                     69
                      A                      A                      A
 Frequencies --   1486.9339              1489.3273              1503.6187
 Red. masses --      2.5945                 2.8622                 1.1309
 Frc consts  --      3.3798                 3.7405                 1.5064
 IR Inten    --     16.7174                17.9867                16.4869

                     70                     71                     72
                      A                      A                      A
 Frequencies --   1511.2374              1517.9964              1521.1377
 Red. masses --      2.0585                 1.0855                 1.1379
 Frc consts  --      2.7699                 1.4737                 1.5512
 IR Inten    --     67.7697                11.0499                 5.7472

                     73                     74                     75
                      A                      A                      A
 Frequencies --   1534.5343              1545.4284              1547.9778
 Red. masses --      1.3721                 4.1559                 1.6842
 Frc consts  --      1.9037                 5.8481                 2.3777
 IR Inten    --      4.7988                55.2752                 9.2721

                     76                     77                     78
                      A                      A                      A
 Frequencies --   1607.0800              1653.0739              1671.2678
 Red. masses --      4.0026                 5.3169                 5.4777
 Frc consts  --      6.0908                 8.5603                 9.0145
 IR Inten    --     89.1052                 2.9496                 8.6556

                     79                     80                     81
                      A                      A                      A
 Frequencies --   1681.4105              1800.4525              3037.9763
 Red. masses --      1.2617                 8.0730                 1.0386
 Frc consts  --      2.1016                15.4188                 5.6475
 IR Inten    --    109.1104               425.3568                36.7303

                     82                     83                     84
                      A                      A                      A
 Frequencies --   3038.8773              3087.4133              3096.6905
 Red. masses --      1.0732                 1.0603                 1.0984
 Frc consts  --      5.8390                 5.9547                 6.2061
 IR Inten    --     36.8700                16.2662                14.7237

                     85                     86                     87
                      A                      A                      A
 Frequencies --   3122.9827              3131.2938              3145.7415
 Red. masses --      1.1033                 1.0879                 1.1053
 Frc consts  --      6.3398                 6.2846                 6.4442
 IR Inten    --     11.4638                16.0120                 8.8214

                     88                     89                     90
                      A                      A                      A
 Frequencies --   3170.0219              3180.0659              3199.7172
 Red. masses --      1.0864                 1.0896                 1.0960
 Frc consts  --      6.4320                 6.4922                 6.6111
 IR Inten    --      4.1966                25.2234                34.7945

                     91                     92                     93
                      A                      A                      A
 Frequencies --   3207.7630              3262.3002              3283.9826
 Red. masses --      1.0904                 1.0920                 1.1035
 Frc consts  --      6.6105                 6.8475                 7.0118
 IR Inten    --      2.4296                 1.6356                 0.9619

                     94                     95                     96
                      A                      A                      A
 Frequencies --   3526.6462              3587.6615              3624.7042
 Red. masses --      1.0481                 1.0756                 1.0966
 Frc consts  --      7.6806                 8.1565                 8.4890
 IR Inten    --     12.5215                20.9193                12.2974

 - Thermochemistry -
 -------------------
 Temperature   298.150 Kelvin.  Pressure   1.00000 Atm.
 Atom     1 has atomic number  6 and mass  12.00000

 Molecular mass:   244.13241 amu.
 Principal axes and moments of inertia in atomic units:
                           1         2         3
     Eigenvalues --  3431.036874811.355756536.72461
           X            0.99983  -0.01170   0.01391
           Y            0.01220   0.99927  -0.03632
           Z           -0.01347   0.03648   0.99924
 This molecule is an asymmetric top.
 Rotational symmetry number  1.
 Warning -- assumption of classical behavior for rotation
           may cause significant error
 Rotational temperatures (Kelvin)      0.02524     0.01800     0.01325
 Rotational constants (GHZ):           0.52600     0.37510     0.27609
 Zero-point vibrational energy     741622.2 (Joules/Mol)
                                  177.25195 (Kcal/Mol)
 Warning -- explicit consideration of  26 degrees of freedom as
           vibrations may cause significant error
 Vibrational temperatures:     22.11    42.67    70.35   107.84   121.06
          (Kelvin)            137.13   169.68   246.88   253.08   315.30
                              351.25   374.12   404.91   435.87   473.85
                              494.83   572.94   625.49   641.55   663.17
                              742.56   763.48   770.79   860.23   868.44
                              891.78   946.67   980.96  1016.27  1029.29
                             1053.40  1081.04  1135.76  1138.21  1170.61
                             1176.85  1213.38  1299.69  1337.62  1367.42
                             1387.79  1398.26  1453.15  1462.94  1471.21
                             1487.21  1506.69  1551.19  1562.38  1625.57
                             1641.12  1652.74  1709.80  1728.94  1738.57
                             1826.16  1835.19  1851.58  1923.45  1931.94
                             1966.57  1970.07  1998.99  2037.50  2073.03
                             2086.53  2139.37  2142.81  2163.37  2174.33
                             2184.06  2188.58  2207.85  2223.53  2227.19
                             2312.23  2378.40  2404.58  2419.17  2590.45
                             4370.97  4372.27  4442.10  4455.45  4493.28
                             4505.23  4526.02  4560.95  4575.41  4603.68
                             4615.26  4693.72  4724.92  5074.06  5161.84
                             5215.14

 Zero-point correction=                           0.282469 (Hartree/Particle)
 Thermal correction to Energy=                    0.299187
 Thermal correction to Enthalpy=                  0.300131
 Thermal correction to Gibbs Free Energy=         0.236260
 Sum of electronic and zero-point Energies=           -799.025196
 Sum of electronic and thermal Energies=              -799.008478
 Sum of electronic and thermal Enthalpies=            -799.007534
 Sum of electronic and thermal Free Energies=         -799.071405

                     E (Thermal)             CV                S
                      KCal/Mol        Cal/Mol-Kelvin    Cal/Mol-Kelvin
 Total                  187.742             63.758            134.426
 Electronic               0.000              0.000              0.000
 Translational            0.889              2.981             42.378
 Rotational               0.889              2.981             33.045
 Vibrational            185.965             57.796             59.003
 Vibration     1          0.593              1.986              7.158
 Vibration     2          0.593              1.984              5.852
 Vibration     3          0.595              1.978              4.862
 Vibration     4          0.599              1.966              4.019
 Vibration     5          0.601              1.960              3.792
 Vibration     6          0.603              1.953              3.548
 Vibration     7          0.608              1.934              3.134
 Vibration     8          0.626              1.877              2.418
 Vibration     9          0.628              1.872              2.372
 Vibration    10          0.647              1.812              1.966
 Vibration    11          0.659              1.772              1.773
 Vibration    12          0.668              1.746              1.662
 Vibration    13          0.681              1.708              1.525
 Vibration    14          0.694              1.668              1.401
 Vibration    15          0.712              1.617              1.263
 Vibration    16          0.723              1.588              1.194
 Vibration    17          0.764              1.474              0.969
 Vibration    18          0.795              1.395              0.843
 Vibration    19          0.805              1.370              0.808
 Vibration    20          0.819              1.337              0.763
 Vibration    21          0.871              1.214              0.619
 Vibration    22          0.886              1.182              0.586
 Vibration    23          0.891              1.171              0.575
 Vibration    24          0.956              1.036              0.453
 Vibration    25          0.962              1.024              0.444
 Vibration    26          0.980              0.990              0.417

 Optimization completed.
    -- Stationary point found.
 Normal termination of Gaussian 16 at Fri Dec 11 23:34:11 2020.

 ----------------------------------------------------------------------
 # B3LYP/6-311++G(d,p) empiricaldispersion=gd3bj scf=xqc pop=npa geom=c
 heck
 ----------------------------------------------------------------------

 --------------------------------------
 CID_55035635_JID_8952_Energie_neutraal
 --------------------------------------
 Structure from the checkpoint file:  "JID_8952.chk"
 Charge =  0 Multiplicity = 1

 SCF Done:  E(RB3LYP) =  -799.534432041     A.U. after   16 cycles
 Normal termination of Gaussian 16 at Fri Dec 11 23:39:59 2020.

 ----------------------------------------------------------------------
 # B3LYP/6-311++G(d,p) empiricaldispersion=gd3bj scf=xqc pop=npa geom=c
 heck
 ----------------------------------------------------------------------

 ------------------------------------
 CID_55035635_JID_8952_Energie_kation
 ------------------------------------
 Structure from the checkpoint file:  "JID_8952.chk"
 Charge =  1 Multiplicity = 2

 SCF Done:  E(UB3LYP) =  -799.249918156     A.U. after   26 cycles
 Normal termination of Gaussian 16 at Fri Dec 11 23:52:49 2020.
 Gaussian 16:  ES64L-G16RevA.03 25-Dec-2016

 ----------------------------------------------------------------------
 # B3LYP/6-311++G(d,p) empiricaldispersion=gd3bj scf=xqc pop=npa geom=c
 heck
 ----------------------------------------------------------------------

 -----------------------------------
 CID_55035635_JID_8952_Energie_anion
 -----------------------------------
 Structure from the checkpoint file:  "JID_8952.chk"
 Charge = -1 Multiplicity = 2

                         Standard orientation:
 ---------------------------------------------------------------------
 Center     Atomic      Atomic             Coordinates (Angstroms)
 Number     Number       Type             X           Y           Z
 ---------------------------------------------------------------------
      1          6           0       -2.433227    1.776105   -1.526790
      2          6           0       -2.446725    0.529635   -0.675881
      3          6           0       -1.270231   -0.205868   -0.484519
      4          6           0       -1.261124   -1.366181    0.290579
      5          6           0       -2.449161   -1.808112    0.882067
      6          6           0       -3.626197   -1.084101    0.705487
      7          6           0       -3.623251    0.076727   -0.068605
      8          6           0        0.026602   -2.130004    0.536779
      9          7           0        0.922882   -2.170946   -0.607131
     10          6           0        2.178134   -1.655798   -0.757375
     11          8           0        2.846009   -1.863441   -1.759647
     12          6           0        2.755839   -0.806929    0.389780
     13          7           0        1.991252    0.391380    0.664839
     14          6           0        1.450102    0.807977    1.838034
     15          6           0        0.857791    2.032932    1.604330
     16          6           0        1.108409    2.285761    0.231137
     17          7           0        1.802362    1.298445   -0.336255
     18          7           0        0.653492    3.362284   -0.535266
     19          1           0       -1.612764    2.443252   -1.238893
     20          1           0       -2.291496    1.525558   -2.586290
     21          1           0       -3.376639    2.325292   -1.441257
     22          1           0       -0.346521    0.137057   -0.940287
     23          1           0       -2.451178   -2.716912    1.480089
     24          1           0       -4.549223   -1.427863    1.164652
     25          1           0       -4.545023    0.636619   -0.206936
     26          1           0        0.566470   -1.682945    1.373959
     27          1           0       -0.212520   -3.157784    0.840820
     28          1           0        0.594224   -2.658507   -1.432467
     29          1           0        2.817277   -1.383313    1.317965
     30          1           0        3.766299   -0.538945    0.074556
     31          1           0        1.526066    0.213282    2.737642
     32          1           0        0.309877    2.643690    2.306300
     33          1           0        0.698091    4.249125   -0.045715
     34          1           0        1.147309    3.418926   -1.420411
 ---------------------------------------------------------------------

 SCF Done:  E(UB3LYP) =  -799.524756854     A.U. after   33 cycles
 SCF Done:  E(UB3LYP) =  -799.524756854     a.u. after    1 cycles

 The electronic state is 2-A.
 Alpha  occ. eigenvalues --  -19.00160 -14.29600 -14.25203 -14.22514 -14.22512
 Alpha  occ. eigenvalues --  -10.18946 -10.13370 -10.13321 -10.12650 -10.11540
 Alpha  occ. eigenvalues --  -10.09246 -10.09214 -10.08606 -10.08214 -10.08158
 Alpha  occ. eigenvalues --  -10.07471 -10.07079 -10.06984  -0.96131  -0.94978
 Alpha  occ. eigenvalues --   -0.84145  -0.82532  -0.76965  -0.73815  -0.69647
 Alpha  occ. eigenvalues --   -0.69060  -0.66948  -0.62153  -0.60698  -0.59227
 Alpha  occ. eigenvalues --   -0.52070  -0.51451  -0.50796  -0.48970  -0.48001
 Alpha  occ. eigenvalues --   -0.44805  -0.42469  -0.41218  -0.40663  -0.39993
 Alpha  occ. eigenvalues --   -0.37710  -0.37204  -0.36266  -0.35273  -0.35232
 Alpha  occ. eigenvalues --   -0.33979  -0.32887  -0.32185  -0.31832  -0.31629
 Alpha  occ. eigenvalues --   -0.31188  -0.30648  -0.29388  -0.29117  -0.26135
 Alpha  occ. eigenvalues --   -0.25621  -0.25115  -0.23422  -0.20569  -0.17664
 Alpha  occ. eigenvalues --   -0.17537  -0.15760  -0.15709  -0.15347  -0.12235
 Alpha  occ. eigenvalues --    0.03892
 Alpha virt. eigenvalues --    0.05501   0.06290   0.07134   0.07298   0.07468
 Alpha virt. eigenvalues --    0.07813   0.08394   0.08880   0.09345   0.09601
 Alpha virt. eigenvalues --    0.09680   0.10497   0.11121   0.11274   0.11585

  Beta  occ. eigenvalues --  -19.00159 -14.29601 -14.25198 -14.22502 -14.22473
  Beta  occ. eigenvalues --  -10.18946 -10.13345 -10.13319 -10.12622 -10.11515
  Beta  occ. eigenvalues --  -10.09243 -10.09215 -10.08601 -10.08202 -10.08149
  Beta  occ. eigenvalues --  -10.07464 -10.07070 -10.06971  -0.96119  -0.94971
  Beta  occ. eigenvalues --   -0.84131  -0.82484  -0.76952  -0.73777  -0.69618
  Beta  occ. eigenvalues --   -0.69041  -0.66929  -0.62116  -0.60659  -0.59204
  Beta  occ. eigenvalues --   -0.52038  -0.51426  -0.50764  -0.48943  -0.47958
  Beta  occ. eigenvalues --   -0.44751  -0.42444  -0.41175  -0.40611  -0.39947
  Beta  occ. eigenvalues --   -0.37691  -0.37183  -0.36231  -0.35241  -0.35205
  Beta  occ. eigenvalues --   -0.33949  -0.32871  -0.32166  -0.31811  -0.31599
  Beta  occ. eigenvalues --   -0.31147  -0.30625  -0.29369  -0.29102  -0.26116
  Beta  occ. eigenvalues --   -0.25603  -0.25101  -0.23395  -0.20553  -0.17653
  Beta  occ. eigenvalues --   -0.17527  -0.15744  -0.15688  -0.15326  -0.12212
  Beta virt. eigenvalues --    0.06052   0.06695   0.06977   0.07368   0.07454
  Beta virt. eigenvalues --    0.07884   0.08075   0.08660   0.09288   0.09635
  Beta virt. eigenvalues --    0.09823   0.09959   0.10832   0.11329   0.11693

 Mulliken charges and spin densities:
               1          2
     1  C   -0.495876  -0.145343
     2  C   -0.292264   0.775923
     3  C   -0.483113   0.342048
     4  C    0.330362   0.108570
     5  C   -0.502992   0.234302
     6  C    0.505198  -0.833611
     7  C    0.048881  -0.483308
     8  C    0.781608  -1.337853
     9  N   -0.101541   0.014512
    10  C   -0.229872   0.222973
    11  O   -0.322515   0.010419
    12  C    0.535637  -0.789307
    13  N    0.198155  -0.012829
    14  C    0.842481  -1.194993
    15  C   -0.856162   0.906341
    16  C    1.466118  -1.836516
    17  N   -0.465892   0.249937
    18  N   -0.348048   0.086865
    19  H    0.318896  -0.079189
    20  H    0.079270   0.076659
    21  H   -0.038795   0.174478
    22  H    0.349851  -0.167005
    23  H   -0.436149   0.593414
    24  H   -0.076550   0.238457
    25  H    0.046361   0.072318
    26  H    0.350024  -0.192280
    27  H   -0.648951   0.862711
    28  H    0.197997   0.082809
    29  H   -0.428411   0.620872
    30  H    0.108541   0.114680
    31  H   -0.855309   1.022514
    32  H   -0.445584   0.623128
    33  H   -0.236272   0.491376
    34  H    0.104915   0.146927
 Sum of Mulliken charges =  -1.00000   1.00000

 Dipole moment (field-independent basis, Debye):
    X=             -3.0044    Y=              0.4727    Z=             -3.2082  Tot=              4.4207
 Quadrupole moment (field-independent basis, Debye-Ang):
   XX=           -158.3238   YY=           -168.9864   ZZ=           -153.7609
   XY=              1.7657   XZ=              2.8129   YZ=              2.9965

 Summary of Natural Population Analysis:

                                       Natural Population
                Natural  -----------------------------------------------
    Atom  No    Charge         Core      Valence    Rydberg      Total
 -----------------------------------------------------------------------
      C    1   -0.29904      0.99963     2.29436    0.00505     3.29904
      C    2   -0.00833      0.99952     2.00074    0.00808     3.00833
      C    3   -0.09973      0.99946     2.09103    0.00924     3.09973
      C    4   -0.02121      0.99950     2.01115    0.01056     3.02121
      C    5   -0.10523      0.99951     2.09566    0.01006     3.10523
      C    6   -0.09698      0.99956     2.08781    0.00961     3.09698
      C    7   -0.10564      0.99951     2.09719    0.00894     3.10564
      C    8   -0.09407      0.99957     2.08190    0.01261     3.09407
      N    9   -0.31175      0.99967     2.80301    0.00907     3.81175
      C   10    0.34078      0.99967     1.63635    0.02320     2.65922
      O   11   -0.31696      0.99988     3.31152    0.00557     4.31696
      C   12   -0.12210      0.99956     2.11081    0.01173     3.12210
      N   13   -0.11869      0.99966     2.60495    0.01409     3.61869
      C   14    0.00677      0.99955     1.98133    0.01235     2.99323
      C   15   -0.17405      0.99950     2.16492    0.00963     3.17405
      C   16    0.16672      0.99958     1.81739    0.01632     2.83328
      N   17   -0.18705      0.99969     2.67662    0.01074     3.68705
      N   18   -0.40582      0.99972     2.89517    0.01094     3.90582
      H   19    0.11988      0.00000     0.37849    0.00164     0.38012
      H   20    0.10123      0.00000     0.39771    0.00106     0.39877
      H   21    0.09728      0.00000     0.40179    0.00093     0.40272
      H   22    0.11104      0.00000     0.38638    0.00258     0.38896
      H   23    0.10176      0.00000     0.39682    0.00142     0.39824
      H   24    0.09895      0.00000     0.40024    0.00081     0.40105
      H   25    0.09717      0.00000     0.40192    0.00092     0.40283
      H   26    0.10789      0.00000     0.38923    0.00288     0.39211
      H   27    0.10036      0.00000     0.39782    0.00182     0.39964
      H   28    0.19442      0.00000     0.30357    0.00201     0.30558
      H   29    0.11253      0.00000     0.38540    0.00208     0.38747
      H   30    0.11313      0.00000     0.38565    0.00122     0.38687
      H   31    0.10864      0.00000     0.38854    0.00282     0.39136
      H   32    0.11146      0.00000     0.38743    0.00111     0.38854
      H   33    0.18879      0.00000     0.30743    0.00378     0.31121
      H   34    0.18787      0.00000     0.31043    0.00170     0.31213
 =======================================================================
   * Total *   -0.00000     17.99273    46.78073    0.22655    65.00000

 Normal termination of Gaussian 16 at Sat Dec 12 00:09:17 2020.
