 Gaussian 16, Revision A.03,

 -----------------------------------------------------------
 # opt freq B3LYP/6-31G(d) empiricaldispersion=gd3bj scf=xqc
 -----------------------------------------------------------

 ------------------------------
 CID_54406300_JID_8731_neutraal
 ------------------------------
 Symbolic Z-matrix:
 Charge =  0 Multiplicity = 1

 SCF Done:  E(RB3LYP) =  -786.909153340     A.U. after   15 cycles
 SCF Done:  E(RB3LYP) =  -786.910999319     A.U. after   13 cycles
 SCF Done:  E(RB3LYP) =  -786.911287590     A.U. after   13 cycles
 SCF Done:  E(RB3LYP) =  -786.913081279     A.U. after   13 cycles
 SCF Done:  E(RB3LYP) =  -786.913582763     A.U. after   12 cycles
 SCF Done:  E(RB3LYP) =  -786.913741222     A.U. after   12 cycles
 SCF Done:  E(RB3LYP) =  -786.913824686     A.U. after   11 cycles
 SCF Done:  E(RB3LYP) =  -786.913906199     A.U. after   11 cycles
 SCF Done:  E(RB3LYP) =  -786.913993753     A.U. after   12 cycles
 SCF Done:  E(RB3LYP) =  -786.914005767     A.U. after   10 cycles
 SCF Done:  E(RB3LYP) =  -786.914019181     A.U. after    7 cycles
 SCF Done:  E(RB3LYP) =  -786.914019190     A.U. after    7 cycles
 SCF Done:  E(RB3LYP) =  -786.914019406     A.U. after    7 cycles
 SCF Done:  E(RB3LYP) =  -786.914019122     A.U. after    7 cycles
 Optimization completed.
    -- Stationary point found.
 Normal termination of Gaussian 16 at Fri Dec 11 21:10:51 2020.

 --------------------------------------------------------------------
 #N Geom=AllCheck Guess=TCheck SCRF=Check GenChk RB3LYP/6-31G(d) Freq
 --------------------------------------------------------------------

 Structure from the checkpoint file:  "JID_8731.chk"
 ------------------------------
 CID_54406300_JID_8731_neutraal
 ------------------------------
 Charge =  0 Multiplicity = 1

 SCF Done:  E(RB3LYP) =  -786.914019122     A.U. after    1 cycles

  Exact polarizability: 184.876  -7.155 165.329 -16.729  -2.720 139.068
 Approx polarizability: 241.156  -8.960 253.155 -33.824 -15.789 216.242

                      1                      2                      3
                      A                      A                      A
 Frequencies --     20.0121                35.7422                50.4914
 Red. masses --      3.7109                 3.7591                 3.1220
 Frc consts  --      0.0009                 0.0028                 0.0047
 IR Inten    --      0.0321                 1.3724                 0.3692

                      4                      5                      6
                      A                      A                      A
 Frequencies --     55.8810                67.1341                89.9044
 Red. masses --      1.2650                 2.3036                 4.8651
 Frc consts  --      0.0023                 0.0061                 0.0232
 IR Inten    --      0.0415                 0.4676                 3.6224

                      7                      8                      9
                      A                      A                      A
 Frequencies --    112.3953               133.3038               150.0588
 Red. masses --      2.5069                 1.1898                 3.1715
 Frc consts  --      0.0187                 0.0125                 0.0421
 IR Inten    --      0.9587                 0.1863                 0.6669

                     10                     11                     12
                      A                      A                      A
 Frequencies --    161.9300               195.2085               207.6198
 Red. masses --      2.3536                 2.5133                 2.8811
 Frc consts  --      0.0364                 0.0564                 0.0732
 IR Inten    --      1.9117                 3.0234                 2.0558

                     13                     14                     15
                      A                      A                      A
 Frequencies --    219.1847               252.2482               268.5270
 Red. masses --      2.9363                 1.6376                 2.6461
 Frc consts  --      0.0831                 0.0614                 0.1124
 IR Inten    --      5.0412                 2.5093                 4.0858

                     16                     17                     18
                      A                      A                      A
 Frequencies --    282.7080               309.8158               325.5006
 Red. masses --      2.8435                 2.6604                 2.9534
 Frc consts  --      0.1339                 0.1505                 0.1844
 IR Inten    --      1.3684                 0.1964                 0.7322

                     19                     20                     21
                      A                      A                      A
 Frequencies --    345.3770               377.7280               410.8175
 Red. masses --      2.2256                 5.2636                 2.2510
 Frc consts  --      0.1564                 0.4425                 0.2238
 IR Inten    --      0.6231                 1.2709                 0.4266

                     22                     23                     24
                      A                      A                      A
 Frequencies --    419.4715               461.7527               486.3686
 Red. masses --      3.4790                 4.0383                 2.2733
 Frc consts  --      0.3607                 0.5073                 0.3168
 IR Inten    --      2.3176                 4.0418                 1.3369

                     25                     26                     27
                      A                      A                      A
 Frequencies --    559.4557               567.9954               613.2151
 Red. masses --      2.8486                 3.5498                 2.2511
 Frc consts  --      0.5253                 0.6747                 0.4987
 IR Inten    --      3.1356                 5.3120                 6.8411

                     28                     29                     30
                      A                      A                      A
 Frequencies --    626.8883               646.4454               668.6196
 Red. masses --      4.0609                 4.7307                 3.4630
 Frc consts  --      0.9403                 1.1648                 0.9121
 IR Inten    --      1.5434                 7.8512                44.4386

                     31                     32                     33
                      A                      A                      A
 Frequencies --    682.1110               741.3515               764.9273
 Red. masses --      3.9141                 2.0608                 2.0637
 Frc consts  --      1.0730                 0.6673                 0.7114
 IR Inten    --     12.2686                 8.1890                11.2891

                     34                     35                     36
                      A                      A                      A
 Frequencies --    786.6263               811.8844               819.5407
 Red. masses --      2.6150                 1.8378                 1.8377
 Frc consts  --      0.9534                 0.7137                 0.7272
 IR Inten    --     17.5159                37.1091                10.0413

                     37                     38                     39
                      A                      A                      A
 Frequencies --    833.3360               835.2458               862.7948
 Red. masses --      2.1534                 1.5845                 2.3289
 Frc consts  --      0.8811                 0.6513                 1.0214
 IR Inten    --     12.6002                28.1213                 2.7673

                     40                     41                     42
                      A                      A                      A
 Frequencies --    896.2010               928.6854               950.3575
 Red. masses --      1.5489                 1.8959                 1.8108
 Frc consts  --      0.7329                 0.9634                 0.9636
 IR Inten    --      1.6073                 2.5109                 7.2992

                     43                     44                     45
                      A                      A                      A
 Frequencies --    990.0185              1024.8115              1032.0397
 Red. masses --      2.0114                 2.2245                 1.5781
 Frc consts  --      1.1616                 1.3765                 0.9903
 IR Inten    --     10.3985                 8.9145                 0.4264

                     46                     47                     48
                      A                      A                      A
 Frequencies --   1042.0785              1052.1230              1061.7180
 Red. masses --      2.8748                 1.9158                 1.8292
 Frc consts  --      1.8393                 1.2495                 1.2149
 IR Inten    --      3.3602                 2.9514                 2.2664

                     49                     50                     51
                      A                      A                      A
 Frequencies --   1078.4462              1083.7142              1094.7605
 Red. masses --      1.4907                 1.6833                 1.4381
 Frc consts  --      1.0215                 1.1648                 1.0155
 IR Inten    --      1.9862                 1.3626                22.7269

                     52                     53                     54
                      A                      A                      A
 Frequencies --   1098.5125              1117.2797              1125.2759
 Red. masses --      1.8899                 1.2724                 3.1849
 Frc consts  --      1.3437                 0.9358                 2.3761
 IR Inten    --      2.7733                 0.6475                 3.4144

                     55                     56                     57
                      A                      A                      A
 Frequencies --   1157.3335              1162.4336              1185.9485
 Red. masses --      3.1464                 1.3234                 1.9250
 Frc consts  --      2.4831                 1.0536                 1.5952
 IR Inten    --     50.7297                 3.2908                 3.2120

                     58                     59                     60
                      A                      A                      A
 Frequencies --   1191.7434              1193.0254              1243.0636
 Red. masses --      2.3903                 2.0423                 1.6542
 Frc consts  --      2.0002                 1.7126                 1.5060
 IR Inten    --      7.6563                50.1475                 3.4821

                     61                     62                     63
                      A                      A                      A
 Frequencies --   1282.1620              1293.5449              1315.0309
 Red. masses --      1.3315                 1.3563                 1.3093
 Frc consts  --      1.2897                 1.3371                 1.3340
 IR Inten    --      0.7484                40.8733                13.1852

                     64                     65                     66
                      A                      A                      A
 Frequencies --   1321.8824              1332.4710              1343.8996
 Red. masses --      3.1769                 1.4645                 1.3176
 Frc consts  --      3.2707                 1.5320                 1.4020
 IR Inten    --     50.6152                 1.1733                 8.5791

                     67                     68                     69
                      A                      A                      A
 Frequencies --   1362.0565              1369.2269              1383.8443
 Red. masses --      2.1906                 1.4588                 1.3967
 Frc consts  --      2.3945                 1.6114                 1.5759
 IR Inten    --    114.4228                56.7673                 3.3433

                     70                     71                     72
                      A                      A                      A
 Frequencies --   1390.4440              1401.6892              1402.4468
 Red. masses --      1.3636                 1.5143                 1.8465
 Frc consts  --      1.5532                 1.7529                 2.1398
 IR Inten    --      0.4725                 0.5200                10.2036

                     73                     74                     75
                      A                      A                      A
 Frequencies --   1408.0514              1412.8586              1432.6703
 Red. masses --      2.5225                 1.5538                 1.4498
 Frc consts  --      2.9465                 1.8275                 1.7533
 IR Inten    --     20.0839                 3.9719                 3.0603

                     76                     77                     78
                      A                      A                      A
 Frequencies --   1438.9804              1442.3320              1473.4785
 Red. masses --      1.3055                 1.2508                 1.3766
 Frc consts  --      1.5927                 1.5331                 1.7610
 IR Inten    --      3.0288                 5.8629                27.4330

                     79                     80                     81
                      A                      A                      A
 Frequencies --   1486.9919              1502.8538              1503.8615
 Red. masses --      1.4071                 2.1907                 1.1178
 Frc consts  --      1.8331                 2.9151                 1.4895
 IR Inten    --     24.3430                13.2844                 3.1433

                     82                     83                     84
                      A                      A                      A
 Frequencies --   1504.6503              1513.9278              1516.2680
 Red. masses --      1.9129                 1.0938                 1.0903
 Frc consts  --      2.5516                 1.4771                 1.4769
 IR Inten    --     14.4723                 0.7279                 1.2568

                     85                     86                     87
                      A                      A                      A
 Frequencies --   1519.6451              1523.1535              1525.9312
 Red. masses --      1.5682                 1.1043                 1.1055
 Frc consts  --      2.1337                 1.5094                 1.5167
 IR Inten    --     25.0843                19.9650                12.3416

                     88                     89                     90
                      A                      A                      A
 Frequencies --   1527.7959              1533.9012              1536.4404
 Red. masses --      1.0679                 1.0860                 1.0678
 Frc consts  --      1.4686                 1.5054                 1.4851
 IR Inten    --      8.1760                 6.6559                 6.1109

                     91                     92                     93
                      A                      A                      A
 Frequencies --   1547.1119              1554.5994              1597.6735
 Red. masses --      1.0793                 1.3941                 4.9933
 Frc consts  --      1.5220                 1.9851                 7.5096
 IR Inten    --      5.3484                 8.4001               154.5120

                     94                     95                     96
                      A                      A                      A
 Frequencies --   1755.9495              3014.7394              3023.6711
 Red. masses --      8.1715                 1.0801                 1.0695
 Frc consts  --     14.8448                 5.7837                 5.7608
 IR Inten    --    318.0423                13.1907                11.2432

                     97                     98                     99
                      A                      A                      A
 Frequencies --   3030.2262              3033.0533              3038.0589
 Red. masses --      1.0741                 1.0645                 1.0614
 Frc consts  --      5.8108                 5.7696                 5.7718
 IR Inten    --     30.6416                16.9738                27.9106

                    100                    101                    102
                      A                      A                      A
 Frequencies --   3046.6145              3049.0589              3049.6584
 Red. masses --      1.0452                 1.0524                 1.0451
 Frc consts  --      5.7157                 5.7648                 5.7266
 IR Inten    --     14.3903                36.0093                24.8700

                    103                    104                    105
                      A                      A                      A
 Frequencies --   3072.9121              3077.2069              3078.4269
 Red. masses --      1.0331                 1.0953                 1.1004
 Frc consts  --      5.7479                 6.1106                 6.1442
 IR Inten    --     49.5539                72.5215                 9.4334

                    106                    107                    108
                      A                      A                      A
 Frequencies --   3081.8141              3086.6818              3090.0814
 Red. masses --      1.0970                 1.1013                 1.0935
 Frc consts  --      6.1386                 6.1822                 6.1520
 IR Inten    --     47.3281                41.1086                39.8202

                    109                    110                    111
                      A                      A                      A
 Frequencies --   3112.8388              3114.1989              3120.5976
 Red. masses --      1.1016                 1.0901                 1.1018
 Frc consts  --      6.2889                 6.2286                 6.3214
 IR Inten    --     46.4271                21.1039                41.5724

                    112                    113                    114
                      A                      A                      A
 Frequencies --   3122.3975              3142.1585              3152.9961
 Red. masses --      1.0844                 1.1048                 1.1034
 Frc consts  --      6.2288                 6.4265                 6.4628
 IR Inten    --     32.5274                13.6338                 7.9631

                    115                    116                    117
                      A                      A                      A
 Frequencies --   3169.6972              3287.4839              3546.4181
 Red. masses --      1.1053                 1.0982                 1.0740
 Frc consts  --      6.5426                 6.9929                 7.9588
 IR Inten    --      8.3691                 0.4039                 8.8366

 - Thermochemistry -
 -------------------
 Temperature   298.150 Kelvin.  Pressure   1.00000 Atm.
 Atom     1 has atomic number  6 and mass  12.00000

 Molecular mass:   249.18411 amu.
 Principal axes and moments of inertia in atomic units:
                           1         2         3
     Eigenvalues --  2896.906226990.913897602.72321
           X            0.99999   0.00242  -0.00342
           Y           -0.00213   0.99665   0.08177
           Z            0.00361  -0.08176   0.99665
 This molecule is an asymmetric top.
 Rotational symmetry number  1.
 Warning -- assumption of classical behavior for rotation
           may cause significant error
 Rotational temperatures (Kelvin)      0.02990     0.01239     0.01139
 Rotational constants (GHZ):           0.62299     0.25816     0.23738
 Zero-point vibrational energy     956821.1 (Joules/Mol)
                                  228.68574 (Kcal/Mol)
 Warning -- explicit consideration of  27 degrees of freedom as
           vibrations may cause significant error
 Vibrational temperatures:     28.79    51.43    72.65    80.40    96.59
          (Kelvin)            129.35   161.71   191.79   215.90   232.98
                              280.86   298.72   315.36   362.93   386.35
                              406.75   445.76   468.32   496.92   543.47
                              591.07   603.53   664.36   699.78   804.93
                              817.22   882.28   901.95   930.09   961.99
                              981.41  1066.64  1100.56  1131.78  1168.12
                             1179.14  1198.98  1201.73  1241.37  1289.43
                             1336.17  1367.35  1424.42  1474.48  1484.87
                             1499.32  1513.77  1527.58  1551.64  1559.22
                             1575.12  1580.51  1607.52  1619.02  1665.14
                             1672.48  1706.32  1714.65  1716.50  1788.49
                             1844.75  1861.12  1892.04  1901.89  1917.13
                             1933.57  1959.70  1970.01  1991.04  2000.54
                             2016.72  2017.81  2025.87  2032.79  2061.29
                             2070.37  2075.19  2120.01  2139.45  2162.27
                             2163.72  2164.86  2178.20  2181.57  2186.43
                             2191.48  2195.47  2198.16  2206.94  2210.60
                             2225.95  2236.72  2298.70  2526.42  4337.54
                             4350.39  4359.82  4363.89  4371.09  4383.40
                             4386.92  4387.78  4421.24  4427.41  4429.17
                             4434.04  4441.05  4445.94  4478.68  4480.64
                             4489.84  4492.43  4520.87  4536.46  4560.49
                             4729.96  5102.50

 Zero-point correction=                           0.364434 (Hartree/Particle)
 Thermal correction to Energy=                    0.382976
 Thermal correction to Enthalpy=                  0.383920
 Thermal correction to Gibbs Free Energy=         0.316284
 Sum of electronic and zero-point Energies=           -786.549585
 Sum of electronic and thermal Energies=              -786.531044
 Sum of electronic and thermal Enthalpies=            -786.530099
 Sum of electronic and thermal Free Energies=         -786.597735

                     E (Thermal)             CV                S
                      KCal/Mol        Cal/Mol-Kelvin    Cal/Mol-Kelvin
 Total                  240.321             69.593            142.350
 Electronic               0.000              0.000              0.000
 Translational            0.889              2.981             42.440
 Rotational               0.889              2.981             33.398
 Vibrational            238.543             63.631             66.513
 Vibration     1          0.593              1.986              6.633
 Vibration     2          0.594              1.982              5.482
 Vibration     3          0.595              1.977              4.798
 Vibration     4          0.596              1.975              4.598
 Vibration     5          0.598              1.970              4.236
 Vibration     6          0.602              1.956              3.662
 Vibration     7          0.607              1.939              3.227
 Vibration     8          0.613              1.920              2.898
 Vibration     9          0.618              1.903              2.671
 Vibration    10          0.622              1.889              2.527
 Vibration    11          0.636              1.847              2.178
 Vibration    12          0.641              1.829              2.065
 Vibration    13          0.647              1.812              1.966
 Vibration    14          0.664              1.759              1.715
 Vibration    15          0.673              1.731              1.606
 Vibration    16          0.682              1.706              1.517
 Vibration    17          0.699              1.655              1.363
 Vibration    18          0.710              1.624              1.282
 Vibration    19          0.724              1.585              1.187
 Vibration    20          0.748              1.518              1.048
 Vibration    21          0.775              1.447              0.924
 Vibration    22          0.782              1.428              0.894
 Vibration    23          0.819              1.335              0.761
 Vibration    24          0.842              1.280              0.693
 Vibration    25          0.915              1.119              0.525
 Vibration    26          0.924              1.100              0.508
 Vibration    27          0.973              1.004              0.427

                           ! Non-Optimized Parameters !
 Normal termination of Gaussian 16 at Fri Dec 11 21:31:09 2020.

 ----------------------------------------------------------------------
 # B3LYP/6-311++G(d,p) empiricaldispersion=gd3bj scf=xqc pop=npa geom=c
 heck
 ----------------------------------------------------------------------

 --------------------------------------
 CID_54406300_JID_8731_Energie_neutraal
 --------------------------------------
 Structure from the checkpoint file:  "JID_8731.chk"
 Charge =  0 Multiplicity = 1

 SCF Done:  E(RB3LYP) =  -787.130489746     A.U. after   16 cycles
 Normal termination of Gaussian 16 at Fri Dec 11 21:40:03 2020.

 ----------------------------------------------------------------------
 # B3LYP/6-311++G(d,p) empiricaldispersion=gd3bj scf=xqc pop=npa geom=c
 heck
 ----------------------------------------------------------------------

 ------------------------------------
 CID_54406300_JID_8731_Energie_kation
 ------------------------------------
 Structure from the checkpoint file:  "JID_8731.chk"
 Charge =  1 Multiplicity = 2

 SCF Done:  E(UB3LYP) =  -786.819804809     A.U. after   33 cycles
 SCF Done:  E(UB3LYP) =  -786.819818656     a.u. after    5 cycles
 Normal termination of Gaussian 16 at Fri Dec 11 23:37:10 2020.
 Gaussian 16:  ES64L-G16RevA.03 25-Dec-2016

 ----------------------------------------------------------------------
 # B3LYP/6-311++G(d,p) empiricaldispersion=gd3bj scf=xqc pop=npa geom=c
 heck
 ----------------------------------------------------------------------

 -----------------------------------
 CID_54406300_JID_8731_Energie_anion
 -----------------------------------
 Structure from the checkpoint file:  "JID_8731.chk"
 Charge = -1 Multiplicity = 2

                         Standard orientation:
 ---------------------------------------------------------------------
 Center     Atomic      Atomic             Coordinates (Angstroms)
 Number     Number       Type             X           Y           Z
 ---------------------------------------------------------------------
      1          6           0       -2.968433   -2.779623   -0.681954
      2          6           0       -2.493440   -1.638522    0.222286
      3          6           0       -1.649490   -0.576418   -0.507344
      4          6           0       -2.374214    0.094394   -1.690991
      5          6           0       -3.513031    1.015411   -1.234262
      6          6           0       -2.990634    2.093663   -0.275975
      7          6           0       -2.237061    1.479667    0.911123
      8          6           0       -1.125385    0.535133    0.439835
      9          7           0       -0.408005    0.007483    1.607126
     10          6           0        0.769153   -0.715383    1.503267
     11          8           0        0.970723   -1.705513    2.203108
     12          6           0        1.787663   -0.221528    0.551734
     13          6           0        2.684250   -1.057529   -0.099413
     14          7           0        3.518278   -0.266576   -0.805702
     15          7           0        3.245481    1.053175   -0.639351
     16          6           0        2.193898    1.095926    0.181194
     17          6           0        1.651941    2.417376    0.636785
     18          6           0        4.603705   -0.660886   -1.679908
     19          1           0       -3.691695   -2.437863   -1.429984
     20          1           0       -3.451397   -3.567193   -0.093498
     21          1           0       -2.124924   -3.233199   -1.216748
     22          1           0       -3.364015   -1.176107    0.704804
     23          1           0       -1.884359   -2.066554    1.027480
     24          1           0       -0.762823   -1.092658   -0.903696
     25          1           0       -1.641822    0.692782   -2.251999
     26          1           0       -2.747205   -0.662689   -2.389052
     27          1           0       -4.293002    0.425708   -0.733789
     28          1           0       -3.989039    1.483212   -2.104549
     29          1           0       -3.813611    2.721112    0.086614
     30          1           0       -2.308268    2.758521   -0.825390
     31          1           0       -2.942475    0.928648    1.549081
     32          1           0       -1.794827    2.262525    1.537929
     33          1           0       -0.411906    1.125837   -0.138445
     34          1           0       -1.014503   -0.432629    2.293254
     35          1           0        2.767713   -2.134195   -0.088703
     36          1           0        2.469947    3.129947    0.774297
     37          1           0        0.961463    2.849824   -0.098307
     38          1           0        1.108858    2.306638    1.578735
     39          1           0        4.372076   -0.398825   -2.716652
     40          1           0        5.520119   -0.147203   -1.379235
     41          1           0        4.746099   -1.740199   -1.599763
 ---------------------------------------------------------------------

 SCF Done:  E(UB3LYP) =  -787.119980495     A.U. after   33 cycles
 SCF Done:  E(UB3LYP) =  -787.119980494     a.u. after    1 cycles

 The electronic state is 2-A.
 Alpha  occ. eigenvalues --  -19.00190 -14.30860 -14.24153 -14.23983 -10.18839
 Alpha  occ. eigenvalues --  -10.12445 -10.12290 -10.12204 -10.11845 -10.08712
 Alpha  occ. eigenvalues --  -10.08523 -10.08502 -10.08410 -10.08041 -10.07959
 Alpha  occ. eigenvalues --  -10.07620 -10.07550 -10.07512  -0.96726  -0.94952
 Alpha  occ. eigenvalues --   -0.83727  -0.76705  -0.74603  -0.70899  -0.69356
 Alpha  occ. eigenvalues --   -0.65859  -0.65427  -0.63649  -0.60371  -0.55358
 Alpha  occ. eigenvalues --   -0.54651  -0.52959  -0.51185  -0.48150  -0.47543
 Alpha  occ. eigenvalues --   -0.45188  -0.43371  -0.41590  -0.39642  -0.39087
 Alpha  occ. eigenvalues --   -0.38739  -0.37324  -0.35756  -0.35117  -0.34562
 Alpha  occ. eigenvalues --   -0.34108  -0.33911  -0.33257  -0.32351  -0.31774
 Alpha  occ. eigenvalues --   -0.31197  -0.30153  -0.29885  -0.29555  -0.29146
 Alpha  occ. eigenvalues --   -0.28602  -0.27349  -0.26377  -0.25910  -0.24991
 Alpha  occ. eigenvalues --   -0.22901  -0.22695  -0.21853  -0.21610  -0.18198
 Alpha  occ. eigenvalues --   -0.16761  -0.16271  -0.15720   0.03791
 Alpha virt. eigenvalues --    0.05162   0.06263   0.06517   0.06847   0.07313
 Alpha virt. eigenvalues --    0.08024   0.08226   0.08858   0.09118   0.09418
 Alpha virt. eigenvalues --    0.09777   0.10147   0.10715   0.11389   0.11743

  Beta  occ. eigenvalues --  -19.00186 -14.30855 -14.24151 -14.23969 -10.18839
  Beta  occ. eigenvalues --  -10.12433 -10.12234 -10.12203 -10.11843 -10.08712
  Beta  occ. eigenvalues --  -10.08519 -10.08492 -10.08400 -10.08034 -10.07937
  Beta  occ. eigenvalues --  -10.07601 -10.07536 -10.07494  -0.96713  -0.94946
  Beta  occ. eigenvalues --   -0.83721  -0.76683  -0.74582  -0.70884  -0.69333
  Beta  occ. eigenvalues --   -0.65823  -0.65401  -0.63621  -0.60337  -0.55321
  Beta  occ. eigenvalues --   -0.54613  -0.52928  -0.51143  -0.48122  -0.47524
  Beta  occ. eigenvalues --   -0.45148  -0.43328  -0.41557  -0.39614  -0.39056
  Beta  occ. eigenvalues --   -0.38720  -0.37308  -0.35726  -0.35092  -0.34536
  Beta  occ. eigenvalues --   -0.34088  -0.33882  -0.33224  -0.32331  -0.31751
  Beta  occ. eigenvalues --   -0.31173  -0.30130  -0.29854  -0.29533  -0.29126
  Beta  occ. eigenvalues --   -0.28580  -0.27320  -0.26355  -0.25882  -0.24965
  Beta  occ. eigenvalues --   -0.22879  -0.22668  -0.21827  -0.21582  -0.18188
  Beta  occ. eigenvalues --   -0.16736  -0.16255  -0.15708
  Beta virt. eigenvalues --    0.05716   0.06430   0.06439   0.06753   0.07194
  Beta virt. eigenvalues --    0.07655   0.08203   0.08819   0.09068   0.09328
  Beta virt. eigenvalues --    0.09661   0.10233   0.10422   0.11214   0.11426

 Mulliken charges and spin densities:
               1          2
     1  C    0.078688  -0.764973
     2  C   -0.650300   0.348935
     3  C    0.669839  -0.481200
     4  C   -0.287808  -0.085373
     5  C    0.369372  -0.944915
     6  C   -0.146254  -0.211258
     7  C   -0.292946   0.212226
     8  C   -0.460746   0.268206
     9  N    0.031712   0.017360
    10  C   -0.912038   0.115697
    11  O   -0.283584   0.003766
    12  C    1.039022  -0.589905
    13  C   -0.428880   0.385909
    14  N    0.128502   0.035098
    15  N   -0.268833   0.177212
    16  C   -0.254030   0.220589
    17  C   -0.184716  -0.464348
    18  C    1.436482  -1.721440
    19  H    0.026369   0.112429
    20  H    0.024117   0.107691
    21  H   -0.124230   0.274091
    22  H   -0.000703   0.161804
    23  H    0.255542  -0.093069
    24  H    0.320375  -0.066838
    25  H   -0.226604   0.379472
    26  H   -0.041341   0.215576
    27  H    0.074309   0.047983
    28  H   -0.324523   0.508122
    29  H   -0.409377   0.596135
    30  H    0.031103   0.102234
    31  H   -0.027733   0.160873
    32  H    0.036510   0.149754
    33  H    0.848337  -0.808484
    34  H    0.264185   0.044356
    35  H   -0.212856   0.439897
    36  H    0.068462   0.115638
    37  H   -0.084488   0.256250
    38  H    0.157827   0.018563
    39  H   -0.418481   0.611774
    40  H   -0.190891   0.362298
    41  H   -0.629394   0.781867
 Sum of Mulliken charges =  -1.00000   1.00000

 Dipole moment (field-independent basis, Debye):
    X=             -2.9054    Y=              1.2647    Z=              4.0684  Tot=              5.1568
 Quadrupole moment (field-independent basis, Debye-Ang):
   XX=           -206.8650   YY=           -162.8080   ZZ=           -160.2916
   XY=             18.0991   XZ=              6.2210   YZ=              1.9838

 Summary of Natural Population Analysis:

                                       Natural Population
                Natural  -----------------------------------------------
    Atom  No    Charge         Core      Valence    Rydberg      Total
 -----------------------------------------------------------------------
      C    1   -0.28304      0.99967     2.27917    0.00420     3.28304
      C    2   -0.19669      0.99961     2.18970    0.00738     3.19669
      C    3   -0.11335      0.99957     2.10253    0.01124     3.11335
      C    4   -0.19169      0.99961     2.18235    0.00973     3.19169
      C    5   -0.19119      0.99963     2.18319    0.00838     3.19119
      C    6   -0.18883      0.99963     2.18044    0.00877     3.18883
      C    7   -0.19177      0.99961     2.18222    0.00995     3.19177
      C    8   -0.01130      0.99954     1.99953    0.01223     3.01130
      N    9   -0.32339      0.99968     2.81411    0.00960     3.82339
      C   10    0.34010      0.99962     1.63841    0.02187     2.65990
      O   11   -0.31799      0.99988     3.31292    0.00519     4.31799
      C   12   -0.12995      0.99941     2.11999    0.01054     3.12995
      C   13    0.02731      0.99951     1.96111    0.01207     2.97269
      N   14   -0.09785      0.99966     2.58616    0.01202     3.59785
      N   15   -0.15905      0.99969     2.64788    0.01147     3.65905
      C   16    0.08878      0.99957     1.89809    0.01356     2.91122
      C   17   -0.30348      0.99963     2.29905    0.00481     3.30348
      C   18   -0.17111      0.99963     2.16305    0.00843     3.17111
      H   19    0.09652      0.00000     0.40247    0.00100     0.40348
      H   20    0.09769      0.00000     0.40151    0.00080     0.40231
      H   21    0.09832      0.00000     0.40068    0.00100     0.40168
      H   22    0.09339      0.00000     0.40525    0.00136     0.40661
      H   23    0.10038      0.00000     0.39834    0.00128     0.39962
      H   24    0.10141      0.00000     0.39642    0.00217     0.39859
      H   25    0.09835      0.00000     0.40032    0.00132     0.40165
      H   26    0.10245      0.00000     0.39648    0.00107     0.39755
      H   27    0.09303      0.00000     0.40565    0.00132     0.40697
      H   28    0.10155      0.00000     0.39726    0.00118     0.39845
      H   29    0.10077      0.00000     0.39805    0.00118     0.39923
      H   30    0.09404      0.00000     0.40454    0.00142     0.40596
      H   31    0.09339      0.00000     0.40528    0.00133     0.40661
      H   32    0.10328      0.00000     0.39568    0.00104     0.39672
      H   33    0.10286      0.00000     0.39412    0.00302     0.39714
      H   34    0.18792      0.00000     0.30981    0.00227     0.31208
      H   35    0.11224      0.00000     0.38670    0.00106     0.38776
      H   36    0.10941      0.00000     0.38972    0.00087     0.39059
      H   37    0.10652      0.00000     0.39219    0.00128     0.39348
      H   38    0.10911      0.00000     0.38984    0.00105     0.39089
      H   39    0.10458      0.00000     0.39333    0.00208     0.39542
      H   40    0.10276      0.00000     0.39585    0.00139     0.39724
      H   41    0.10449      0.00000     0.39289    0.00262     0.39551
 =======================================================================
   * Total *    0.00000     17.99314    49.79229    0.21457    68.00000

 Normal termination of Gaussian 16 at Sat Dec 12 00:02:03 2020.
