 Gaussian 16, Revision A.03,

 -----------------------------------------------------------
 # opt freq B3LYP/6-31G(d) empiricaldispersion=gd3bj scf=xqc
 -----------------------------------------------------------

 ------------------------------
 CID_79197205_JID_1290_neutraal
 ------------------------------
 Symbolic Z-matrix:
 Charge =  0 Multiplicity = 1

 SCF Done:  E(RB3LYP) =  -484.370030450     A.U. after   13 cycles
 SCF Done:  E(RB3LYP) =  -484.374900001     A.U. after   11 cycles
 SCF Done:  E(RB3LYP) =  -484.374427752     A.U. after   11 cycles
 SCF Done:  E(RB3LYP) =  -484.375277104     A.U. after   11 cycles
 SCF Done:  E(RB3LYP) =  -484.375902605     A.U. after   11 cycles
 SCF Done:  E(RB3LYP) =  -484.376048179     A.U. after   10 cycles
 SCF Done:  E(RB3LYP) =  -484.376076922     A.U. after   10 cycles
 SCF Done:  E(RB3LYP) =  -484.376097453     A.U. after   10 cycles
 SCF Done:  E(RB3LYP) =  -484.376114421     A.U. after   11 cycles
 SCF Done:  E(RB3LYP) =  -484.376138618     A.U. after   10 cycles
 SCF Done:  E(RB3LYP) =  -484.376360120     A.U. after   10 cycles
 SCF Done:  E(RB3LYP) =  -484.376361206     A.U. after   10 cycles
 SCF Done:  E(RB3LYP) =  -484.376364742     A.U. after   10 cycles
 SCF Done:  E(RB3LYP) =  -484.376364748     A.U. after    8 cycles
 SCF Done:  E(RB3LYP) =  -484.376364848     A.U. after    7 cycles
 SCF Done:  E(RB3LYP) =  -484.376364850     A.U. after    7 cycles
 Optimization completed.
    -- Stationary point found.
 Normal termination of Gaussian 16 at Tue Dec  8 20:17:37 2020.

 --------------------------------------------------------------------
 #N Geom=AllCheck Guess=TCheck SCRF=Check GenChk RB3LYP/6-31G(d) Freq
 --------------------------------------------------------------------

 Structure from the checkpoint file:  "JID_1290.chk"
 ------------------------------
 CID_79197205_JID_1290_neutraal
 ------------------------------
 Charge =  0 Multiplicity = 1

 SCF Done:  E(RB3LYP) =  -484.376364850     A.U. after    1 cycles

  Exact polarizability: 108.529   0.777 110.274  -2.924  -6.508  95.692
 Approx polarizability: 135.483   1.876 153.264  -6.226 -17.677 145.764

                      1                      2                      3
                      A                      A                      A
 Frequencies --     42.3651                74.5901               103.2107
 Red. masses --      2.6785                 2.2138                 1.9726
 Frc consts  --      0.0028                 0.0073                 0.0124
 IR Inten    --      0.1588                 0.1568                 2.9811

                      4                      5                      6
                      A                      A                      A
 Frequencies --    136.8827               150.6061               160.6547
 Red. masses --      1.3989                 1.8540                 2.3179
 Frc consts  --      0.0154                 0.0248                 0.0352
 IR Inten    --      0.0717                 1.7193                 0.8238

                      7                      8                      9
                      A                      A                      A
 Frequencies --    200.3854               206.8819               227.3844
 Red. masses --      1.3871                 1.6624                 1.7331
 Frc consts  --      0.0328                 0.0419                 0.0528
 IR Inten    --      0.0791                 1.0684                 1.7447

                     10                     11                     12
                      A                      A                      A
 Frequencies --    267.6969               289.5505               302.7371
 Red. masses --      1.3255                 2.6942                 2.3872
 Frc consts  --      0.0560                 0.1331                 0.1289
 IR Inten    --      0.2984                 0.4834                 4.6059

                     13                     14                     15
                      A                      A                      A
 Frequencies --    310.3294               346.8249               358.7284
 Red. masses --      2.2393                 1.4496                 1.6187
 Frc consts  --      0.1271                 0.1027                 0.1227
 IR Inten    --      2.8800                 0.6464                 0.5999

                     16                     17                     18
                      A                      A                      A
 Frequencies --    380.3108               405.5832               436.0301
 Red. masses --      3.0287                 2.5887                 2.6541
 Frc consts  --      0.2581                 0.2509                 0.2973
 IR Inten    --      0.0971                 0.4171                 6.1041

                     19                     20                     21
                      A                      A                      A
 Frequencies --    452.3225               518.1480               572.6259
 Red. masses --      3.1342                 2.8065                 2.9669
 Frc consts  --      0.3778                 0.4439                 0.5732
 IR Inten    --      5.0119                 2.7739                15.0441

                     22                     23                     24
                      A                      A                      A
 Frequencies --    618.1021               709.2696               787.4618
 Red. masses --      2.3815                 1.2475                 1.7028
 Frc consts  --      0.5361                 0.3697                 0.6221
 IR Inten    --      2.7635                 1.0816                28.4212

                     25                     26                     27
                      A                      A                      A
 Frequencies --    794.0900               841.0739               899.9496
 Red. masses --      2.3583                 2.5402                 2.2018
 Frc consts  --      0.8762                 1.0587                 1.0507
 IR Inten    --     10.9924                40.6138                 1.7805

                     28                     29                     30
                      A                      A                      A
 Frequencies --    924.6138               934.4249               980.0440
 Red. masses --      1.3564                 1.5694                 1.7193
 Frc consts  --      0.6832                 0.8074                 0.9730
 IR Inten    --     33.5636                 1.0395                 3.0885

                     31                     32                     33
                      A                      A                      A
 Frequencies --    993.8726              1019.2418              1040.9378
 Red. masses --      2.2587                 1.3881                 1.6131
 Frc consts  --      1.3145                 0.8497                 1.0299
 IR Inten    --      4.9089                 1.5163                 1.5614

                     34                     35                     36
                      A                      A                      A
 Frequencies --   1051.2138              1090.5370              1125.3772
 Red. masses --      1.4882                 1.4689                 4.5573
 Frc consts  --      0.9689                 1.0293                 3.4006
 IR Inten    --     10.2057                 3.3001                48.2900

                     37                     38                     39
                      A                      A                      A
 Frequencies --   1146.5424              1175.0801              1184.3421
 Red. masses --      1.9011                 1.6916                 2.0113
 Frc consts  --      1.4724                 1.3762                 1.6622
 IR Inten    --     18.3400                21.1143                65.9046

                     40                     41                     42
                      A                      A                      A
 Frequencies --   1191.7381              1207.5994              1221.0560
 Red. masses --      1.4822                 2.2120                 1.6508
 Frc consts  --      1.2403                 1.9005                 1.4502
 IR Inten    --     12.5850                18.2865                 6.3485

                     43                     44                     45
                      A                      A                      A
 Frequencies --   1226.1925              1294.5901              1318.2627
 Red. masses --      2.2342                 2.8859                 3.0071
 Frc consts  --      1.9792                 2.8497                 3.0789
 IR Inten    --    108.7549                14.6967                 1.4774

                     46                     47                     48
                      A                      A                      A
 Frequencies --   1365.6704              1377.1837              1421.9919
 Red. masses --      1.3299                 1.2934                 1.2829
 Frc consts  --      1.4614                 1.4453                 1.5284
 IR Inten    --      2.7561                11.5142                13.8308

                     49                     50                     51
                      A                      A                      A
 Frequencies --   1438.6884              1443.0476              1476.0087
 Red. masses --      1.2499                 1.2153                 1.2164
 Frc consts  --      1.5243                 1.4911                 1.5613
 IR Inten    --     13.8621                 8.1466                 6.2383

                     52                     53                     54
                      A                      A                      A
 Frequencies --   1484.1224              1500.8356              1501.3937
 Red. masses --      1.1771                 1.0653                 1.1513
 Frc consts  --      1.5275                 1.4138                 1.5291
 IR Inten    --      0.2678                 0.3947                 9.2202

                     55                     56                     57
                      A                      A                      A
 Frequencies --   1506.5764              1515.7283              1517.6038
 Red. masses --      1.1379                 1.0553                 1.0525
 Frc consts  --      1.5217                 1.4284                 1.4282
 IR Inten    --      7.8950                 2.1213                 6.2610

                     58                     59                     60
                      A                      A                      A
 Frequencies --   1520.4298              1523.4849              1530.5267
 Red. masses --      1.0563                 1.0612                 1.0622
 Frc consts  --      1.4387                 1.4512                 1.4660
 IR Inten    --      2.9116                 8.4736                 0.9811

                     61                     62                     63
                      A                      A                      A
 Frequencies --   1541.5678              1546.6982              1548.5014
 Red. masses --      1.0495                 1.0528                 1.0538
 Frc consts  --      1.4694                 1.4839                 1.4888
 IR Inten    --      5.6544                 3.0543                 7.5433

                     64                     65                     66
                      A                      A                      A
 Frequencies --   1559.5576              1735.4028              2945.8175
 Red. masses --      1.0717                 4.9265                 1.0820
 Frc consts  --      1.5358                 8.7415                 5.5322
 IR Inten    --     11.6475                 6.5621                38.3145

                     67                     68                     69
                      A                      A                      A
 Frequencies --   2963.3697              3007.1556              3052.4716
 Red. masses --      1.0608                 1.0390                 1.0405
 Frc consts  --      5.4884                 5.5360                 5.7122
 IR Inten    --     94.2906                59.3358                 4.1990

                     70                     71                     72
                      A                      A                      A
 Frequencies --   3059.5018              3062.3562              3065.8344
 Red. masses --      1.0814                 1.0409                 1.0442
 Frc consts  --      5.9642                 5.7514                 5.7830
 IR Inten    --     61.2928                11.9239                36.9205

                     73                     74                     75
                      A                      A                      A
 Frequencies --   3088.5238              3117.6640              3119.8270
 Red. masses --      1.0720                 1.1005                 1.0995
 Frc consts  --      6.0251                 6.3022                 6.3053
 IR Inten    --     40.9301                18.5190                38.1144

                     76                     77                     78
                      A                      A                      A
 Frequencies --   3128.1078              3129.0896              3131.2048
 Red. masses --      1.1026                 1.0993                 1.1014
 Frc consts  --      6.3566                 6.3414                 6.3623
 IR Inten    --     17.7516                30.1971                74.8126

                     79                     80                     81
                      A                      A                      A
 Frequencies --   3132.5267              3133.9580              3151.4433
 Red. masses --      1.1023                 1.1012                 1.1028
 Frc consts  --      6.3727                 6.3725                 6.4532
 IR Inten    --      9.0461                 5.0110                13.6890

                     82                     83                     84
                      A                      A                      A
 Frequencies --   3161.2921              3242.8135              3536.3176
 Red. masses --      1.0610                 1.1150                 1.0730
 Frc consts  --      6.2471                 6.9084                 7.9056
 IR Inten    --     12.9613                17.3126                 0.9637

 - Thermochemistry -
 -------------------
 Temperature   298.150 Kelvin.  Pressure   1.00000 Atm.
 Atom     1 has atomic number  6 and mass  12.00000

 Molecular mass:   157.14666 amu.
 Principal axes and moments of inertia in atomic units:
                           1         2         3
     Eigenvalues --  1280.542602089.862932590.07107
           X            0.99996  -0.00393   0.00824
           Y            0.00373   0.99971   0.02371
           Z           -0.00833  -0.02368   0.99968
 This molecule is an asymmetric top.
 Rotational symmetry number  1.
 Warning -- assumption of classical behavior for rotation
           may cause significant error
 Rotational temperatures (Kelvin)      0.06764     0.04144     0.03344
 Rotational constants (GHZ):           1.40936     0.86357     0.69679
 Zero-point vibrational energy     717781.9 (Joules/Mol)
                                  171.55398 (Kcal/Mol)
 Warning -- explicit consideration of  22 degrees of freedom as
           vibrations may cause significant error
 Vibrational temperatures:     60.95   107.32   148.50   196.94   216.69
          (Kelvin)            231.15   288.31   297.66   327.16   385.16
                              416.60   435.57   446.49   499.00   516.13
                              547.18   583.54   627.35   650.79   745.50
                              823.88   889.31  1020.48  1132.98  1142.52
                             1210.12  1294.83  1330.31  1344.43  1410.06
                             1429.96  1466.46  1497.68  1512.46  1569.04
                             1619.17  1649.62  1690.68  1704.00  1714.65
                             1737.47  1756.83  1764.22  1862.63  1896.69
                             1964.90  1981.46  2045.93  2069.95  2076.22
                             2123.65  2135.32  2159.37  2160.17  2167.63
                             2180.79  2183.49  2187.56  2191.95  2202.09
                             2217.97  2225.35  2227.95  2243.86  2496.86
                             4238.37  4263.63  4326.63  4391.83  4401.94
                             4406.05  4411.05  4443.70  4485.62  4488.74
                             4500.65  4502.06  4505.11  4507.01  4509.07
                             4534.22  4548.39  4665.69  5087.97

 Zero-point correction=                           0.273389 (Hartree/Particle)
 Thermal correction to Energy=                    0.287248
 Thermal correction to Enthalpy=                  0.288192
 Thermal correction to Gibbs Free Energy=         0.234099
 Sum of electronic and zero-point Energies=           -484.102976
 Sum of electronic and thermal Energies=              -484.089117
 Sum of electronic and thermal Enthalpies=            -484.088173
 Sum of electronic and thermal Free Energies=         -484.142266

                     E (Thermal)             CV                S
                      KCal/Mol        Cal/Mol-Kelvin    Cal/Mol-Kelvin
 Total                  180.251             51.721            113.848
 Electronic               0.000              0.000              0.000
 Translational            0.889              2.981             41.065
 Rotational               0.889              2.981             30.317
 Vibrational            178.473             45.759             42.466
 Vibration     1          0.595              1.980              5.145
 Vibration     2          0.599              1.966              4.028
 Vibration     3          0.605              1.947              3.393
 Vibration     4          0.614              1.916              2.847
 Vibration     5          0.618              1.902              2.665
 Vibration     6          0.622              1.891              2.542
 Vibration     7          0.638              1.839              2.130
 Vibration     8          0.641              1.830              2.071
 Vibration     9          0.651              1.799              1.900
 Vibration    10          0.673              1.732              1.611
 Vibration    11          0.686              1.693              1.477
 Vibration    12          0.694              1.669              1.402
 Vibration    13          0.699              1.654              1.361
 Vibration    14          0.725              1.582              1.181
 Vibration    15          0.734              1.557              1.128
 Vibration    16          0.750              1.512              1.038
 Vibration    17          0.771              1.458              0.942
 Vibration    18          0.796              1.392              0.839
 Vibration    19          0.811              1.356              0.789
 Vibration    20          0.873              1.210              0.614
 Vibration    21          0.929              1.090              0.499
 Vibration    22          0.978              0.994              0.420

 Optimization completed.
    -- Stationary point found.
 Normal termination of Gaussian 16 at Tue Dec  8 20:24:51 2020.

 ----------------------------------------------------------------------
 # B3LYP/6-311++G(d,p) empiricaldispersion=gd3bj scf=xqc pop=npa geom=c
 heck
 ----------------------------------------------------------------------

 --------------------------------------
 CID_79197205_JID_1290_Energie_neutraal
 --------------------------------------
 Structure from the checkpoint file:  "JID_1290.chk"
 Charge =  0 Multiplicity = 1

 SCF Done:  E(RB3LYP) =  -484.520322171     A.U. after   14 cycles
 Normal termination of Gaussian 16 at Tue Dec  8 20:29:30 2020.

 ----------------------------------------------------------------------
 # B3LYP/6-311++G(d,p) empiricaldispersion=gd3bj scf=xqc pop=npa geom=c
 heck
 ----------------------------------------------------------------------

 ------------------------------------
 CID_79197205_JID_1290_Energie_kation
 ------------------------------------
 Structure from the checkpoint file:  "JID_1290.chk"
 Charge =  1 Multiplicity = 2

 SCF Done:  E(UB3LYP) =  -484.215637139     A.U. after   27 cycles
 Normal termination of Gaussian 16 at Tue Dec  8 20:37:49 2020.
 Gaussian 16:  ES64L-G16RevA.03 25-Dec-2016

 ----------------------------------------------------------------------
 # B3LYP/6-311++G(d,p) empiricaldispersion=gd3bj scf=xqc pop=npa geom=c
 heck
 ----------------------------------------------------------------------

 -----------------------------------
 CID_79197205_JID_1290_Energie_anion
 -----------------------------------
 Structure from the checkpoint file:  "JID_1290.chk"
 Charge = -1 Multiplicity = 2

                         Standard orientation:
 ---------------------------------------------------------------------
 Center     Atomic      Atomic             Coordinates (Angstroms)
 Number     Number       Type             X           Y           Z
 ---------------------------------------------------------------------
      1          6           0       -1.818217    1.395473    1.177733
      2          6           0       -1.071210    1.144717   -0.110305
      3          6           0       -0.889873    2.117303   -1.007590
      4          6           0       -0.528817   -0.255125   -0.386541
      5          6           0        0.932374   -0.469713    0.125927
      6          6           0        1.086782   -0.153804    1.615964
      7          6           0        1.397714   -1.907781   -0.163878
      8          8           0        1.685425    0.423405   -0.710859
      9          6           0        3.007907    0.723065   -0.323983
     10          7           0       -1.436583   -1.267103    0.161973
     11          6           0       -2.678279   -1.370804   -0.600774
     12          1           0       -2.179811    2.427844    1.214553
     13          1           0       -1.189989    1.223315    2.057332
     14          1           0       -2.673333    0.720916    1.284959
     15          1           0       -0.357224    1.940526   -1.936944
     16          1           0       -1.250078    3.128093   -0.831840
     17          1           0       -0.436820   -0.356461   -1.483233
     18          1           0        0.315609   -0.685435    2.180314
     19          1           0        2.065222   -0.469524    1.993154
     20          1           0        0.976569    0.918076    1.798968
     21          1           0        1.158816   -2.192711   -1.194100
     22          1           0        2.482165   -1.983591   -0.036316
     23          1           0        0.952391   -2.634536    0.524383
     24          1           0        3.052396    1.302988    0.607947
     25          1           0        3.634122   -0.174072   -0.204621
     26          1           0        3.428669    1.329670   -1.130361
     27          1           0       -0.978130   -2.172569    0.133678
     28          1           0       -2.521326   -1.568891   -1.676892
     29          1           0       -3.294142   -2.174386   -0.184310
     30          1           0       -3.242721   -0.436762   -0.522918
 ---------------------------------------------------------------------

 SCF Done:  E(UB3LYP) =  -484.503876245     A.U. after   32 cycles

 The electronic state is 2-A.
 Alpha  occ. eigenvalues --  -19.01335 -14.19445 -10.12777 -10.10191 -10.09547
 Alpha  occ. eigenvalues --  -10.08287 -10.07559 -10.05893 -10.05324 -10.05255
 Alpha  occ. eigenvalues --  -10.05183  -0.92794  -0.80813  -0.70017  -0.67707
 Alpha  occ. eigenvalues --   -0.60112  -0.58694  -0.57994  -0.57833  -0.52894
 Alpha  occ. eigenvalues --   -0.45843  -0.41939  -0.39896  -0.38824  -0.36672
 Alpha  occ. eigenvalues --   -0.35064  -0.34856  -0.33460  -0.31811  -0.30908
 Alpha  occ. eigenvalues --   -0.30384  -0.30195  -0.29230  -0.28868  -0.27819
 Alpha  occ. eigenvalues --   -0.26977  -0.25647  -0.25240  -0.23909  -0.22972
 Alpha  occ. eigenvalues --   -0.19977  -0.15368  -0.14547  -0.12915   0.04687
 Alpha virt. eigenvalues --    0.06825   0.07421   0.08174   0.08896   0.09331
 Alpha virt. eigenvalues --    0.09817   0.10160   0.10282   0.11094   0.12140
 Alpha virt. eigenvalues --    0.12287   0.12992   0.13137   0.13245   0.14083

  Beta  occ. eigenvalues --  -19.01331 -14.19426 -10.12771 -10.10151 -10.09543
  Beta  occ. eigenvalues --  -10.08256 -10.07559 -10.05875 -10.05279 -10.05248
  Beta  occ. eigenvalues --  -10.05154  -0.92785  -0.80787  -0.69998  -0.67681
  Beta  occ. eigenvalues --   -0.60067  -0.58628  -0.57931  -0.57799  -0.52831
  Beta  occ. eigenvalues --   -0.45783  -0.41912  -0.39859  -0.38779  -0.36645
  Beta  occ. eigenvalues --   -0.35035  -0.34825  -0.33418  -0.31774  -0.30873
  Beta  occ. eigenvalues --   -0.30353  -0.30156  -0.29203  -0.28824  -0.27785
  Beta  occ. eigenvalues --   -0.26949  -0.25618  -0.25210  -0.23881  -0.22951
  Beta  occ. eigenvalues --   -0.19952  -0.15351  -0.14533  -0.12882
  Beta virt. eigenvalues --    0.06871   0.07703   0.08076   0.08565   0.09528
  Beta virt. eigenvalues --    0.09781   0.10355   0.10479   0.10615   0.11598
  Beta virt. eigenvalues --    0.12664   0.12791   0.13278   0.13505   0.13624

 Mulliken charges and spin densities:
               1          2
     1  C   -0.372317  -0.248743
     2  C   -0.503488   1.167411
     3  C   -0.481602  -0.284084
     4  C    1.822202  -1.725472
     5  C   -3.364220   2.855402
     6  C    0.890972  -1.494811
     7  C    1.932732  -2.447463
     8  O   -0.058720   0.027760
     9  C    1.069556  -1.275146
    10  N   -0.317144   0.236910
    11  C    0.556256  -0.926580
    12  H   -0.128478   0.255957
    13  H   -0.037279   0.186739
    14  H    0.050940   0.092881
    15  H    0.030127   0.102044
    16  H   -0.020844   0.125052
    17  H    0.279457  -0.055709
    18  H    0.063082   0.126314
    19  H   -0.303355   0.488224
    20  H    0.047814   0.123729
    21  H   -0.276573   0.458406
    22  H   -0.136040   0.274982
    23  H   -0.468147   0.610511
    24  H   -0.375717   0.520229
    25  H   -0.373744   0.504670
    26  H   -0.094557   0.232896
    27  H    0.150816   0.087275
    28  H   -0.186605   0.309487
    29  H   -0.419695   0.566922
    30  H    0.024571   0.104206
 Sum of Mulliken charges =  -1.00000   1.00000

 Dipole moment (field-independent basis, Debye):
    X=             -2.6252    Y=              3.5383    Z=             -1.0644  Tot=              4.5326
 Quadrupole moment (field-independent basis, Debye-Ang):
   XX=           -131.7462   YY=           -118.9723   ZZ=           -105.4092
   XY=             -2.5285   XZ=             -3.0562   YZ=             -1.3608

 Summary of Natural Population Analysis:

                                       Natural Population
                Natural  -----------------------------------------------
    Atom  No    Charge         Core      Valence    Rydberg      Total
 -----------------------------------------------------------------------
      C    1   -0.30125      0.99960     2.29546    0.00619     3.30125
      C    2   -0.00043      0.99950     1.98900    0.01193     3.00043
      C    3   -0.18943      0.99947     2.18230    0.00767     3.18943
      C    4   -0.02477      0.99947     2.00863    0.01666     3.02477
      C    5    0.14324      0.99951     1.83905    0.01820     2.85676
      C    6   -0.30869      0.99960     2.30184    0.00725     3.30869
      C    7   -0.30336      0.99960     2.29541    0.00835     3.30336
      O    8   -0.31041      0.99987     3.29929    0.01125     4.31041
      C    9   -0.09682      0.99959     2.08780    0.00944     3.09682
      N   10   -0.34353      0.99973     2.83198    0.01182     3.84353
      C   11   -0.17739      0.99966     2.16913    0.00860     3.17739
      H   12    0.09686      0.00000     0.40210    0.00104     0.40314
      H   13    0.10545      0.00000     0.39322    0.00133     0.39455
      H   14    0.10696      0.00000     0.39179    0.00125     0.39304
      H   15    0.09752      0.00000     0.40132    0.00116     0.40248
      H   16    0.08832      0.00000     0.41062    0.00105     0.41168
      H   17    0.09122      0.00000     0.40615    0.00263     0.40878
      H   18    0.11070      0.00000     0.38776    0.00154     0.38930
      H   19    0.10421      0.00000     0.39441    0.00138     0.39579
      H   20    0.10420      0.00000     0.39455    0.00125     0.39580
      H   21    0.10358      0.00000     0.39490    0.00152     0.39642
      H   22    0.10732      0.00000     0.39108    0.00161     0.39268
      H   23    0.10095      0.00000     0.39742    0.00163     0.39905
      H   24    0.08046      0.00000     0.41793    0.00161     0.41954
      H   25    0.07987      0.00000     0.41826    0.00187     0.42013
      H   26    0.08926      0.00000     0.40972    0.00102     0.41074
      H   27    0.17888      0.00000     0.31706    0.00407     0.32112
      H   28    0.08019      0.00000     0.41835    0.00146     0.41981
      H   29    0.09575      0.00000     0.40320    0.00106     0.40425
      H   30    0.09116      0.00000     0.40769    0.00115     0.40884
 =======================================================================
   * Total *   -0.00000     10.99561    32.85741    0.14698    44.00000

 Normal termination of Gaussian 16 at Tue Dec  8 20:46:59 2020.
