 Gaussian 16, Revision A.03,

 -----------------------------------------------------------
 # opt freq B3LYP/6-31G(d) empiricaldispersion=gd3bj scf=xqc
 -----------------------------------------------------------

 -------------------------------
 CID_106664433_JID_4788_neutraal
 -------------------------------
 Symbolic Z-matrix:
 Charge =  0 Multiplicity = 1

 SCF Done:  E(RB3LYP) =  -599.948257645     A.U. after   14 cycles
 SCF Done:  E(RB3LYP) =  -599.952077414     A.U. after   12 cycles
 SCF Done:  E(RB3LYP) =  -599.951681441     A.U. after   12 cycles
 SCF Done:  E(RB3LYP) =  -599.950353072     A.U. after   12 cycles
 SCF Done:  E(RB3LYP) =  -599.949028857     A.U. after   12 cycles
 SCF Done:  E(RB3LYP) =  -599.952200809     A.U. after    9 cycles
 SCF Done:  E(RB3LYP) =  -599.953046956     A.U. after   12 cycles
 SCF Done:  E(RB3LYP) =  -599.953228160     A.U. after   11 cycles
 SCF Done:  E(RB3LYP) =  -599.953258388     A.U. after   10 cycles
 SCF Done:  E(RB3LYP) =  -599.953262868     A.U. after    8 cycles
 SCF Done:  E(RB3LYP) =  -599.953263650     A.U. after    7 cycles
 SCF Done:  E(RB3LYP) =  -599.953264068     A.U. after    8 cycles
 SCF Done:  E(RB3LYP) =  -599.953264370     A.U. after    8 cycles
 SCF Done:  E(RB3LYP) =  -599.953264632     A.U. after    8 cycles
 SCF Done:  E(RB3LYP) =  -599.953264702     A.U. after    7 cycles
 Optimization completed.
    -- Stationary point found.
 Normal termination of Gaussian 16 at Thu Dec 10 10:45:10 2020.

 --------------------------------------------------------------------
 #N Geom=AllCheck Guess=TCheck SCRF=Check GenChk RB3LYP/6-31G(d) Freq
 --------------------------------------------------------------------

 Structure from the checkpoint file:  "JID_4788.chk"
 -------------------------------
 CID_106664433_JID_4788_neutraal
 -------------------------------
 Charge =  0 Multiplicity = 1

 SCF Done:  E(RB3LYP) =  -599.953264702     A.U. after    1 cycles

  Exact polarizability: 145.121   5.364 122.990   1.349   1.140 110.872
 Approx polarizability: 193.568  15.342 180.152   5.126   4.924 170.637

                      1                      2                      3
                      A                      A                      A
 Frequencies --     27.8843               100.7626               129.5489
 Red. masses --      3.2439                 3.8398                 4.6304
 Frc consts  --      0.0015                 0.0230                 0.0458
 IR Inten    --      0.5481                 2.9782                 4.0347

                      4                      5                      6
                      A                      A                      A
 Frequencies --    146.8517               183.3905               210.0775
 Red. masses --      3.0106                 1.6950                 2.3141
 Frc consts  --      0.0383                 0.0336                 0.0602
 IR Inten    --      2.2600                 1.7381                 0.5047

                      7                      8                      9
                      A                      A                      A
 Frequencies --    221.5373               225.4434               236.0688
 Red. masses --      2.2043                 1.6554                 1.2276
 Frc consts  --      0.0637                 0.0496                 0.0403
 IR Inten    --      0.3283                 0.6650                 0.4035

                     10                     11                     12
                      A                      A                      A
 Frequencies --    244.3955               247.4757               260.9480
 Red. masses --      1.4014                 1.3007                 1.2491
 Frc consts  --      0.0493                 0.0469                 0.0501
 IR Inten    --      0.1038                 0.2906                 0.4588

                     13                     14                     15
                      A                      A                      A
 Frequencies --    282.9769               295.2794               319.3050
 Red. masses --      1.8997                 1.6968                 2.6232
 Frc consts  --      0.0896                 0.0872                 0.1576
 IR Inten    --      0.1907                 0.5168                 1.3139

                     16                     17                     18
                      A                      A                      A
 Frequencies --    345.2508               365.7599               379.3239
 Red. masses --      2.4385                 2.4017                 2.5410
 Frc consts  --      0.1713                 0.1893                 0.2154
 IR Inten    --      1.0176                 0.3889                 6.0206

                     19                     20                     21
                      A                      A                      A
 Frequencies --    390.6845               399.9107               422.4369
 Red. masses --      2.0736                 2.2507                 1.6250
 Frc consts  --      0.1865                 0.2121                 0.1709
 IR Inten    --     16.5715                19.1368                84.4007

                     22                     23                     24
                      A                      A                      A
 Frequencies --    440.5904               477.0175               507.8495
 Red. masses --      2.2350                 3.2069                 2.9651
 Frc consts  --      0.2556                 0.4299                 0.4506
 IR Inten    --      3.0570                 0.8344                 5.5970

                     25                     26                     27
                      A                      A                      A
 Frequencies --    529.0517               556.6581               604.1988
 Red. masses --      3.3808                 3.3825                 4.3575
 Frc consts  --      0.5575                 0.6175                 0.9372
 IR Inten    --      2.1744                 7.9768                 0.7951

                     28                     29                     30
                      A                      A                      A
 Frequencies --    638.6451               664.9096               784.8876
 Red. masses --      4.5202                 3.8619                 3.4353
 Frc consts  --      1.0862                 1.0060                 1.2469
 IR Inten    --      0.8721                 3.1886                 0.3548

                     31                     32                     33
                      A                      A                      A
 Frequencies --    808.1101               863.7866               913.2049
 Red. masses --      2.6323                 2.0137                 1.7956
 Frc consts  --      1.0128                 0.8852                 0.8822
 IR Inten    --      0.4806                 7.9256                 2.8944

                     34                     35                     36
                      A                      A                      A
 Frequencies --    927.1190               942.6897               945.8320
 Red. masses --      2.3774                 1.6832                 2.0676
 Frc consts  --      1.2040                 0.8813                 1.0898
 IR Inten    --      3.7933                 3.8927                 0.7027

                     37                     38                     39
                      A                      A                      A
 Frequencies --    960.5381               967.3368               975.3994
 Red. masses --      1.6313                 1.5357                 1.6221
 Frc consts  --      0.8868                 0.8467                 0.9092
 IR Inten    --      1.4015                 0.6239                 4.6423

                     40                     41                     42
                      A                      A                      A
 Frequencies --    994.6224              1026.0898              1037.1263
 Red. masses --      1.8264                 1.4734                 1.7406
 Frc consts  --      1.0645                 0.9140                 1.1031
 IR Inten    --      9.8313                 1.4482                 1.2968

                     43                     44                     45
                      A                      A                      A
 Frequencies --   1047.5588              1072.1105              1099.4821
 Red. masses --      1.6328                 2.0183                 1.5111
 Frc consts  --      1.0557                 1.3668                 1.0763
 IR Inten    --     17.8073                46.1038                 8.5992

                     46                     47                     48
                      A                      A                      A
 Frequencies --   1124.1798              1152.8138              1184.5598
 Red. masses --      2.3744                 1.8028                 3.0882
 Frc consts  --      1.7680                 1.4116                 2.5531
 IR Inten    --      0.8094                 2.0841                 4.0275

                     49                     50                     51
                      A                      A                      A
 Frequencies --   1191.4685              1217.0115              1241.5418
 Red. masses --      2.0162                 2.0498                 2.2792
 Frc consts  --      1.6863                 1.7887                 2.0699
 IR Inten    --      1.3937                14.1772                 9.8321

                     52                     53                     54
                      A                      A                      A
 Frequencies --   1250.8351              1252.5332              1279.7867
 Red. masses --      2.5534                 2.5564                 1.9907
 Frc consts  --      2.3538                 2.3629                 1.9210
 IR Inten    --      4.6153                12.9590                 7.6794

                     55                     56                     57
                      A                      A                      A
 Frequencies --   1316.8027              1324.3045              1361.0578
 Red. masses --      1.3948                 1.8224                 1.4625
 Frc consts  --      1.4249                 1.8830                 1.5963
 IR Inten    --      3.1487                 7.9928                33.2467

                     58                     59                     60
                      A                      A                      A
 Frequencies --   1376.8226              1386.4181              1415.5719
 Red. masses --      1.3500                 1.5418                 1.4481
 Frc consts  --      1.5078                 1.7461                 1.7097
 IR Inten    --      6.6089                19.6739                 8.8565

                     61                     62                     63
                      A                      A                      A
 Frequencies --   1424.2201              1432.9753              1446.1480
 Red. masses --      1.2033                 1.2599                 1.2356
 Frc consts  --      1.4381                 1.5243                 1.5224
 IR Inten    --      5.4803                 3.6229                13.3450

                     64                     65                     66
                      A                      A                      A
 Frequencies --   1450.4197              1456.3815              1504.7794
 Red. masses --      1.2218                 1.2095                 1.0726
 Frc consts  --      1.5144                 1.5115                 1.4309
 IR Inten    --      1.0220                 6.4110                 0.5466

                     67                     68                     69
                      A                      A                      A
 Frequencies --   1513.3755              1516.9346              1519.2916
 Red. masses --      1.0626                 1.0483                 1.0522
 Frc consts  --      1.4339                 1.4212                 1.4309
 IR Inten    --      1.1026                 0.1874                 0.9311

                     70                     71                     72
                      A                      A                      A
 Frequencies --   1522.0870              1526.9116              1531.0570
 Red. masses --      1.0571                 1.0489                 1.0504
 Frc consts  --      1.4429                 1.4408                 1.4507
 IR Inten    --      7.5108                12.6656                 2.9859

                     73                     74                     75
                      A                      A                      A
 Frequencies --   1535.6332              1535.8145              1541.2717
 Red. masses --      1.0573                 1.0742                 1.0548
 Frc consts  --      1.4691                 1.4929                 1.4763
 IR Inten    --      2.9650                 6.9026                 2.2806

                     76                     77                     78
                      A                      A                      A
 Frequencies --   1542.8093              1544.4699              2349.4085
 Red. masses --      1.0484                 1.0559                12.6946
 Frc consts  --      1.4703                 1.4840                41.2846
 IR Inten    --      6.5254                11.6072                11.3476

                     79                     80                     81
                      A                      A                      A
 Frequencies --   3034.3159              3037.1908              3046.9388
 Red. masses --      1.0480                 1.0503                 1.0405
 Frc consts  --      5.6850                 5.7085                 5.6913
 IR Inten    --     10.9122                29.0700                24.2944

                     82                     83                     84
                      A                      A                      A
 Frequencies --   3052.4732              3061.0113              3074.3010
 Red. masses --      1.0782                 1.0409                 1.0367
 Frc consts  --      5.9189                 5.7462                 5.7729
 IR Inten    --     23.5681                24.7998                 9.9743

                     85                     86                     87
                      A                      A                      A
 Frequencies --   3077.2752              3086.3928              3087.5273
 Red. masses --      1.0424                 1.0916                 1.0647
 Frc consts  --      5.8160                 6.1264                 5.9799
 IR Inten    --      7.3668                43.7486                 8.4729

                     88                     89                     90
                      A                      A                      A
 Frequencies --   3102.6336              3103.1639              3109.4599
 Red. masses --      1.1021                 1.1024                 1.1017
 Frc consts  --      6.2506                 6.2548                 6.2759
 IR Inten    --     41.6087                 5.5527                60.1618

                     91                     92                     93
                      A                      A                      A
 Frequencies --   3121.7494              3126.8676              3128.9796
 Red. masses --      1.0967                 1.1030                 1.1012
 Frc consts  --      6.2973                 6.3539                 6.3522
 IR Inten    --     45.4893                28.0134                22.4754

                     94                     95                     96
                      A                      A                      A
 Frequencies --   3139.2396              3144.0601              3145.7361
 Red. masses --      1.1022                 1.1016                 1.1016
 Frc consts  --      6.3998                 6.4159                 6.4227
 IR Inten    --      0.3731                26.0565                29.8968

                     97                     98                     99
                      A                      A                      A
 Frequencies --   3174.7483              3178.2249              3703.9591
 Red. masses --      1.1022                 1.0984                 1.0657
 Frc consts  --      6.5454                 6.5372                 8.6141
 IR Inten    --      6.7537                14.3316                14.5699

 - Thermochemistry -
 -------------------
 Temperature   298.150 Kelvin.  Pressure   1.00000 Atm.
 Atom     1 has atomic number  6 and mass  12.00000

 Molecular mass:   195.16231 amu.
 Principal axes and moments of inertia in atomic units:
                           1         2         3
     Eigenvalues --  1610.641043473.286703750.58048
           X            0.99993  -0.00993  -0.00677
           Y            0.01000   0.99990   0.01025
           Z            0.00666  -0.01032   0.99992
 This molecule is an asymmetric top.
 Rotational symmetry number  1.
 Warning -- assumption of classical behavior for rotation
           may cause significant error
 Rotational temperatures (Kelvin)      0.05378     0.02494     0.02309
 Rotational constants (GHZ):           1.12051     0.51961     0.48119
 Zero-point vibrational energy     824981.1 (Joules/Mol)
                                  197.17522 (Kcal/Mol)
 Warning -- explicit consideration of  27 degrees of freedom as
           vibrations may cause significant error
 Vibrational temperatures:     40.12   144.97   186.39   211.29   263.86
          (Kelvin)            302.25   318.74   324.36   339.65   351.63
                              356.06   375.45   407.14   424.84   459.41
                              496.74   526.25   545.76   562.11   575.38
                              607.79   633.91   686.32   730.68   761.19
                              800.91   869.31   918.87   956.66  1129.28
                             1162.69  1242.80  1313.90  1333.92  1356.32
                             1360.84  1382.00  1391.78  1403.38  1431.04
                             1476.31  1492.19  1507.20  1542.53  1581.91
                             1617.44  1658.64  1704.32  1714.26  1751.01
                             1786.30  1799.67  1802.12  1841.33  1894.59
                             1905.38  1958.26  1980.94  1994.75  2036.69
                             2049.14  2061.73  2080.68  2086.83  2095.41
                             2165.04  2177.41  2182.53  2185.92  2189.94
                             2196.89  2202.85  2209.43  2209.69  2217.55
                             2219.76  2222.15  3380.27  4365.70  4369.84
                             4383.87  4391.83  4404.11  4423.23  4427.51
                             4440.63  4442.26  4464.00  4464.76  4473.82
                             4491.50  4498.87  4501.90  4516.67  4523.60
                             4526.01  4567.75  4572.76  5329.17

 Zero-point correction=                           0.314219 (Hartree/Particle)
 Thermal correction to Energy=                    0.329914
 Thermal correction to Enthalpy=                  0.330858
 Thermal correction to Gibbs Free Energy=         0.273417
 Sum of electronic and zero-point Energies=           -599.639046
 Sum of electronic and thermal Energies=              -599.623351
 Sum of electronic and thermal Enthalpies=            -599.622407
 Sum of electronic and thermal Free Energies=         -599.679848

                     E (Thermal)             CV                S
                      KCal/Mol        Cal/Mol-Kelvin    Cal/Mol-Kelvin
 Total                  207.024             61.964            120.895
 Electronic               0.000              0.000              0.000
 Translational            0.889              2.981             41.711
 Rotational               0.889              2.981             31.418
 Vibrational            205.247             56.002             47.766
 Vibration     1          0.593              1.984              5.975
 Vibration     2          0.604              1.949              3.440
 Vibration     3          0.612              1.924              2.953
 Vibration     4          0.617              1.906              2.713
 Vibration     5          0.631              1.862              2.294
 Vibration     6          0.642              1.825              2.043
 Vibration     7          0.648              1.808              1.946
 Vibration     8          0.650              1.802              1.915
 Vibration     9          0.655              1.786              1.832
 Vibration    10          0.660              1.772              1.771
 Vibration    11          0.661              1.767              1.748
 Vibration    12          0.669              1.744              1.655
 Vibration    13          0.682              1.705              1.516
 Vibration    14          0.689              1.683              1.444
 Vibration    15          0.705              1.637              1.314
 Vibration    16          0.724              1.585              1.188
 Vibration    17          0.739              1.543              1.098
 Vibration    18          0.749              1.514              1.042
 Vibration    19          0.758              1.490              0.998
 Vibration    20          0.766              1.470              0.963
 Vibration    21          0.785              1.421              0.884
 Vibration    22          0.800              1.382              0.825
 Vibration    23          0.834              1.301              0.718
 Vibration    24          0.863              1.233              0.639
 Vibration    25          0.884              1.186              0.589
 Vibration    26          0.912              1.125              0.531
 Vibration    27          0.963              1.023              0.442

 Optimization completed.
    -- Stationary point found.
 Normal termination of Gaussian 16 at Thu Dec 10 10:58:02 2020.

 ----------------------------------------------------------------------
 # B3LYP/6-311++G(d,p) empiricaldispersion=gd3bj scf=xqc pop=npa geom=c
 heck
 ----------------------------------------------------------------------

 ---------------------------------------
 CID_106664433_JID_4788_Energie_neutraal
 ---------------------------------------
 Structure from the checkpoint file:  "JID_4788.chk"
 Charge =  0 Multiplicity = 1

 SCF Done:  E(RB3LYP) =  -600.127147842     A.U. after   14 cycles
 Normal termination of Gaussian 16 at Thu Dec 10 11:04:28 2020.

 ----------------------------------------------------------------------
 # B3LYP/6-311++G(d,p) empiricaldispersion=gd3bj scf=xqc pop=npa geom=c
 heck
 ----------------------------------------------------------------------

 -------------------------------------
 CID_106664433_JID_4788_Energie_kation
 -------------------------------------
 Structure from the checkpoint file:  "JID_4788.chk"
 Charge =  1 Multiplicity = 2

 SCF Done:  E(UB3LYP) =  -599.775479144     A.U. after   23 cycles
 Normal termination of Gaussian 16 at Thu Dec 10 11:18:58 2020.
 Gaussian 16:  ES64L-G16RevA.03 25-Dec-2016

 ----------------------------------------------------------------------
 # B3LYP/6-311++G(d,p) empiricaldispersion=gd3bj scf=xqc pop=npa geom=c
 heck
 ----------------------------------------------------------------------

 ------------------------------------
 CID_106664433_JID_4788_Energie_anion
 ------------------------------------
 Structure from the checkpoint file:  "JID_4788.chk"
 Charge = -1 Multiplicity = 2

                         Standard orientation:
 ---------------------------------------------------------------------
 Center     Atomic      Atomic             Coordinates (Angstroms)
 Number     Number       Type             X           Y           Z
 ---------------------------------------------------------------------
      1          6           0        0.671758    2.345396   -0.629798
      2          6           0       -0.274086    1.330269    0.015829
      3          6           0       -1.520276    0.996911   -0.811694
      4          6           0       -2.200309   -0.157575   -0.044754
      5          6           0       -0.985567   -0.995376    0.433145
      6          6           0        0.253336   -0.062124    0.519860
      7          6           0        1.481897   -0.693530   -0.250015
      8          6           0        1.827672   -2.079386    0.352306
      9          6           0        1.268878   -0.841186   -1.770998
     10          6           0        2.658482    0.160599   -0.000625
     11          7           0        3.584708    0.813888    0.253307
     12          8           0        0.610072    0.031467    1.904478
     13          6           0       -3.133705   -0.972643   -0.945830
     14          6           0       -2.993884    0.372705    1.162495
     15          1           0        1.511168    2.604541    0.020560
     16          1           0        0.113546    3.266922   -0.831808
     17          1           0        1.088189    2.006730   -1.582481
     18          1           0       -0.629438    1.794306    0.943318
     19          1           0       -2.177974    1.865179   -0.937423
     20          1           0       -1.233935    0.661687   -1.817906
     21          1           0       -0.810409   -1.806460   -0.278301
     22          1           0       -1.152969   -1.459570    1.408748
     23          1           0        1.934006   -2.006742    1.435506
     24          1           0        1.036286   -2.798182    0.123709
     25          1           0        2.761781   -2.454014   -0.076436
     26          1           0        0.421974   -1.504312   -1.966765
     27          1           0        1.078301    0.112691   -2.263009
     28          1           0        2.156979   -1.287939   -2.228071
     29          1           0        1.335351    0.675269    1.979448
     30          1           0       -3.557854   -1.828740   -0.407316
     31          1           0       -3.968704   -0.358604   -1.304114
     32          1           0       -2.599507   -1.357166   -1.823367
     33          1           0       -2.353227    0.901189    1.874955
     34          1           0       -3.787628    1.057191    0.839893
     35          1           0       -3.464652   -0.457283    1.702352
 ---------------------------------------------------------------------

 SCF Done:  E(UB3LYP) =  -600.114791736     A.U. after   30 cycles

 The electronic state is 2-A.
 Alpha  occ. eigenvalues --  -19.03506 -14.22258 -10.14886 -10.13621 -10.12025
 Alpha  occ. eigenvalues --  -10.08409 -10.08133 -10.08008 -10.07803 -10.06780
 Alpha  occ. eigenvalues --  -10.06743 -10.06466 -10.05779 -10.05546  -0.94182
 Alpha  occ. eigenvalues --   -0.82209  -0.76113  -0.73057  -0.67803  -0.62958
 Alpha  occ. eigenvalues --   -0.60762  -0.58808  -0.58694  -0.56547  -0.52438
 Alpha  occ. eigenvalues --   -0.47871  -0.44155  -0.43772  -0.39660  -0.37990
 Alpha  occ. eigenvalues --   -0.35770  -0.35345  -0.34940  -0.33316  -0.32933
 Alpha  occ. eigenvalues --   -0.31368  -0.30928  -0.30846  -0.30546  -0.29794
 Alpha  occ. eigenvalues --   -0.29083  -0.27779  -0.27518  -0.27129  -0.26677
 Alpha  occ. eigenvalues --   -0.26104  -0.25122  -0.23941  -0.23714  -0.22633
 Alpha  occ. eigenvalues --   -0.21917  -0.21374  -0.21118  -0.18385   0.04315
 Alpha virt. eigenvalues --    0.06648   0.07227   0.07646   0.08851   0.09015
 Alpha virt. eigenvalues --    0.09480   0.09650   0.10131   0.10791   0.11186
 Alpha virt. eigenvalues --    0.11560   0.11749   0.12442   0.12654   0.12879

  Beta  occ. eigenvalues --  -19.03498 -14.22245 -10.14886 -10.13617 -10.12022
  Beta  occ. eigenvalues --  -10.08407 -10.08126 -10.07962 -10.07777 -10.06759
  Beta  occ. eigenvalues --  -10.06725 -10.06443 -10.05752 -10.05506  -0.94171
  Beta  occ. eigenvalues --   -0.82190  -0.76095  -0.73034  -0.67779  -0.62923
  Beta  occ. eigenvalues --   -0.60698  -0.58761  -0.58635  -0.56489  -0.52384
  Beta  occ. eigenvalues --   -0.47832  -0.44117  -0.43734  -0.39624  -0.37948
  Beta  occ. eigenvalues --   -0.35733  -0.35304  -0.34906  -0.33284  -0.32895
  Beta  occ. eigenvalues --   -0.31337  -0.30897  -0.30803  -0.30515  -0.29764
  Beta  occ. eigenvalues --   -0.29050  -0.27751  -0.27486  -0.27099  -0.26639
  Beta  occ. eigenvalues --   -0.26074  -0.25079  -0.23913  -0.23691  -0.22608
  Beta  occ. eigenvalues --   -0.21889  -0.21346  -0.21086  -0.18369
  Beta virt. eigenvalues --    0.06542   0.07560   0.07808   0.08211   0.09420
  Beta virt. eigenvalues --    0.09492   0.09823   0.10208   0.10482   0.10977
  Beta virt. eigenvalues --    0.11374   0.11948   0.12093   0.12707   0.13016

 Mulliken charges and spin densities:
               1          2
     1  C    0.237204  -0.901532
     2  C   -1.300852   1.542702
     3  C    1.172091  -1.864672
     4  C   -1.840360   2.582995
     5  C    0.498258  -0.853894
     6  C    1.148764  -1.772503
     7  C   -1.415378   2.685931
     8  C    0.731084  -1.238884
     9  C    1.021618  -1.753523
    10  C    0.076992  -0.664495
    11  N   -0.284743   0.031977
    12  O   -0.161105   0.026800
    13  C    0.290263  -0.917101
    14  C    0.401800  -1.129465
    15  H    0.101839   0.060218
    16  H   -0.165777   0.310121
    17  H    0.050549   0.102931
    18  H    0.163761   0.047559
    19  H   -0.304226   0.498265
    20  H    0.102539   0.066622
    21  H    0.446069  -0.286702
    22  H    0.132966   0.105323
    23  H    0.130433   0.056398
    24  H   -0.513958   0.690158
    25  H   -0.059557   0.228275
    26  H   -0.420319   0.601979
    27  H   -0.122801   0.262428
    28  H   -0.178571   0.365804
    29  H    0.188924   0.097330
    30  H   -0.264213   0.412270
    31  H   -0.263541   0.408321
    32  H   -0.345594   0.485233
    33  H   -0.019684   0.191860
    34  H   -0.155067   0.302483
    35  H   -0.079406   0.218787
 Sum of Mulliken charges =  -1.00000   1.00000

 Dipole moment (field-independent basis, Debye):
    X=              2.1882    Y=              1.7271    Z=              2.8442  Tot=              3.9825
 Quadrupole moment (field-independent basis, Debye-Ang):
   XX=           -161.3569   YY=           -136.6899   ZZ=           -130.4970
   XY=             -1.6404   XZ=             -1.7963   YZ=             -3.6800

 Summary of Natural Population Analysis:

                                       Natural Population
                Natural  -----------------------------------------------
    Atom  No    Charge         Core      Valence    Rydberg      Total
 -----------------------------------------------------------------------
      C    1   -0.28863      0.99964     2.28308    0.00591     3.28863
      C    2   -0.12278      0.99954     2.11200    0.01123     3.12278
      C    3   -0.18463      0.99957     2.17509    0.00996     3.18463
      C    4   -0.04734      0.99958     2.03444    0.01332     3.04734
      C    5   -0.19606      0.99954     2.18394    0.01257     3.19606
      C    6    0.15442      0.99947     1.82839    0.01771     2.84558
      C    7   -0.10100      0.99944     2.08666    0.01490     3.10100
      C    8   -0.27764      0.99963     2.27010    0.00790     3.27764
      C    9   -0.27934      0.99962     2.27179    0.00793     3.27934
      C   10    0.17048      0.99961     1.80742    0.02248     2.82952
      N   11   -0.19054      0.99979     2.67904    0.01171     3.69054
      O   12   -0.37748      0.99989     3.37109    0.00650     4.37748
      C   13   -0.28065      0.99962     2.27377    0.00725     3.28065
      C   14   -0.28282      0.99962     2.27634    0.00686     3.28282
      H   15    0.10444      0.00000     0.39453    0.00104     0.39556
      H   16    0.10299      0.00000     0.39619    0.00083     0.39701
      H   17    0.09777      0.00000     0.40116    0.00108     0.40223
      H   18    0.10366      0.00000     0.39434    0.00200     0.39634
      H   19    0.10370      0.00000     0.39498    0.00132     0.39630
      H   20    0.09927      0.00000     0.39892    0.00181     0.40073
      H   21    0.10459      0.00000     0.39335    0.00206     0.39541
      H   22    0.11251      0.00000     0.38605    0.00144     0.38749
      H   23    0.11099      0.00000     0.38776    0.00124     0.38901
      H   24    0.10699      0.00000     0.39190    0.00110     0.39301
      H   25    0.10350      0.00000     0.39535    0.00115     0.39650
      H   26    0.10932      0.00000     0.38864    0.00204     0.39068
      H   27    0.10504      0.00000     0.39318    0.00178     0.39496
      H   28    0.10626      0.00000     0.39225    0.00149     0.39374
      H   29    0.23083      0.00000     0.26663    0.00253     0.26917
      H   30    0.09990      0.00000     0.39885    0.00125     0.40010
      H   31    0.10096      0.00000     0.39768    0.00135     0.39904
      H   32    0.10105      0.00000     0.39731    0.00164     0.39895
      H   33    0.10072      0.00000     0.39816    0.00112     0.39928
      H   34    0.09980      0.00000     0.39919    0.00101     0.40020
      H   35    0.09969      0.00000     0.39936    0.00094     0.40031
 =======================================================================
   * Total *    0.00000     13.99457    39.81897    0.18646    54.00000

 Normal termination of Gaussian 16 at Thu Dec 10 11:35:50 2020.
