 Gaussian 16, Revision A.03,

 -----------------------------------------------------------
 # opt freq B3LYP/6-31G(d) empiricaldispersion=gd3bj scf=xqc
 -----------------------------------------------------------

 ------------------------------
 CID_66583266_JID_3703_neutraal
 ------------------------------
 Symbolic Z-matrix:
 Charge =  0 Multiplicity = 1

 SCF Done:  E(RB3LYP) =  -616.438561685     A.U. after   14 cycles
 SCF Done:  E(RB3LYP) =  -616.440959392     A.U. after   11 cycles
 SCF Done:  E(RB3LYP) =  -616.441137985     A.U. after   11 cycles
 SCF Done:  E(RB3LYP) =  -616.440972443     A.U. after   12 cycles
 SCF Done:  E(RB3LYP) =  -616.441266846     A.U. after   11 cycles
 SCF Done:  E(RB3LYP) =  -616.441314498     A.U. after   10 cycles
 SCF Done:  E(RB3LYP) =  -616.441385986     A.U. after   11 cycles
 SCF Done:  E(RB3LYP) =  -616.441408105     A.U. after   10 cycles
 SCF Done:  E(RB3LYP) =  -616.441423795     A.U. after    9 cycles
 SCF Done:  E(RB3LYP) =  -616.441425149     A.U. after    9 cycles
 SCF Done:  E(RB3LYP) =  -616.441425257     A.U. after    7 cycles
 SCF Done:  E(RB3LYP) =  -616.441425338     A.U. after    7 cycles
 SCF Done:  E(RB3LYP) =  -616.441425427     A.U. after    7 cycles
 SCF Done:  E(RB3LYP) =  -616.441425494     A.U. after    7 cycles
 SCF Done:  E(RB3LYP) =  -616.441425538     A.U. after    7 cycles
 Optimization completed.
    -- Stationary point found.
 Normal termination of Gaussian 16 at Mon Dec 14 16:32:20 2020.

 --------------------------------------------------------------------
 #N Geom=AllCheck Guess=TCheck SCRF=Check GenChk RB3LYP/6-31G(d) Freq
 --------------------------------------------------------------------

 Structure from the checkpoint file:  "JID_3703.chk"
 ------------------------------
 CID_66583266_JID_3703_neutraal
 ------------------------------
 Charge =  0 Multiplicity = 1

 SCF Done:  E(RB3LYP) =  -616.441425538     A.U. after    1 cycles

  Exact polarizability: 132.870   2.148  95.468  -1.707  -1.252  93.058
 Approx polarizability: 162.081   5.685 149.332  -4.005  -7.738 139.433

                      1                      2                      3
                      A                      A                      A
 Frequencies --     30.6995                46.2559                61.2868
 Red. masses --      9.2323                 2.7299                 4.7920
 Frc consts  --      0.0051                 0.0034                 0.0106
 IR Inten    --      0.4605                 1.1633                 0.1841

                      4                      5                      6
                      A                      A                      A
 Frequencies --    162.7054               183.2396               195.9976
 Red. masses --      4.1606                 2.8411                 2.9645
 Frc consts  --      0.0649                 0.0562                 0.0671
 IR Inten    --      0.5769                 0.3316                 0.6585

                      7                      8                      9
                      A                      A                      A
 Frequencies --    243.8529               253.8923               320.8353
 Red. masses --      2.8368                 2.7173                 2.7423
 Frc consts  --      0.0994                 0.1032                 0.1663
 IR Inten    --      0.1595                 0.2857                 3.9388

                     10                     11                     12
                      A                      A                      A
 Frequencies --    336.6764               401.9514               435.8127
 Red. masses --      2.8434                 2.0858                 2.2416
 Frc consts  --      0.1899                 0.1985                 0.2508
 IR Inten    --      1.3839                 0.4502                 2.1650

                     13                     14                     15
                      A                      A                      A
 Frequencies --    470.9932               493.6260               521.0448
 Red. masses --      3.3744                 4.1979                 2.7021
 Frc consts  --      0.4410                 0.6027                 0.4322
 IR Inten    --      1.1918                12.4441                 1.0012

                     16                     17                     18
                      A                      A                      A
 Frequencies --    587.2295               618.1387               634.6304
 Red. masses --      2.0684                 1.2333                 3.3039
 Frc consts  --      0.4202                 0.2777                 0.7840
 IR Inten    --      5.8794                75.5964                38.5252

                     19                     20                     21
                      A                      A                      A
 Frequencies --    661.2295               745.3187               771.7732
 Red. masses --      2.8016                 3.5384                 4.7333
 Frc consts  --      0.7217                 1.1581                 1.6611
 IR Inten    --     10.6917                 3.7250                38.4402

                     22                     23                     24
                      A                      A                      A
 Frequencies --    806.3492               825.8255               880.6021
 Red. masses --      1.4737                 2.4568                 1.7584
 Frc consts  --      0.5645                 0.9872                 0.8034
 IR Inten    --      2.1758                 2.7143                 5.1940

                     25                     26                     27
                      A                      A                      A
 Frequencies --    900.2226               918.8057               940.6998
 Red. masses --      1.8163                 2.5668                 2.2280
 Frc consts  --      0.8672                 1.2767                 1.1616
 IR Inten    --      3.7736                15.2229                 5.4764

                     28                     29                     30
                      A                      A                      A
 Frequencies --    953.3014               959.0739               969.0965
 Red. masses --      1.7285                 2.9488                 2.0193
 Frc consts  --      0.9255                 1.5981                 1.1173
 IR Inten    --      4.1192                 2.0628                 7.5647

                     31                     32                     33
                      A                      A                      A
 Frequencies --    993.4692              1030.0959              1037.4999
 Red. masses --      1.8215                 1.7275                 2.7164
 Frc consts  --      1.0592                 1.0800                 1.7228
 IR Inten    --      0.3790                 3.5003                35.8023

                     34                     35                     36
                      A                      A                      A
 Frequencies --   1049.7253              1076.0264              1090.4014
 Red. masses --      1.7892                 1.8038                 2.0953
 Frc consts  --      1.1616                 1.2305                 1.4678
 IR Inten    --      0.1659                 6.8772                 0.1531

                     37                     38                     39
                      A                      A                      A
 Frequencies --   1117.7591              1155.5915              1160.2433
 Red. masses --      5.7956                 2.2134                 1.3693
 Frc consts  --      4.2662                 1.7415                 1.0860
 IR Inten    --    205.2685                58.2423                 0.6858

                     40                     41                     42
                      A                      A                      A
 Frequencies --   1197.2123              1214.4726              1225.7532
 Red. masses --      1.7715                 1.6884                 1.4572
 Frc consts  --      1.4960                 1.4673                 1.2899
 IR Inten    --      5.4588                49.5660                11.6399

                     43                     44                     45
                      A                      A                      A
 Frequencies --   1226.7279              1266.2398              1295.6736
 Red. masses --      1.6610                 1.3000                 1.4499
 Frc consts  --      1.4727                 1.2281                 1.4341
 IR Inten    --     84.3483                 4.0604                 1.7886

                     46                     47                     48
                      A                      A                      A
 Frequencies --   1301.8850              1312.2444              1334.2234
 Red. masses --      1.3402                 1.4904                 1.3051
 Frc consts  --      1.3383                 1.5121                 1.3688
 IR Inten    --      1.1254                13.6248                 2.9391

                     49                     50                     51
                      A                      A                      A
 Frequencies --   1345.4232              1358.3137              1366.2905
 Red. masses --      1.3256                 1.3204                 1.6163
 Frc consts  --      1.4138                 1.4354                 1.7777
 IR Inten    --      0.3750                 1.2053                10.2441

                     52                     53                     54
                      A                      A                      A
 Frequencies --   1377.3241              1377.8437              1389.9933
 Red. masses --      2.5839                 1.5806                 1.3152
 Frc consts  --      2.8880                 1.7680                 1.4972
 IR Inten    --     43.3993                 2.3719                 0.1952

                     55                     56                     57
                      A                      A                      A
 Frequencies --   1395.7676              1407.8794              1418.5195
 Red. masses --      1.4527                 1.4268                 1.5033
 Frc consts  --      1.6675                 1.6662                 1.7823
 IR Inten    --      1.8523                 5.5392                 0.2335

                     58                     59                     60
                      A                      A                      A
 Frequencies --   1509.8610              1516.5444              1520.1891
 Red. masses --      1.0841                 1.0865                 1.0946
 Frc consts  --      1.4562                 1.4722                 1.4905
 IR Inten    --      0.4790                 6.9346                 3.3636

                     61                     62                     63
                      A                      A                      A
 Frequencies --   1523.7341              1532.2508              1536.9861
 Red. masses --      1.0892                 1.0934                 1.0953
 Frc consts  --      1.4900                 1.5124                 1.5245
 IR Inten    --      8.2374                 4.3872                 2.4677

                     64                     65                     66
                      A                      A                      A
 Frequencies --   1556.5078              1846.9416              2989.5063
 Red. masses --      1.0987                 9.4732                 1.0729
 Frc consts  --      1.5683                19.0394                 5.6493
 IR Inten    --      1.5988               321.2961                80.2791

                     67                     68                     69
                      A                      A                      A
 Frequencies --   3045.1206              3048.9155              3053.5264
 Red. masses --      1.0601                 1.0608                 1.0605
 Frc consts  --      5.7917                 5.8101                 5.8259
 IR Inten    --     11.9625                40.3524                25.2303

                     70                     71                     72
                      A                      A                      A
 Frequencies --   3056.0303              3060.5535              3066.6188
 Red. masses --      1.0621                 1.0694                 1.0621
 Frc consts  --      5.8445                 5.9018                 5.8849
 IR Inten    --     11.2041                 7.5798                21.0286

                     73                     74                     75
                      A                      A                      A
 Frequencies --   3072.0198              3083.8468              3087.3830
 Red. masses --      1.0872                 1.1024                 1.1026
 Frc consts  --      6.0452                 6.1768                 6.1924
 IR Inten    --      3.2471                48.9043                 9.1897

                     76                     77                     78
                      A                      A                      A
 Frequencies --   3095.7986              3100.7867              3104.0590
 Red. masses --      1.1048                 1.0917                 1.1007
 Frc consts  --      6.2387                 6.1841                 6.2487
 IR Inten    --      3.9834                59.3414                72.3742

                     79                     80                     81
                      A                      A                      A
 Frequencies --   3117.1237              3126.0483              3687.2266
 Red. masses --      1.0990                 1.1024                 1.0640
 Frc consts  --      6.2914                 6.3471                 8.5233
 IR Inten    --     31.3978                36.9431                50.6453

 - Thermochemistry -
 -------------------
 Temperature   298.150 Kelvin.  Pressure   1.00000 Atm.
 Atom     1 has atomic number  6 and mass  12.00000

 Molecular mass:   184.10994 amu.
 Principal axes and moments of inertia in atomic units:
                           1         2         3
     Eigenvalues --   857.309574419.308624512.29396
           X            0.99998   0.00613  -0.00154
           Y           -0.00595   0.99500   0.09965
           Z            0.00214  -0.09964   0.99502
 This molecule is an asymmetric top.
 Rotational symmetry number  1.
 Warning -- assumption of classical behavior for rotation
           may cause significant error
 Rotational temperatures (Kelvin)      0.10103     0.01960     0.01920
 Rotational constants (GHZ):           2.10512     0.40838     0.39996
 Zero-point vibrational energy     671053.3 (Joules/Mol)
                                  160.38558 (Kcal/Mol)
 Warning -- explicit consideration of  17 degrees of freedom as
           vibrations may cause significant error
 Vibrational temperatures:     44.17    66.55    88.18   234.10   263.64
          (Kelvin)            282.00   350.85   365.29   461.61   484.40
                              578.32   627.04   677.65   710.22   749.67
                              844.89   889.36   913.09   951.36  1072.35
                             1110.41  1160.16  1188.18  1266.99  1295.22
                             1321.96  1353.46  1371.59  1379.89  1394.31
                             1429.38  1482.08  1492.73  1510.32  1548.16
                             1568.84  1608.21  1662.64  1669.33  1722.52
                             1747.36  1763.59  1764.99  1821.84  1864.19
                             1873.12  1888.03  1919.65  1935.76  1954.31
                             1965.79  1981.66  1982.41  1999.89  2008.20
                             2025.62  2040.93  2172.35  2181.97  2187.21
                             2192.31  2204.57  2211.38  2239.47  2657.34
                             4301.23  4381.25  4386.71  4393.34  4396.95
                             4403.45  4412.18  4419.95  4436.97  4442.06
                             4454.16  4461.34  4466.05  4484.85  4497.69
                             5305.10

 Zero-point correction=                           0.255591 (Hartree/Particle)
 Thermal correction to Energy=                    0.267473
 Thermal correction to Enthalpy=                  0.268417
 Thermal correction to Gibbs Free Energy=         0.216493
 Sum of electronic and zero-point Energies=           -616.185835
 Sum of electronic and thermal Energies=              -616.173953
 Sum of electronic and thermal Enthalpies=            -616.173009
 Sum of electronic and thermal Free Energies=         -616.224933

                     E (Thermal)             CV                S
                      KCal/Mol        Cal/Mol-Kelvin    Cal/Mol-Kelvin
 Total                  167.842             46.471            109.283
 Electronic               0.000              0.000              0.000
 Translational            0.889              2.981             41.537
 Rotational               0.889              2.981             31.214
 Vibrational            166.064             40.510             36.532
 Vibration     1          0.594              1.984              5.784
 Vibration     2          0.595              1.979              4.971
 Vibration     3          0.597              1.973              4.415
 Vibration     4          0.623              1.888              2.518
 Vibration     5          0.631              1.863              2.295
 Vibration     6          0.636              1.845              2.170
 Vibration     7          0.659              1.773              1.775
 Vibration     8          0.665              1.756              1.703
 Vibration     9          0.706              1.634              1.306
 Vibration    10          0.717              1.602              1.228
 Vibration    11          0.768              1.466              0.956
 Vibration    12          0.796              1.392              0.840
 Vibration    13          0.828              1.314              0.735
 Vibration    14          0.849              1.264              0.674
 Vibration    15          0.876              1.203              0.608
 Vibration    16          0.944              1.059              0.472
 Vibration    17          0.978              0.994              0.419

                           ! Non-Optimized Parameters !
 Normal termination of Gaussian 16 at Mon Dec 14 16:40:22 2020.

 ----------------------------------------------------------------------
 # B3LYP/6-311++G(d,p) empiricaldispersion=gd3bj scf=xqc pop=npa geom=c
 heck
 ----------------------------------------------------------------------

 --------------------------------------
 CID_66583266_JID_3703_Energie_neutraal
 --------------------------------------
 Structure from the checkpoint file:  "JID_3703.chk"
 Charge =  0 Multiplicity = 1

 SCF Done:  E(RB3LYP) =  -616.624883343     A.U. after   13 cycles
 Normal termination of Gaussian 16 at Mon Dec 14 16:43:31 2020.

 ----------------------------------------------------------------------
 # B3LYP/6-311++G(d,p) empiricaldispersion=gd3bj scf=xqc pop=npa geom=c
 heck
 ----------------------------------------------------------------------

 ------------------------------------
 CID_66583266_JID_3703_Energie_kation
 ------------------------------------
 Structure from the checkpoint file:  "JID_3703.chk"
 Charge =  1 Multiplicity = 2

 SCF Done:  E(UB3LYP) =  -616.297979569     A.U. after   23 cycles
 Normal termination of Gaussian 16 at Mon Dec 14 16:51:30 2020.
 Gaussian 16:  ES64L-G16RevA.03 25-Dec-2016

 ----------------------------------------------------------------------
 # B3LYP/6-311++G(d,p) empiricaldispersion=gd3bj scf=xqc pop=npa geom=c
 heck
 ----------------------------------------------------------------------

 -----------------------------------
 CID_66583266_JID_3703_Energie_anion
 -----------------------------------
 Structure from the checkpoint file:  "JID_3703.chk"
 Charge = -1 Multiplicity = 2

                         Standard orientation:
 ---------------------------------------------------------------------
 Center     Atomic      Atomic             Coordinates (Angstroms)
 Number     Number       Type             X           Y           Z
 ---------------------------------------------------------------------
      1          6           0        3.196909    1.215618   -0.133050
      2          6           0        1.737298    1.054890   -0.578511
      3          6           0        1.307451   -0.285442    0.072035
      4          6           0        0.491824   -1.177339   -0.872195
      5          6           0       -0.916753   -0.625110   -1.117774
      6          6           0       -1.673717   -0.468199    0.216990
      7          6           0       -0.881595    0.441729    1.178070
      8          6           0        0.544089   -0.082613    1.389680
      9          6           0       -3.078788    0.046699    0.001486
     10          8           0       -4.101639   -0.533734    0.291086
     11          8           0       -3.089670    1.279722   -0.575153
     12          8           0        2.539594   -0.971351    0.395924
     13          6           0        3.655702   -0.240297   -0.101992
     14          1           0        3.788848    1.843435   -0.806051
     15          1           0        3.248727    1.647739    0.872756
     16          1           0        1.681308    0.981160   -1.671146
     17          1           0        1.103660    1.892139   -0.274410
     18          1           0        0.424364   -2.175475   -0.421302
     19          1           0        1.031018   -1.292174   -1.820148
     20          1           0       -1.472233   -1.292863   -1.786752
     21          1           0       -0.863137    0.350740   -1.615496
     22          1           0       -1.790318   -1.456296    0.675960
     23          1           0       -0.857267    1.455619    0.761728
     24          1           0       -1.400710    0.509945    2.141385
     25          1           0        0.514167   -1.049404    1.907556
     26          1           0        1.108659    0.602202    2.034067
     27          1           0       -4.030705    1.518463   -0.670155
     28          1           0        3.927424   -0.584885   -1.113442
     29          1           0        4.505391   -0.427062    0.562153
 ---------------------------------------------------------------------

 SCF Done:  E(UB3LYP) =  -616.611516159     A.U. after   32 cycles

 The electronic state is 2-A.
 Alpha  occ. eigenvalues --  -19.06754 -19.01816 -19.01783 -10.20631 -10.12648
 Alpha  occ. eigenvalues --  -10.11346 -10.09248 -10.07728 -10.07726 -10.07014
 Alpha  occ. eigenvalues --  -10.06927 -10.06906 -10.06872  -1.00932  -0.93629
 Alpha  occ. eigenvalues --   -0.92098  -0.74788  -0.68595  -0.67118  -0.65434
 Alpha  occ. eigenvalues --   -0.58892  -0.52985  -0.52765  -0.50266  -0.48709
 Alpha  occ. eigenvalues --   -0.44305  -0.40846  -0.39743  -0.39203  -0.38441
 Alpha  occ. eigenvalues --   -0.36071  -0.35879  -0.34533  -0.32621  -0.32459
 Alpha  occ. eigenvalues --   -0.31049  -0.30116  -0.29601  -0.28959  -0.26350
 Alpha  occ. eigenvalues --   -0.25757  -0.25437  -0.24796  -0.24148  -0.22651
 Alpha  occ. eigenvalues --   -0.22523  -0.21690  -0.21452  -0.18029  -0.15225
 Alpha  occ. eigenvalues --    0.04438
 Alpha virt. eigenvalues --    0.06278   0.07412   0.07767   0.08451   0.09244
 Alpha virt. eigenvalues --    0.09450   0.09598   0.10529   0.10824   0.11194
 Alpha virt. eigenvalues --    0.12473   0.12850   0.13502   0.13860   0.14437

  Beta  occ. eigenvalues --  -19.06698 -19.01805 -19.01782 -10.20627 -10.12649
  Beta  occ. eigenvalues --  -10.11323 -10.09238 -10.07712 -10.07710 -10.06984
  Beta  occ. eigenvalues --  -10.06903 -10.06894 -10.06860  -1.00863  -0.93622
  Beta  occ. eigenvalues --   -0.92040  -0.74762  -0.68559  -0.67084  -0.65405
  Beta  occ. eigenvalues --   -0.58841  -0.52915  -0.52720  -0.50188  -0.48635
  Beta  occ. eigenvalues --   -0.44270  -0.40800  -0.39715  -0.39172  -0.38395
  Beta  occ. eigenvalues --   -0.36042  -0.35847  -0.34505  -0.32579  -0.32422
  Beta  occ. eigenvalues --   -0.31017  -0.30083  -0.29574  -0.28926  -0.26315
  Beta  occ. eigenvalues --   -0.25727  -0.25402  -0.24764  -0.24111  -0.22618
  Beta  occ. eigenvalues --   -0.22492  -0.21658  -0.21434  -0.17985  -0.15208
  Beta virt. eigenvalues --    0.06750   0.07576   0.08053   0.08353   0.09138
  Beta virt. eigenvalues --    0.09421   0.09735   0.09961   0.10780   0.11125
  Beta virt. eigenvalues --    0.11707   0.12655   0.13102   0.13821   0.14079

 Mulliken charges and spin densities:
               1          2
     1  C    0.298988  -0.748733
     2  C    0.652929  -0.807020
     3  C   -1.529134   1.447544
     4  C    0.255489  -0.638571
     5  C   -0.019949  -0.366824
     6  C    0.702962  -0.383094
     7  C    0.130716  -0.524404
     8  C    0.010414  -0.474058
     9  C   -0.535952   0.194406
    10  O   -0.262916   0.003057
    11  O   -0.203445   0.070388
    12  O   -0.057583   0.018782
    13  C    0.810785  -0.958077
    14  H   -0.404564   0.573052
    15  H   -0.098258   0.236648
    16  H   -0.302596   0.491135
    17  H   -0.080910   0.231037
    18  H    0.050764   0.128449
    19  H   -0.040146   0.218488
    20  H   -0.157157   0.354750
    21  H    0.117402   0.074681
    22  H    0.248784  -0.037046
    23  H    0.169792   0.023167
    24  H   -0.076696   0.250774
    25  H    0.102447   0.077602
    26  H   -0.033836   0.212717
    27  H   -0.459964   0.759320
    28  H   -0.118611   0.243520
    29  H   -0.169755   0.328310
 Sum of Mulliken charges =  -1.00000   1.00000

 Dipole moment (field-independent basis, Debye):
    X=              1.1263    Y=             -3.1710    Z=              2.1828  Tot=              4.0111
 Quadrupole moment (field-independent basis, Debye-Ang):
   XX=           -167.8827   YY=           -115.1457   ZZ=           -112.6770
   XY=              2.3076   XZ=              0.6602   YZ=              3.9584

 Summary of Natural Population Analysis:

                                       Natural Population
                Natural  -----------------------------------------------
    Atom  No    Charge         Core      Valence    Rydberg      Total
 -----------------------------------------------------------------------
      C    1   -0.20271      0.99964     2.19496    0.00811     3.20271
      C    2   -0.20400      0.99958     2.19488    0.00953     3.20400
      C    3    0.14212      0.99950     1.84104    0.01735     2.85788
      C    4   -0.19600      0.99956     2.18549    0.01096     3.19600
      C    5   -0.18804      0.99961     2.17981    0.00863     3.18804
      C    6   -0.15329      0.99954     2.14268    0.01107     3.15329
      C    7   -0.18805      0.99961     2.17989    0.00855     3.18805
      C    8   -0.19700      0.99956     2.18651    0.01094     3.19700
      C    9    0.41514      0.99967     1.55916    0.02603     2.58486
      O   10   -0.30838      0.99987     3.30240    0.00612     4.30838
      O   11   -0.34686      0.99988     3.33978    0.00721     4.34686
      O   12   -0.31201      0.99988     3.30318    0.00896     4.31201
      C   13   -0.00702      0.99958     1.99467    0.01276     3.00702
      H   14    0.10519      0.00000     0.39294    0.00186     0.39481
      H   15    0.09662      0.00000     0.40194    0.00145     0.40338
      H   16    0.10159      0.00000     0.39672    0.00169     0.39841
      H   17    0.10702      0.00000     0.39156    0.00142     0.39298
      H   18    0.09904      0.00000     0.39961    0.00135     0.40096
      H   19    0.10407      0.00000     0.39469    0.00124     0.39593
      H   20    0.10204      0.00000     0.39699    0.00097     0.39796
      H   21    0.10478      0.00000     0.39327    0.00194     0.39522
      H   22    0.10533      0.00000     0.39313    0.00154     0.39467
      H   23    0.10412      0.00000     0.39394    0.00195     0.39588
      H   24    0.10213      0.00000     0.39694    0.00093     0.39787
      H   25    0.10031      0.00000     0.39841    0.00127     0.39969
      H   26    0.10399      0.00000     0.39476    0.00125     0.39601
      H   27    0.24445      0.00000     0.23747    0.01807     0.25555
      H   28    0.07688      0.00000     0.42156    0.00155     0.42312
      H   29    0.08854      0.00000     0.41022    0.00124     0.41146
 =======================================================================
   * Total *    0.00000     12.99546    36.81860    0.18594    50.00000

 Normal termination of Gaussian 16 at Mon Dec 14 17:02:39 2020.
