 Gaussian 16, Revision A.03,

 -----------------------------------------------------------
 # opt freq B3LYP/6-31G(d) empiricaldispersion=gd3bj scf=xqc
 -----------------------------------------------------------

 ------------------------------
 CID_79552860_JID_8328_neutraal
 ------------------------------
 Symbolic Z-matrix:
 Charge =  0 Multiplicity = 1

 SCF Done:  E(RB3LYP) =  -803.112672544     A.U. after   15 cycles
 SCF Done:  E(RB3LYP) =  -803.116214118     A.U. after   12 cycles
 SCF Done:  E(RB3LYP) =  -803.116520189     A.U. after   11 cycles
 SCF Done:  E(RB3LYP) =  -803.116623443     A.U. after   11 cycles
 SCF Done:  E(RB3LYP) =  -803.116679050     A.U. after   11 cycles
 SCF Done:  E(RB3LYP) =  -803.116713803     A.U. after   10 cycles
 SCF Done:  E(RB3LYP) =  -803.116764847     A.U. after   11 cycles
 SCF Done:  E(RB3LYP) =  -803.116846745     A.U. after   12 cycles
 SCF Done:  E(RB3LYP) =  -803.116908942     A.U. after   12 cycles
 SCF Done:  E(RB3LYP) =  -803.116940399     A.U. after   11 cycles
 SCF Done:  E(RB3LYP) =  -803.116975762     A.U. after    8 cycles
 SCF Done:  E(RB3LYP) =  -803.116976014     A.U. after    8 cycles
 SCF Done:  E(RB3LYP) =  -803.116976070     A.U. after    7 cycles
 SCF Done:  E(RB3LYP) =  -803.116976137     A.U. after    7 cycles
 SCF Done:  E(RB3LYP) =  -803.116976165     A.U. after    7 cycles
 Optimization completed.
    -- Stationary point found.
 Normal termination of Gaussian 16 at Fri Dec 11 20:04:49 2020.

 --------------------------------------------------------------------
 #N Geom=AllCheck Guess=TCheck SCRF=Check GenChk RB3LYP/6-31G(d) Freq
 --------------------------------------------------------------------

 Structure from the checkpoint file:  "JID_8328.chk"
 ------------------------------
 CID_79552860_JID_8328_neutraal
 ------------------------------
 Charge =  0 Multiplicity = 1

 SCF Done:  E(RB3LYP) =  -803.116976165     A.U. after    1 cycles

  Exact polarizability: 231.535  -1.673 160.703   3.251   4.629  92.059
 Approx polarizability: 305.681 -16.690 281.587   7.022  11.480 139.118

                      1                      2                      3
                      A                      A                      A
 Frequencies --      8.8566                34.6829                65.8528
 Red. masses --      3.4381                 4.8149                 4.7730
 Frc consts  --      0.0002                 0.0034                 0.0122
 IR Inten    --      0.2062                 0.0787                 0.1187

                      4                      5                      6
                      A                      A                      A
 Frequencies --     77.9804                84.1798               118.2936
 Red. masses --      6.7328                 1.6478                 4.3095
 Frc consts  --      0.0241                 0.0069                 0.0355
 IR Inten    --      0.1548                 0.0110                 0.0312

                      7                      8                      9
                      A                      A                      A
 Frequencies --    152.5264               212.2201               234.2803
 Red. masses --      3.7099                 2.7404                 4.2555
 Frc consts  --      0.0509                 0.0727                 0.1376
 IR Inten    --      0.1068                 0.3863                 0.6798

                     10                     11                     12
                      A                      A                      A
 Frequencies --    237.9457               249.3516               275.2505
 Red. masses --      1.2572                 2.7476                 4.5302
 Frc consts  --      0.0419                 0.1007                 0.2022
 IR Inten    --      0.2513                 0.1258                 1.5599

                     13                     14                     15
                      A                      A                      A
 Frequencies --    316.8974               352.6455               370.4228
 Red. masses --      3.3014                 3.5580                 1.1063
 Frc consts  --      0.1953                 0.2607                 0.0894
 IR Inten    --      3.7578                 3.6109               118.6227

                     16                     17                     18
                      A                      A                      A
 Frequencies --    379.5374               399.1245               429.0784
 Red. masses --      3.4167                 5.8448                 3.7215
 Frc consts  --      0.2900                 0.5486                 0.4037
 IR Inten    --      3.7846                 2.6008                 0.4085

                     19                     20                     21
                      A                      A                      A
 Frequencies --    460.6662               466.8104               531.3207
 Red. masses --      3.3960                 3.9011                 6.7958
 Frc consts  --      0.4246                 0.5009                 1.1303
 IR Inten    --      1.4220                 2.4313                 2.1776

                     22                     23                     24
                      A                      A                      A
 Frequencies --    562.7482               592.8418               642.6797
 Red. masses --      5.8268                 5.4775                 2.7459
 Frc consts  --      1.0872                 1.1343                 0.6682
 IR Inten    --      0.0184                 1.0373                 0.3606

                     25                     26                     27
                      A                      A                      A
 Frequencies --    692.4749               695.8333               707.0416
 Red. masses --      3.0992                 2.8921                 2.7834
 Frc consts  --      0.8756                 0.8250                 0.8198
 IR Inten    --      1.6879                 2.4406                 6.9458

                     28                     29                     30
                      A                      A                      A
 Frequencies --    734.1724               787.2370               813.7484
 Red. masses --      4.7044                 3.6247                 1.6781
 Frc consts  --      1.4940                 1.3235                 0.6547
 IR Inten    --     12.5542                31.8117                 5.7757

                     31                     32                     33
                      A                      A                      A
 Frequencies --    814.7453               828.0531               869.9882
 Red. masses --      1.7986                 1.6471                 2.9470
 Frc consts  --      0.7034                 0.6654                 1.3142
 IR Inten    --      4.2467                 0.4907                 7.0346

                     34                     35                     36
                      A                      A                      A
 Frequencies --    883.4544               896.4816               897.2419
 Red. masses --      1.5501                 4.6007                 3.2242
 Frc consts  --      0.7128                 2.1785                 1.5293
 IR Inten    --     16.0990                45.5607                16.1348

                     37                     38                     39
                      A                      A                      A
 Frequencies --    909.8833               938.8437               941.6173
 Red. masses --      1.4189                 6.2019                 1.9574
 Frc consts  --      0.6921                 3.2208                 1.0225
 IR Inten    --      0.2657                11.9016                 4.3041

                     40                     41                     42
                      A                      A                      A
 Frequencies --    957.6289               977.2983               997.1927
 Red. masses --      2.3245                 1.2671                 1.6294
 Frc consts  --      1.2559                 0.7130                 0.9546
 IR Inten    --      4.9283                 0.3131                 1.5711

                     43                     44                     45
                      A                      A                      A
 Frequencies --   1012.5672              1020.6951              1026.1832
 Red. masses --      5.2442                 4.6133                 3.5628
 Frc consts  --      3.1680                 2.8317                 2.2105
 IR Inten    --      0.3992                 6.7010                 0.2766

                     46                     47                     48
                      A                      A                      A
 Frequencies --   1056.2327              1064.1154              1073.6627
 Red. masses --      2.6904                 1.8678                 1.8421
 Frc consts  --      1.7684                 1.2461                 1.2511
 IR Inten    --      0.9377                 0.4809                 2.1636

                     49                     50                     51
                      A                      A                      A
 Frequencies --   1106.2918              1132.0040              1154.4401
 Red. masses --      1.7867                 1.9544                 2.1873
 Frc consts  --      1.2883                 1.4756                 1.7175
 IR Inten    --      5.5165                20.6296                17.1595

                     52                     53                     54
                      A                      A                      A
 Frequencies --   1189.8447              1197.5602              1215.9303
 Red. masses --      2.2559                 1.1333                 1.3243
 Frc consts  --      1.8817                 0.9576                 1.1536
 IR Inten    --      3.0892                10.0028               163.0069

                     55                     56                     57
                      A                      A                      A
 Frequencies --   1231.6745              1250.7101              1273.6987
 Red. masses --      1.5975                 1.4361                 1.1801
 Frc consts  --      1.4279                 1.3236                 1.1280
 IR Inten    --     13.0007                 0.7856                 0.8809

                     58                     59                     60
                      A                      A                      A
 Frequencies --   1282.7730              1290.2674              1314.7278
 Red. masses --      1.8505                 2.6661                 3.1191
 Frc consts  --      1.7941                 2.6150                 3.1766
 IR Inten    --      7.9549                86.9593                39.0481

                     61                     62                     63
                      A                      A                      A
 Frequencies --   1332.1737              1352.2914              1356.8086
 Red. masses --      1.3819                 1.3657                 1.3789
 Frc consts  --      1.4449                 1.4715                 1.4956
 IR Inten    --      5.5850                16.8741                 0.4155

                     64                     65                     66
                      A                      A                      A
 Frequencies --   1359.7076              1379.6958              1381.3102
 Red. masses --      1.5302                 4.5118                 1.7390
 Frc consts  --      1.6669                 5.0602                 1.9549
 IR Inten    --      0.7835                26.8912                17.8215

                     67                     68                     69
                      A                      A                      A
 Frequencies --   1410.8323              1442.5921              1486.1257
 Red. masses --      5.0656                 1.2378                 3.0277
 Frc consts  --      5.9407                 1.5177                 3.9399
 IR Inten    --    148.0044                12.3393                45.3693

                     70                     71                     72
                      A                      A                      A
 Frequencies --   1515.8906              1519.6901              1521.9949
 Red. masses --      1.0757                 1.0727                 1.0686
 Frc consts  --      1.4564                 1.4596                 1.4584
 IR Inten    --      0.1742                 0.7186                 6.2602

                     73                     74                     75
                      A                      A                      A
 Frequencies --   1534.1860              1537.2693              1545.6081
 Red. masses --      1.0671                 1.2897                 2.2568
 Frc consts  --      1.4799                 1.7957                 3.1765
 IR Inten    --      0.3926                20.1554                43.3140

                     76                     77                     78
                      A                      A                      A
 Frequencies --   1552.9769              1579.9366              1619.4945
 Red. masses --      1.1052                 5.0207                 9.8654
 Frc consts  --      1.5704                 7.3841                15.2448
 IR Inten    --      0.0948                42.2241               153.5654

                     79                     80                     81
                      A                      A                      A
 Frequencies --   1664.8875              1670.0790              3061.3370
 Red. masses --      6.3529                 5.9719                 1.0612
 Frc consts  --     10.3752                 9.8137                 5.8598
 IR Inten    --     27.6211                44.0134                27.4998

                     82                     83                     84
                      A                      A                      A
 Frequencies --   3063.9219              3066.1828              3075.1940
 Red. masses --      1.0386                 1.0632                 1.0613
 Frc consts  --      5.7445                 5.8894                 5.9134
 IR Inten    --      9.7391                18.3627                52.0664

                     85                     86                     87
                      A                      A                      A
 Frequencies --   3082.3394              3097.0282              3111.2310
 Red. masses --      1.0634                 1.1017                 1.1017
 Frc consts  --      5.9525                 6.2261                 6.2831
 IR Inten    --     18.0462                13.7508                 7.6611

                     88                     89                     90
                      A                      A                      A
 Frequencies --   3119.3249              3129.2382              3132.7494
 Red. masses --      1.1056                 1.1051                 1.1019
 Frc consts  --      6.3381                 6.3757                 6.3715
 IR Inten    --     13.5338                59.2625                29.2214

                     91                     92                     93
                      A                      A                      A
 Frequencies --   3144.7806              3197.6003              3200.2139
 Red. masses --      1.1031                 1.0880                 1.0903
 Frc consts  --      6.4276                 6.5540                 6.5792
 IR Inten    --     20.5631                13.8134                 3.8792

                     94                     95                     96
                      A                      A                      A
 Frequencies --   3220.6182              3230.7144              3750.6729
 Red. masses --      1.0926                 1.0942                 1.0659
 Frc consts  --      6.6774                 6.7287                 8.8344
 IR Inten    --      8.9003                 3.4804                36.7740

 - Thermochemistry -
 -------------------
 Temperature   298.150 Kelvin.  Pressure   1.00000 Atm.
 Atom     1 has atomic number  6 and mass  12.00000

 Molecular mass:   244.12118 amu.
 Principal axes and moments of inertia in atomic units:
                           1         2         3
     Eigenvalues --  1820.587009292.86294**********
           X            0.99996   0.00943   0.00067
           Y           -0.00943   0.99995  -0.00164
           Z           -0.00068   0.00163   1.00000
 This molecule is an asymmetric top.
 Rotational symmetry number  1.
 Warning -- assumption of classical behavior for rotation
           may cause significant error
 Rotational temperatures (Kelvin)      0.04757     0.00932     0.00820
 Rotational constants (GHZ):           0.99130     0.19421     0.17091
 Zero-point vibrational energy     741321.1 (Joules/Mol)
                                  177.17999 (Kcal/Mol)
 Warning -- explicit consideration of  23 degrees of freedom as
           vibrations may cause significant error
 Vibrational temperatures:     12.74    49.90    94.75   112.20   121.12
          (Kelvin)            170.20   219.45   305.34   337.08   342.35
                              358.76   396.02   455.94   507.38   532.96
                              546.07   574.25   617.35   662.80   671.64
                              764.45   809.67   852.97   924.67   996.32
                             1001.15  1017.28  1056.31  1132.66  1170.80
                             1172.24  1191.38  1251.72  1271.09  1289.84
                             1290.93  1309.12  1350.79  1354.78  1377.81
                             1406.11  1434.74  1456.86  1468.55  1476.45
                             1519.68  1531.02  1544.76  1591.71  1628.70
                             1660.98  1711.92  1723.02  1749.45  1772.10
                             1799.49  1832.57  1845.62  1856.41  1891.60
                             1916.70  1945.65  1952.14  1956.32  1985.07
                             1987.40  2029.87  2075.57  2138.20  2181.03
                             2186.50  2189.81  2207.35  2211.79  2223.79
                             2234.39  2273.18  2330.09  2395.40  2402.87
                             4404.58  4408.30  4411.55  4424.52  4434.80
                             4455.93  4476.37  4488.01  4502.28  4507.33
                             4524.64  4600.63  4604.39  4633.75  4648.28
                             5396.38

 Zero-point correction=                           0.282354 (Hartree/Particle)
 Thermal correction to Energy=                    0.298092
 Thermal correction to Enthalpy=                  0.299037
 Thermal correction to Gibbs Free Energy=         0.236870
 Sum of electronic and zero-point Energies=           -802.834622
 Sum of electronic and thermal Energies=              -802.818884
 Sum of electronic and thermal Enthalpies=            -802.817940
 Sum of electronic and thermal Free Energies=         -802.880106

                     E (Thermal)             CV                S
                      KCal/Mol        Cal/Mol-Kelvin    Cal/Mol-Kelvin
 Total                  187.056             61.084            130.840
 Electronic               0.000              0.000              0.000
 Translational            0.889              2.981             42.378
 Rotational               0.889              2.981             33.546
 Vibrational            185.278             55.123             54.915
 Vibration     1          0.593              1.987              8.252
 Vibration     2          0.594              1.983              5.542
 Vibration     3          0.597              1.971              4.274
 Vibration     4          0.599              1.964              3.941
 Vibration     5          0.601              1.960              3.791
 Vibration     6          0.608              1.934              3.128
 Vibration     7          0.619              1.900              2.640
 Vibration     8          0.643              1.822              2.024
 Vibration     9          0.654              1.788              1.846
 Vibration    10          0.656              1.783              1.818
 Vibration    11          0.662              1.764              1.735
 Vibration    12          0.677              1.719              1.563
 Vibration    13          0.704              1.641              1.326
 Vibration    14          0.729              1.570              1.154
 Vibration    15          0.742              1.533              1.078
 Vibration    16          0.750              1.514              1.041
 Vibration    17          0.765              1.472              0.966
 Vibration    18          0.790              1.407              0.862
 Vibration    19          0.818              1.337              0.764
 Vibration    20          0.824              1.324              0.747
 Vibration    21          0.886              1.181              0.584
 Vibration    22          0.918              1.112              0.518
 Vibration    23          0.950              1.047              0.462

                           ! Non-Optimized Parameters !
 Normal termination of Gaussian 16 at Fri Dec 11 20:16:39 2020.

 ----------------------------------------------------------------------
 # B3LYP/6-311++G(d,p) empiricaldispersion=gd3bj scf=xqc pop=npa geom=c
 heck
 ----------------------------------------------------------------------

 --------------------------------------
 CID_79552860_JID_8328_Energie_neutraal
 --------------------------------------
 Structure from the checkpoint file:  "JID_8328.chk"
 Charge =  0 Multiplicity = 1

 SCF Done:  E(RB3LYP) =  -803.334170875     A.U. after   14 cycles
 Normal termination of Gaussian 16 at Fri Dec 11 20:21:28 2020.

 ----------------------------------------------------------------------
 # B3LYP/6-311++G(d,p) empiricaldispersion=gd3bj scf=xqc pop=npa geom=c
 heck
 ----------------------------------------------------------------------

 ------------------------------------
 CID_79552860_JID_8328_Energie_kation
 ------------------------------------
 Structure from the checkpoint file:  "JID_8328.chk"
 Charge =  1 Multiplicity = 2

 SCF Done:  E(UB3LYP) =  -803.031901294     A.U. after   22 cycles
 Normal termination of Gaussian 16 at Fri Dec 11 20:31:14 2020.
 Gaussian 16:  ES64L-G16RevA.03 25-Dec-2016

 ----------------------------------------------------------------------
 # B3LYP/6-311++G(d,p) empiricaldispersion=gd3bj scf=xqc pop=npa geom=c
 heck
 ----------------------------------------------------------------------

 -----------------------------------
 CID_79552860_JID_8328_Energie_anion
 -----------------------------------
 Structure from the checkpoint file:  "JID_8328.chk"
 Charge = -1 Multiplicity = 2

                         Standard orientation:
 ---------------------------------------------------------------------
 Center     Atomic      Atomic             Coordinates (Angstroms)
 Number     Number       Type             X           Y           Z
 ---------------------------------------------------------------------
      1          6           0        3.537814   -1.043122    1.197105
      2          6           0        2.747317   -0.137595    0.233015
      3          6           0        3.390218   -0.137206   -1.183713
      4          6           0        4.590668    0.826315   -1.064731
      5          6           0        4.245531    1.793471    0.105489
      6          6           0        2.861021    1.350899    0.627974
      7          6           0        1.321698   -0.586540    0.161630
      8          7           0        0.232720    0.126577    0.163870
      9          6           0       -0.763390   -0.824413    0.018182
     10          7           0       -0.318445   -2.058591   -0.067787
     11          8           0        1.076947   -1.906315    0.027100
     12          6           0       -2.188078   -0.480090   -0.031538
     13          6           0       -2.562426    0.864580    0.075859
     14          6           0       -3.911882    1.215145    0.030969
     15          6           0       -4.890911    0.228102   -0.121374
     16          6           0       -4.507659   -1.107446   -0.227468
     17          6           0       -3.164164   -1.473425   -0.184040
     18          8           0       -4.334528    2.511332    0.131266
     19          1           0        3.509005   -2.086474    0.870974
     20          1           0        4.584072   -0.727331    1.243544
     21          1           0        3.123408   -0.989254    2.209413
     22          1           0        3.668001   -1.143772   -1.511221
     23          1           0        2.660335    0.253709   -1.902077
     24          1           0        4.762062    1.358602   -2.005034
     25          1           0        5.508985    0.271417   -0.847400
     26          1           0        4.228776    2.839141   -0.215777
     27          1           0        4.999844    1.721964    0.895772
     28          1           0        2.062209    1.908843    0.130737
     29          1           0        2.737604    1.500820    1.705355
     30          1           0       -1.790798    1.620117    0.193957
     31          1           0       -5.934295    0.523821   -0.153791
     32          1           0       -5.269586   -1.872339   -0.345579
     33          1           0       -2.864395   -2.511937   -0.266328
     34          1           0       -3.559045    3.084585    0.233805
 ---------------------------------------------------------------------

 SCF Done:  E(UB3LYP) =  -803.335633096     A.U. after   33 cycles
 SCF Done:  E(UB3LYP) =  -803.335633096     a.u. after    1 cycles

 The electronic state is 2-A.
 Alpha  occ. eigenvalues --  -19.07102 -19.04798 -14.20639 -14.18675 -10.13751
 Alpha  occ. eigenvalues --  -10.11364 -10.09554 -10.09001 -10.07333 -10.07300
 Alpha  occ. eigenvalues --  -10.07183 -10.06686 -10.06437 -10.05562 -10.05323
 Alpha  occ. eigenvalues --  -10.04488 -10.04202 -10.04025  -1.02179  -0.95701
 Alpha  occ. eigenvalues --   -0.80328  -0.76536  -0.73493  -0.71755  -0.65092
 Alpha  occ. eigenvalues --   -0.63365  -0.61891  -0.61747  -0.57726  -0.52796
 Alpha  occ. eigenvalues --   -0.51391  -0.49885  -0.47764  -0.45954  -0.44562
 Alpha  occ. eigenvalues --   -0.41965  -0.39398  -0.38262  -0.38092  -0.36165
 Alpha  occ. eigenvalues --   -0.35710  -0.34247  -0.33381  -0.31579  -0.30773
 Alpha  occ. eigenvalues --   -0.30361  -0.30050  -0.29459  -0.28482  -0.27793
 Alpha  occ. eigenvalues --   -0.25362  -0.24899  -0.24712  -0.24226  -0.24133
 Alpha  occ. eigenvalues --   -0.23620  -0.23390  -0.22716  -0.22273  -0.19959
 Alpha  occ. eigenvalues --   -0.19869  -0.16461  -0.16215  -0.12831  -0.10842
 Alpha  occ. eigenvalues --    0.04258
 Alpha virt. eigenvalues --    0.05853   0.07470   0.07813   0.08356   0.08792
 Alpha virt. eigenvalues --    0.09123   0.10134   0.10693   0.10810   0.10980
 Alpha virt. eigenvalues --    0.11406   0.11959   0.12520   0.12883   0.13714

  Beta  occ. eigenvalues --  -19.06863 -19.04798 -14.20143 -14.18737 -10.13666
  Beta  occ. eigenvalues --  -10.11381 -10.09561 -10.08914 -10.07319 -10.07293
  Beta  occ. eigenvalues --  -10.07168 -10.06680 -10.06413 -10.05593 -10.05170
  Beta  occ. eigenvalues --  -10.04388 -10.04007 -10.03953  -1.01755  -0.95697
  Beta  occ. eigenvalues --   -0.80189  -0.76348  -0.73264  -0.71366  -0.65001
  Beta  occ. eigenvalues --   -0.63003  -0.61768  -0.61643  -0.57665  -0.52499
  Beta  occ. eigenvalues --   -0.51102  -0.49777  -0.47688  -0.45783  -0.44480
  Beta  occ. eigenvalues --   -0.41900  -0.39311  -0.38215  -0.37967  -0.35696
  Beta  occ. eigenvalues --   -0.35284  -0.34098  -0.33274  -0.31518  -0.30605
  Beta  occ. eigenvalues --   -0.30266  -0.29847  -0.29390  -0.28339  -0.27683
  Beta  occ. eigenvalues --   -0.25276  -0.24853  -0.24648  -0.24037  -0.23870
  Beta  occ. eigenvalues --   -0.23508  -0.22920  -0.22614  -0.22218  -0.19578
  Beta  occ. eigenvalues --   -0.19373  -0.15983  -0.15276  -0.11812  -0.09687
  Beta virt. eigenvalues --    0.06335   0.07559   0.07940   0.08448   0.08755
  Beta virt. eigenvalues --    0.09157   0.09294   0.10457   0.10705   0.10905
  Beta virt. eigenvalues --    0.11048   0.11560   0.12026   0.12829   0.13204

 Mulliken charges and spin densities:
               1          2
     1  C    0.424878  -1.159867
     2  C    0.016367   0.652141
     3  C   -0.549697   0.332185
     4  C    0.105495  -0.635817
     5  C    0.292061  -0.599058
     6  C   -0.904362   0.198795
     7  C   -0.367655   0.272987
     8  N    0.123867  -0.035046
     9  C    0.471445  -0.030214
    10  N   -0.585420   0.243845
    11  O    0.299435   0.046604
    12  C    0.658073   0.047299
    13  C   -0.276134   0.098622
    14  C   -0.580212  -0.021977
    15  C    0.092883   0.136243
    16  C   -0.542312  -0.003426
    17  C   -0.604118   0.105800
    18  O   -0.258670   0.001967
    19  H    0.110219   0.060020
    20  H   -0.125834   0.271180
    21  H    0.041725   0.118662
    22  H    0.116472   0.048431
    23  H    0.166284   0.004766
    24  H    0.054047   0.086175
    25  H   -0.137038   0.293921
    26  H    0.016192   0.117916
    27  H   -0.117789   0.274286
    28  H    0.225520  -0.056319
    29  H    0.041271   0.124125
    30  H    0.115776   0.020266
    31  H    0.138291  -0.013674
    32  H    0.128547   0.001690
    33  H    0.158508  -0.005353
    34  H    0.251886   0.002825
 Sum of Mulliken charges =  -1.00000   1.00000

 Dipole moment (field-independent basis, Debye):
    X=              0.2749    Y=              2.3746    Z=             -0.7585  Tot=              2.5079
 Quadrupole moment (field-independent basis, Debye-Ang):
   XX=           -194.2364   YY=           -129.3733   ZZ=           -122.9314
   XY=             -0.5894   XZ=             -4.0778   YZ=              0.5025

 Summary of Natural Population Analysis:

                                       Natural Population
                Natural  -----------------------------------------------
    Atom  No    Charge         Core      Valence    Rydberg      Total
 -----------------------------------------------------------------------
      C    1   -0.28289      0.99964     2.27578    0.00748     3.28289
      C    2   -0.06914      0.99952     2.05772    0.01190     3.06914
      C    3   -0.18097      0.99961     2.17244    0.00892     3.18097
      C    4   -0.19688      0.99965     2.18906    0.00817     3.19688
      C    5   -0.19592      0.99965     2.18825    0.00803     3.19592
      C    6   -0.18579      0.99961     2.17620    0.00998     3.18579
      C    7    0.29923      0.99954     1.68084    0.02038     2.70077
      N    8   -0.28866      0.99967     2.77854    0.01046     3.78866
      C    9    0.15056      0.99967     1.82746    0.02232     2.84944
      N   10   -0.02776      0.99967     2.51332    0.01477     3.52776
      O   11   -0.16008      0.99985     3.15187    0.00836     4.16008
      C   12    0.03851      0.99951     1.95427    0.00771     2.96149
      C   13   -0.12338      0.99948     2.11144    0.01247     3.12338
      C   14    0.14225      0.99941     1.84402    0.01432     2.85775
      C   15   -0.11417      0.99946     2.09673    0.01798     3.11417
      C   16   -0.06702      0.99946     2.05941    0.00815     3.06702
      C   17   -0.11904      0.99955     2.09932    0.02016     3.11904
      O   18   -0.34924      0.99988     3.34247    0.00689     4.34924
      H   19    0.10600      0.00000     0.39276    0.00123     0.39400
      H   20    0.09935      0.00000     0.39967    0.00098     0.40065
      H   21    0.10193      0.00000     0.39723    0.00084     0.39807
      H   22    0.10248      0.00000     0.39662    0.00090     0.39752
      H   23    0.10052      0.00000     0.39850    0.00098     0.39948
      H   24    0.09790      0.00000     0.40132    0.00077     0.40210
      H   25    0.09821      0.00000     0.40052    0.00127     0.40179
      H   26    0.09729      0.00000     0.40193    0.00078     0.40271
      H   27    0.09747      0.00000     0.40122    0.00131     0.40253
      H   28    0.10815      0.00000     0.39037    0.00149     0.39185
      H   29    0.10177      0.00000     0.39735    0.00088     0.39823
      H   30    0.10214      0.00000     0.39581    0.00205     0.39786
      H   31    0.09454      0.00000     0.40391    0.00155     0.40546
      H   32    0.08965      0.00000     0.40938    0.00096     0.41035
      H   33    0.10452      0.00000     0.39383    0.00165     0.39548
      H   34    0.22959      0.00000     0.26792    0.00249     0.27041
 =======================================================================
   * Total *    0.00113     17.99282    46.76749    0.23856    64.99887

 Normal termination of Gaussian 16 at Fri Dec 11 20:46:59 2020.
