 Gaussian 16, Revision A.03,

 -----------------------------------------------------------
 # opt freq B3LYP/6-31G(d) empiricaldispersion=gd3bj scf=xqc
 -----------------------------------------------------------

 -----------------------------
 CID_144515011_JID_74_neutraal
 -----------------------------
 Symbolic Z-matrix:
 Charge =  0 Multiplicity = 1

 SCF Done:  E(RB3LYP) =  -518.086583118     A.U. after   13 cycles
 SCF Done:  E(RB3LYP) =  -518.089186111     A.U. after   11 cycles
 SCF Done:  E(RB3LYP) =  -518.090281843     A.U. after   11 cycles
 SCF Done:  E(RB3LYP) =  -518.092411172     A.U. after   11 cycles
 SCF Done:  E(RB3LYP) =  -518.093103091     A.U. after   11 cycles
 SCF Done:  E(RB3LYP) =  -518.092700817     A.U. after   11 cycles
 SCF Done:  E(RB3LYP) =  -518.093616373     A.U. after   11 cycles
 SCF Done:  E(RB3LYP) =  -518.093748874     A.U. after   10 cycles
 SCF Done:  E(RB3LYP) =  -518.093818472     A.U. after   10 cycles
 SCF Done:  E(RB3LYP) =  -518.093829575     A.U. after   10 cycles
 SCF Done:  E(RB3LYP) =  -518.093838710     A.U. after    9 cycles
 SCF Done:  E(RB3LYP) =  -518.093844604     A.U. after    9 cycles
 SCF Done:  E(RB3LYP) =  -518.093847018     A.U. after    9 cycles
 SCF Done:  E(RB3LYP) =  -518.093847551     A.U. after    8 cycles
 SCF Done:  E(RB3LYP) =  -518.093847632     A.U. after    7 cycles
 SCF Done:  E(RB3LYP) =  -518.093847559     A.U. after    7 cycles
 Optimization completed.
    -- Stationary point found.
 Normal termination of Gaussian 16 at Tue Dec  8 10:18:12 2020.

 --------------------------------------------------------------------
 #N Geom=AllCheck Guess=TCheck SCRF=Check GenChk RB3LYP/6-31G(d) Freq
 --------------------------------------------------------------------

 Structure from the checkpoint file:  "JID_74.chk"
 -----------------------------
 CID_144515011_JID_74_neutraal
 -----------------------------
 Charge =  0 Multiplicity = 1

 SCF Done:  E(RB3LYP) =  -518.093847559     A.U. after    1 cycles

  Exact polarizability:  93.965   0.376  75.380   0.251   0.246  73.759
 Approx polarizability: 113.269  -1.099 108.344  -1.138   0.442 108.435

                      1                      2                      3
                      A                      A                      A
 Frequencies --     27.1101                60.3905               101.8068
 Red. masses --      3.8413                 3.0340                 4.5328
 Frc consts  --      0.0017                 0.0065                 0.0277
 IR Inten    --      0.8025                 0.2826                 0.6086

                      4                      5                      6
                      A                      A                      A
 Frequencies --    169.4891               186.5864               213.2700
 Red. masses --      3.5160                 2.6358                 3.0690
 Frc consts  --      0.0595                 0.0541                 0.0822
 IR Inten    --     10.5328                 2.0488                 3.7822

                      7                      8                      9
                      A                      A                      A
 Frequencies --    231.0508               283.0750               328.2727
 Red. masses --      4.2363                 3.0084                 3.1668
 Frc consts  --      0.1332                 0.1420                 0.2011
 IR Inten    --      3.2602                 0.6341                10.5512

                     10                     11                     12
                      A                      A                      A
 Frequencies --    344.4593               386.1008               405.8323
 Red. masses --      1.4364                 2.9696                 3.1218
 Frc consts  --      0.1004                 0.2608                 0.3029
 IR Inten    --     14.6049                 9.7570                 2.0880

                     13                     14                     15
                      A                      A                      A
 Frequencies --    461.7576               482.4705               504.5350
 Red. masses --      2.9903                 1.1275                 2.0332
 Frc consts  --      0.3757                 0.1546                 0.3049
 IR Inten    --     20.2725                77.0423                27.7791

                     16                     17                     18
                      A                      A                      A
 Frequencies --    588.9916               705.2279               715.8348
 Red. masses --      2.8003                 1.3447                 1.6070
 Frc consts  --      0.5724                 0.3940                 0.4852
 IR Inten    --      7.4757                32.8014                47.0823

                     19                     20                     21
                      A                      A                      A
 Frequencies --    772.6460               787.0012               818.9858
 Red. masses --      1.5579                 1.6631                 1.7974
 Frc consts  --      0.5480                 0.6069                 0.7103
 IR Inten    --     55.5114                26.1204                34.6794

                     22                     23                     24
                      A                      A                      A
 Frequencies --    885.0903               903.5049               933.1188
 Red. masses --      2.0804                 2.9986                 1.6666
 Frc consts  --      0.9602                 1.4422                 0.8550
 IR Inten    --     17.6886                20.1883                86.8653

                     25                     26                     27
                      A                      A                      A
 Frequencies --    956.1682               991.3694              1025.9378
 Red. masses --      1.8442                 1.9267                 2.4623
 Frc consts  --      0.9934                 1.1157                 1.5270
 IR Inten    --      9.5527                47.8984                 8.9755

                     28                     29                     30
                      A                      A                      A
 Frequencies --   1062.3228              1070.8735              1078.4197
 Red. masses --      1.7974                 2.6457                 1.7462
 Frc consts  --      1.1951                 1.7876                 1.1965
 IR Inten    --     25.7528                98.1278                 4.9389

                     31                     32                     33
                      A                      A                      A
 Frequencies --   1100.9498              1120.1208              1155.9457
 Red. masses --      3.0767                 2.6022                 2.5623
 Frc consts  --      2.1972                 1.9236                 2.0172
 IR Inten    --     97.4022                18.5893                32.0034

                     34                     35                     36
                      A                      A                      A
 Frequencies --   1191.9616              1234.7141              1251.6159
 Red. masses --      1.4847                 1.1248                 1.2607
 Frc consts  --      1.2428                 1.0103                 1.1636
 IR Inten    --      2.4363                 0.2477                 2.8221

                     37                     38                     39
                      A                      A                      A
 Frequencies --   1290.3936              1298.4684              1314.6517
 Red. masses --      1.2197                 1.2392                 1.1428
 Frc consts  --      1.1966                 1.2310                 1.1637
 IR Inten    --     16.1070                16.3313                35.7394

                     40                     41                     42
                      A                      A                      A
 Frequencies --   1330.0901              1377.2696              1392.4622
 Red. masses --      1.3102                 1.2923                 1.4997
 Frc consts  --      1.3657                 1.4443                 1.7132
 IR Inten    --      1.2129                24.3733                15.8315

                     43                     44                     45
                      A                      A                      A
 Frequencies --   1403.1306              1422.5451              1425.6394
 Red. masses --      1.2305                 1.2366                 1.2806
 Frc consts  --      1.4273                 1.4744                 1.5335
 IR Inten    --      8.0939                29.3413                26.9737

                     46                     47                     48
                      A                      A                      A
 Frequencies --   1441.4885              1467.9895              1478.2406
 Red. masses --      1.3557                 1.2693                 1.4355
 Frc consts  --      1.6598                 1.6116                 1.8482
 IR Inten    --     16.0881               126.8966                26.1386

                     49                     50                     51
                      A                      A                      A
 Frequencies --   1483.8931              1507.8270              1520.6495
 Red. masses --      1.2523                 1.1057                 1.0900
 Frc consts  --      1.6246                 1.4811                 1.4851
 IR Inten    --     69.7331                 9.7038                13.3275

                     52                     53                     54
                      A                      A                      A
 Frequencies --   1547.2094              1554.6187              1693.2652
 Red. masses --      1.0835                 1.0865                 1.0866
 Frc consts  --      1.5281                 1.5472                 1.8356
 IR Inten    --      1.8971                 6.0108                38.9474

                     55                     56                     57
                      A                      A                      A
 Frequencies --   2994.5281              3007.1566              3030.5299
 Red. masses --      1.0840                 1.0726                 1.0640
 Frc consts  --      5.7272                 5.7148                 5.7576
 IR Inten    --     36.7665                71.9261                37.8386

                     58                     59                     60
                      A                      A                      A
 Frequencies --   3042.6684              3046.2012              3058.4013
 Red. masses --      1.0753                 1.0656                 1.0766
 Frc consts  --      5.8653                 5.8261                 5.9331
 IR Inten    --      6.8734                12.2395                74.9466

                     61                     62                     63
                      A                      A                      A
 Frequencies --   3081.0137              3088.2065              3097.6925
 Red. masses --      1.0984                 1.1020                 1.0914
 Frc consts  --      6.1434                 6.1923                 6.1701
 IR Inten    --     57.6494                44.6853                15.8751

                     64                     65                     66
                      A                      A                      A
 Frequencies --   3113.5840              3472.1191              3529.2963
 Red. masses --      1.0951                 1.0504                 1.0655
 Frc consts  --      6.2551                 7.4607                 7.8195
 IR Inten    --     41.8669                 0.8917               280.0861

                     67                     68                     69
                      A                      A                      A
 Frequencies --   3556.4981              3628.4658              3667.7017
 Red. masses --      1.0925                 1.0653                 1.0651
 Frc consts  --      8.1414                 8.2639                 8.4415
 IR Inten    --      0.8727                65.1713               100.8575

 - Thermochemistry -
 -------------------
 Temperature   298.150 Kelvin.  Pressure   1.00000 Atm.
 Atom     1 has atomic number  6 and mass  12.00000

 Molecular mass:   149.10519 amu.
 Principal axes and moments of inertia in atomic units:
                           1         2         3
     Eigenvalues --   716.287572703.561682783.94221
           X            0.99999   0.00304   0.00399
           Y           -0.00330   0.99783   0.06576
           Z           -0.00378  -0.06577   0.99783
 This molecule is an asymmetric top.
 Rotational symmetry number  1.
 Warning -- assumption of classical behavior for rotation
           may cause significant error
 Rotational temperatures (Kelvin)      0.12092     0.03204     0.03111
 Rotational constants (GHZ):           2.51958     0.66754     0.64827
 Zero-point vibrational energy     591558.8 (Joules/Mol)
                                  141.38594 (Kcal/Mol)
 Warning -- explicit consideration of  16 degrees of freedom as
           vibrations may cause significant error
 Vibrational temperatures:     39.01    86.89   146.48   243.86   268.46
          (Kelvin)            306.85   332.43   407.28   472.31   495.60
                              555.51   583.90   664.37   694.17   725.91
                              847.43  1014.67  1029.93  1111.67  1132.32
                             1178.34  1273.45  1299.94  1342.55  1375.71
                             1426.36  1476.10  1528.45  1540.75  1551.61
                             1584.02  1611.60  1663.15  1714.97  1776.48
                             1800.80  1856.59  1868.21  1891.49  1913.70
                             1981.58  2003.44  2018.79  2046.73  2051.18
                             2073.98  2112.11  2126.86  2134.99  2169.43
                             2187.88  2226.09  2236.75  2436.23  4308.46
                             4326.63  4360.26  4377.72  4382.80  4400.36
                             4432.89  4443.24  4456.89  4479.75  4995.60
                             5077.87  5117.01  5220.55  5277.00

 Zero-point correction=                           0.225313 (Hartree/Particle)
 Thermal correction to Energy=                    0.236571
 Thermal correction to Enthalpy=                  0.237516
 Thermal correction to Gibbs Free Energy=         0.187775
 Sum of electronic and zero-point Energies=           -517.868535
 Sum of electronic and thermal Energies=              -517.857276
 Sum of electronic and thermal Enthalpies=            -517.856332
 Sum of electronic and thermal Free Energies=         -517.906073

                     E (Thermal)             CV                S
                      KCal/Mol        Cal/Mol-Kelvin    Cal/Mol-Kelvin
 Total                  148.451             42.256            104.688
 Electronic               0.000              0.000              0.000
 Translational            0.889              2.981             40.909
 Rotational               0.889              2.981             30.068
 Vibrational            146.673             36.294             33.712
 Vibration     1          0.593              1.984              6.030
 Vibration     2          0.597              1.973              4.444
 Vibration     3          0.604              1.948              3.419
 Vibration     4          0.625              1.880              2.441
 Vibration     5          0.632              1.858              2.261
 Vibration     6          0.644              1.821              2.016
 Vibration     7          0.653              1.794              1.871
 Vibration     8          0.682              1.705              1.515
 Vibration     9          0.711              1.619              1.269
 Vibration    10          0.723              1.587              1.191
 Vibration    11          0.755              1.500              1.015
 Vibration    12          0.771              1.458              0.941
 Vibration    13          0.819              1.335              0.761
 Vibration    14          0.839              1.289              0.703
 Vibration    15          0.860              1.240              0.647
 Vibration    16          0.946              1.055              0.469

 Optimization completed.
    -- Stationary point found.
 Normal termination of Gaussian 16 at Tue Dec  8 10:22:32 2020.

 ----------------------------------------------------------------------
 # B3LYP/6-311++G(d,p) empiricaldispersion=gd3bj scf=xqc pop=npa geom=c
 heck
 ----------------------------------------------------------------------

 -------------------------------------
 CID_144515011_JID_74_Energie_neutraal
 -------------------------------------
 Structure from the checkpoint file:  "JID_74.chk"
 Charge =  0 Multiplicity = 1

 SCF Done:  E(RB3LYP) =  -518.281044071     A.U. after   13 cycles
 Normal termination of Gaussian 16 at Tue Dec  8 10:24:03 2020.

 ----------------------------------------------------------------------
 # B3LYP/6-311++G(d,p) empiricaldispersion=gd3bj scf=xqc pop=npa geom=c
 heck
 ----------------------------------------------------------------------

 -----------------------------------
 CID_144515011_JID_74_Energie_kation
 -----------------------------------
 Structure from the checkpoint file:  "JID_74.chk"
 Charge =  1 Multiplicity = 2

 SCF Done:  E(UB3LYP) =  -517.950265216     A.U. after   28 cycles
 Normal termination of Gaussian 16 at Tue Dec  8 10:28:13 2020.
 Gaussian 16:  ES64L-G16RevA.03 25-Dec-2016

 ----------------------------------------------------------------------
 # B3LYP/6-311++G(d,p) empiricaldispersion=gd3bj scf=xqc pop=npa geom=c
 heck
 ----------------------------------------------------------------------

 ----------------------------------
 CID_144515011_JID_74_Energie_anion
 ----------------------------------
 Structure from the checkpoint file:  "JID_74.chk"
 Charge = -1 Multiplicity = 2

                         Standard orientation:
 ---------------------------------------------------------------------
 Center     Atomic      Atomic             Coordinates (Angstroms)
 Number     Number       Type             X           Y           Z
 ---------------------------------------------------------------------
      1          6           0        1.594638   -0.741365   -0.784083
      2          6           0        2.773622   -0.856300    0.194737
      3          7           0        3.300929    0.472878    0.561466
      4          6           0        0.669355    0.439274   -0.441093
      5          6           0       -0.757990    0.372611   -1.010439
      6          6           0       -1.578380   -0.898594   -0.718628
      7          6           0       -2.182285   -0.970953    0.690005
      8          8           0       -3.281207   -0.081874    0.838161
      9          8           0       -1.445361    1.543366   -0.531847
     10          8           0        0.545863    0.631257    0.970272
     11          1           0        1.056031   -1.693776   -0.762438
     12          1           0        1.958654   -0.608714   -1.811969
     13          1           0        2.413526   -1.314089    1.121202
     14          1           0        3.535357   -1.530423   -0.226369
     15          1           0        4.068188    0.372191    1.223313
     16          1           0        3.688647    0.938033   -0.258618
     17          1           0        1.114418    1.350133   -0.870591
     18          1           0       -0.673977    0.482867   -2.099075
     19          1           0       -2.412516   -0.933256   -1.430212
     20          1           0       -0.967124   -1.787806   -0.915951
     21          1           0       -2.574655   -1.979354    0.865390
     22          1           0       -1.403784   -0.781287    1.442894
     23          1           0       -2.992250    0.747231    0.415860
     24          1           0       -1.034654    1.714322    0.338416
     25          1           0        1.449511    0.903751    1.242199
 ---------------------------------------------------------------------

 SCF Done:  E(UB3LYP) =  -518.275213360     A.U. after   25 cycles

 The electronic state is 2-A.
 Alpha  occ. eigenvalues --  -19.02857 -19.01365 -19.01035 -14.18876 -10.12674
 Alpha  occ. eigenvalues --  -10.11787 -10.11061 -10.08516 -10.07168 -10.06376
 Alpha  occ. eigenvalues --   -0.94371  -0.91539  -0.90561  -0.77615  -0.68772
 Alpha  occ. eigenvalues --   -0.64925  -0.59410  -0.54230  -0.50069  -0.47180
 Alpha  occ. eigenvalues --   -0.42885  -0.40210  -0.39028  -0.38539  -0.36914
 Alpha  occ. eigenvalues --   -0.35704  -0.33192  -0.32407  -0.31833  -0.30306
 Alpha  occ. eigenvalues --   -0.29554  -0.27389  -0.26222  -0.25765  -0.23747
 Alpha  occ. eigenvalues --   -0.23455  -0.21974  -0.18210  -0.17630  -0.16648
 Alpha  occ. eigenvalues --   -0.14605   0.04382
 Alpha virt. eigenvalues --    0.07413   0.08017   0.08668   0.09892   0.10096
 Alpha virt. eigenvalues --    0.10583   0.11290   0.12009   0.12717   0.13185
 Alpha virt. eigenvalues --    0.14061   0.14868   0.15472   0.16392   0.16659

  Beta  occ. eigenvalues --  -19.02852 -19.01348 -19.01033 -14.18784 -10.12669
  Beta  occ. eigenvalues --  -10.11771 -10.11057 -10.08476 -10.07158 -10.06351
  Beta  occ. eigenvalues --   -0.94351  -0.91525  -0.90540  -0.77478  -0.68733
  Beta  occ. eigenvalues --   -0.64857  -0.59344  -0.54178  -0.49992  -0.47129
  Beta  occ. eigenvalues --   -0.42826  -0.40180  -0.38997  -0.38476  -0.36832
  Beta  occ. eigenvalues --   -0.35675  -0.33155  -0.32301  -0.31809  -0.30266
  Beta  occ. eigenvalues --   -0.29532  -0.27353  -0.26173  -0.25735  -0.23736
  Beta  occ. eigenvalues --   -0.23391  -0.21942  -0.18191  -0.17609  -0.16632
  Beta  occ. eigenvalues --   -0.14518
  Beta virt. eigenvalues --    0.07109   0.08355   0.08571   0.09077   0.10556
  Beta virt. eigenvalues --    0.10570   0.11092   0.11487   0.12437   0.13229
  Beta virt. eigenvalues --    0.13704   0.14603   0.15141   0.15577   0.16697

 Mulliken charges and spin densities:
               1          2
     1  C   -1.144358   1.017085
     2  C    2.341051  -2.952019
     3  N   -0.557549   0.159565
     4  C    0.479936  -0.653986
     5  C    0.272800  -0.317732
     6  C    0.022239  -0.278583
     7  C   -0.362701  -0.252513
     8  O   -0.268618   0.009601
     9  O   -0.229700  -0.010361
    10  O   -0.363361   0.028673
    11  H    0.223742  -0.112283
    12  H   -0.446984   0.623759
    13  H   -0.124160   0.315805
    14  H   -0.755705   0.915264
    15  H   -0.512649   0.781366
    16  H   -0.287612   0.520117
    17  H   -0.129774   0.358822
    18  H   -0.119315   0.327433
    19  H    0.165246   0.027496
    20  H   -0.158188   0.253961
    21  H    0.117917   0.030665
    22  H    0.163214   0.036920
    23  H    0.234047   0.011837
    24  H    0.232148   0.009895
    25  H    0.208333   0.149214
 Sum of Mulliken charges =  -1.00000   1.00000

 Dipole moment (field-independent basis, Debye):
    X=             -8.5198    Y=             -0.9390    Z=              0.0330  Tot=              8.5715
 Quadrupole moment (field-independent basis, Debye-Ang):
   XX=           -154.0957   YY=            -88.6776   ZZ=            -93.8036
   XY=              0.1565   XZ=              3.1188   YZ=              0.8682

 Summary of Natural Population Analysis:

                                       Natural Population
                Natural  -----------------------------------------------
    Atom  No    Charge         Core      Valence    Rydberg      Total
 -----------------------------------------------------------------------
      C    1   -0.20515      0.99960     2.19623    0.00931     3.20515
      C    2   -0.08845      0.99964     2.07627    0.01254     3.08845
      N    3   -0.44246      0.99977     2.93113    0.01157     3.94246
      C    4    0.04942      0.99955     1.93465    0.01637     2.95058
      C    5    0.06067      0.99954     1.92463    0.01517     2.93933
      C    6   -0.21919      0.99960     2.20962    0.00997     3.21919
      C    7   -0.01664      0.99960     2.00447    0.01257     3.01664
      O    8   -0.38335      0.99990     3.37640    0.00705     4.38335
      O    9   -0.38711      0.99990     3.38033    0.00688     4.38711
      O   10   -0.40252      0.99989     3.39605    0.00659     4.40252
      H   11    0.09785      0.00000     0.40065    0.00149     0.40215
      H   12    0.10296      0.00000     0.39489    0.00215     0.39704
      H   13    0.09022      0.00000     0.40812    0.00166     0.40978
      H   14    0.09008      0.00000     0.40649    0.00343     0.40992
      H   15    0.18863      0.00000     0.30205    0.00932     0.31137
      H   16    0.18555      0.00000     0.30267    0.01178     0.31445
      H   17    0.08644      0.00000     0.41182    0.00174     0.41356
      H   18    0.09021      0.00000     0.40857    0.00122     0.40979
      H   19    0.09948      0.00000     0.39935    0.00117     0.40052
      H   20    0.10427      0.00000     0.39467    0.00107     0.39573
      H   21    0.07990      0.00000     0.41883    0.00128     0.42010
      H   22    0.08814      0.00000     0.41017    0.00169     0.41186
      H   23    0.23733      0.00000     0.25940    0.00327     0.26267
      H   24    0.24071      0.00000     0.25610    0.00319     0.25929
      H   25    0.25299      0.00000     0.24352    0.00349     0.24701
 =======================================================================
   * Total *   -0.00000      9.99699    30.84708    0.15593    41.00000

 Normal termination of Gaussian 16 at Tue Dec  8 10:32:06 2020.
