 Gaussian 16, Revision A.03,

 -----------------------------------------------------------
 # opt freq B3LYP/6-31G(d) empiricaldispersion=gd3bj scf=xqc
 -----------------------------------------------------------

 -------------------------------
 CID_130946593_JID_4117_neutraal
 -------------------------------
 Symbolic Z-matrix:
 Charge =  0 Multiplicity = 1

 SCF Done:  E(RB3LYP) =  -617.175793517     A.U. after   13 cycles
 SCF Done:  E(RB3LYP) =  -617.180092945     A.U. after   11 cycles
 SCF Done:  E(RB3LYP) =  -617.179907137     A.U. after   11 cycles
 SCF Done:  E(RB3LYP) =  -617.180302156     A.U. after   11 cycles
 SCF Done:  E(RB3LYP) =  -617.180791680     A.U. after   10 cycles
 SCF Done:  E(RB3LYP) =  -617.180960146     A.U. after   10 cycles
 SCF Done:  E(RB3LYP) =  -617.181627844     A.U. after   11 cycles
 SCF Done:  E(RB3LYP) =  -617.165193498     A.U. after   13 cycles
 SCF Done:  E(RB3LYP) =  -617.181794233     A.U. after   10 cycles
 SCF Done:  E(RB3LYP) =  -617.182229894     A.U. after   10 cycles
 SCF Done:  E(RB3LYP) =  -617.186242709     A.U. after   10 cycles
 SCF Done:  E(RB3LYP) =  -617.186414582     A.U. after   10 cycles
 SCF Done:  E(RB3LYP) =  -617.186412559     A.U. after    8 cycles
 SCF Done:  E(RB3LYP) =  -617.186414839     A.U. after    8 cycles
 SCF Done:  E(RB3LYP) =  -617.186414715     A.U. after    7 cycles
 SCF Done:  E(RB3LYP) =  -617.186414906     A.U. after    7 cycles
 Optimization completed.
    -- Stationary point found.
 Normal termination of Gaussian 16 at Thu Dec 10 09:35:49 2020.

 --------------------------------------------------------------------
 #N Geom=AllCheck Guess=TCheck SCRF=Check GenChk RB3LYP/6-31G(d) Freq
 --------------------------------------------------------------------

 Structure from the checkpoint file:  "JID_4117.chk"
 -------------------------------
 CID_130946593_JID_4117_neutraal
 -------------------------------
 Charge =  0 Multiplicity = 1

 SCF Done:  E(RB3LYP) =  -617.186414906     A.U. after    1 cycles

  Exact polarizability: 143.683   0.736 116.830   0.455   1.420 119.800
 Approx polarizability: 179.778   0.884 174.088  -1.386   2.298 178.261

                      1                      2                      3
                      A                      A                      A
 Frequencies --     36.4021                87.2853               123.2985
 Red. masses --      3.7476                 3.6618                 2.6462
 Frc consts  --      0.0029                 0.0164                 0.0237
 IR Inten    --      0.3342                 0.4818                 0.6968

                      4                      5                      6
                      A                      A                      A
 Frequencies --    136.5498               168.5523               196.1899
 Red. masses --      1.9929                 2.5359                 1.8914
 Frc consts  --      0.0219                 0.0424                 0.0429
 IR Inten    --      0.1293                 3.3128                 0.0675

                      7                      8                      9
                      A                      A                      A
 Frequencies --    206.2775               233.5827               266.8118
 Red. masses --      2.7827                 2.5059                 2.0983
 Frc consts  --      0.0698                 0.0806                 0.0880
 IR Inten    --      3.7321                 0.3293                10.8689

                     10                     11                     12
                      A                      A                      A
 Frequencies --    302.0936               312.1146               314.5308
 Red. masses --      2.8896                 1.1880                 2.0067
 Frc consts  --      0.1554                 0.0682                 0.1170
 IR Inten    --      2.5896                38.0531                 0.4936

                     13                     14                     15
                      A                      A                      A
 Frequencies --    363.6918               394.5923               422.6920
 Red. masses --      2.2210                 2.4833                 2.2670
 Frc consts  --      0.1731                 0.2278                 0.2386
 IR Inten    --      0.0920                 6.0435                 5.6980

                     16                     17                     18
                      A                      A                      A
 Frequencies --    441.1182               461.6980               499.8271
 Red. masses --      2.2621                 3.6348                 2.4245
 Frc consts  --      0.2593                 0.4565                 0.3569
 IR Inten    --      1.8468                12.2969                 0.5720

                     19                     20                     21
                      A                      A                      A
 Frequencies --    515.8393               528.6503               555.2947
 Red. masses --      2.9787                 1.9834                 3.2857
 Frc consts  --      0.4670                 0.3266                 0.5969
 IR Inten    --      1.6376                 1.5923                10.9214

                     22                     23                     24
                      A                      A                      A
 Frequencies --    651.1196               716.9732               746.5221
 Red. masses --      2.9461                 2.1083                 2.4305
 Frc consts  --      0.7359                 0.6385                 0.7980
 IR Inten    --      2.5225                 2.1374                 4.6363

                     25                     26                     27
                      A                      A                      A
 Frequencies --    804.9740               825.5322               859.5960
 Red. masses --      2.9074                 2.5931                 2.0140
 Frc consts  --      1.1100                 1.0412                 0.8768
 IR Inten    --      1.2981                 0.0854                11.7820

                     28                     29                     30
                      A                      A                      A
 Frequencies --    865.3248               880.9015               884.7216
 Red. masses --      1.8318                 2.2740                 1.9647
 Frc consts  --      0.8082                 1.0397                 0.9060
 IR Inten    --      7.6703                 3.6960                19.1874

                     31                     32                     33
                      A                      A                      A
 Frequencies --    899.8454               921.1491               953.6889
 Red. masses --      2.2903                 2.0449                 1.8180
 Frc consts  --      1.0926                 1.0223                 0.9742
 IR Inten    --      6.0181                26.7395               110.8158

                     34                     35                     36
                      A                      A                      A
 Frequencies --    963.5572               985.9587              1015.7053
 Red. masses --      1.6633                 1.7007                 2.3809
 Frc consts  --      0.9099                 0.9741                 1.4472
 IR Inten    --     24.2226                42.4165                11.4662

                     37                     38                     39
                      A                      A                      A
 Frequencies --   1041.1513              1052.6380              1054.1445
 Red. masses --      2.2789                 1.7338                 1.8934
 Frc consts  --      1.4555                 1.1319                 1.2396
 IR Inten    --      2.5565                18.1743                 9.2675

                     40                     41                     42
                      A                      A                      A
 Frequencies --   1063.4603              1093.3614              1094.5501
 Red. masses --      1.9759                 1.8062                 1.8332
 Frc consts  --      1.3166                 1.2721                 1.2940
 IR Inten    --     31.2044                13.3376                32.0598

                     43                     44                     45
                      A                      A                      A
 Frequencies --   1113.1448              1120.4167              1140.0551
 Red. masses --      1.8868                 1.8341                 2.5562
 Frc consts  --      1.3774                 1.3566                 1.9575
 IR Inten    --     22.7424                33.2203                49.4364

                     46                     47                     48
                      A                      A                      A
 Frequencies --   1157.9845              1185.3022              1199.3822
 Red. masses --      1.6307                 1.4838                 2.5864
 Frc consts  --      1.2883                 1.2282                 2.1921
 IR Inten    --      8.6332                26.3664                19.4861

                     49                     50                     51
                      A                      A                      A
 Frequencies --   1218.1569              1236.5234              1239.3988
 Red. masses --      1.9381                 1.5382                 1.4442
 Frc consts  --      1.6945                 1.3857                 1.3071
 IR Inten    --     20.2797                12.4165                 2.2874

                     52                     53                     54
                      A                      A                      A
 Frequencies --   1262.6353              1282.3830              1312.5023
 Red. masses --      1.7703                 1.4904                 1.1783
 Frc consts  --      1.6628                 1.4441                 1.1959
 IR Inten    --     12.8170                 4.0075                11.3509

                     55                     56                     57
                      A                      A                      A
 Frequencies --   1328.9521              1344.4096              1352.2664
 Red. masses --      1.3353                 1.4486                 1.5491
 Frc consts  --      1.3894                 1.5427                 1.6689
 IR Inten    --      1.4954                15.3139                 9.4752

                     58                     59                     60
                      A                      A                      A
 Frequencies --   1356.7532              1361.9339              1376.8255
 Red. masses --      1.2548                 1.2799                 1.2871
 Frc consts  --      1.3609                 1.3987                 1.4376
 IR Inten    --     10.4362                 4.6347                 1.4658

                     61                     62                     63
                      A                      A                      A
 Frequencies --   1382.4122              1399.0468              1401.2980
 Red. masses --      1.2849                 1.3790                 1.3970
 Frc consts  --      1.4467                 1.5903                 1.6163
 IR Inten    --     10.3416                13.9123                 1.6846

                     64                     65                     66
                      A                      A                      A
 Frequencies --   1403.4864              1410.6892              1430.5439
 Red. masses --      1.3730                 1.3448                 1.2517
 Frc consts  --      1.5935                 1.5768                 1.5092
 IR Inten    --      2.9025                14.0492                11.2472

                     67                     68                     69
                      A                      A                      A
 Frequencies --   1437.3000              1442.8641              1449.1741
 Red. masses --      1.3265                 1.3739                 1.4134
 Frc consts  --      1.6146                 1.6852                 1.7488
 IR Inten    --      9.9517                 5.6993                16.5227

                     70                     71                     72
                      A                      A                      A
 Frequencies --   1454.0233              1505.0119              1509.3092
 Red. masses --      1.3095                 1.0870                 1.0855
 Frc consts  --      1.6311                 1.4506                 1.4569
 IR Inten    --      8.1091                 4.9190                 6.6667

                     73                     74                     75
                      A                      A                      A
 Frequencies --   1512.3213              1515.7195              1521.1867
 Red. masses --      1.0831                 1.0865                 1.0917
 Frc consts  --      1.4595                 1.4706                 1.4884
 IR Inten    --      1.8993                 1.8925                 6.3758

                     76                     77                     78
                      A                      A                      A
 Frequencies --   1523.6125              1532.6466              1541.9767
 Red. masses --      1.0747                 1.0999                 1.0696
 Frc consts  --      1.4698                 1.5223                 1.4983
 IR Inten    --      0.7444                 5.3472                 5.3465

                     79                     80                     81
                      A                      A                      A
 Frequencies --   1549.1942              1704.1909              2948.2915
 Red. masses --      1.0787                 1.0853                 1.0728
 Frc consts  --      1.5254                 1.8570                 5.4944
 IR Inten    --      1.1678                23.3951                64.9495

                     82                     83                     84
                      A                      A                      A
 Frequencies --   2969.5561              2975.8400              3025.0418
 Red. masses --      1.0724                 1.0719                 1.0713
 Frc consts  --      5.5718                 5.5927                 5.7760
 IR Inten    --     13.4694               122.6570                13.4205

                     85                     86                     87
                      A                      A                      A
 Frequencies --   3043.5108              3044.5473              3045.5240
 Red. masses --      1.0727                 1.0767                 1.0710
 Frc consts  --      5.8543                 5.8801                 5.8525
 IR Inten    --     63.1800                15.2526                11.8583

                     88                     89                     90
                      A                      A                      A
 Frequencies --   3055.3056              3055.8964              3065.1489
 Red. masses --      1.0647                 1.0686                 1.0527
 Frc consts  --      5.8560                 5.8797                 5.8274
 IR Inten    --     15.8939                47.7495                57.5057

                     91                     92                     93
                      A                      A                      A
 Frequencies --   3076.9610              3085.1212              3086.3878
 Red. masses --      1.0862                 1.0996                 1.0958
 Frc consts  --      6.0590                 6.1664                 6.1504
 IR Inten    --     49.8865                39.2203                45.8629

                     94                     95                     96
                      A                      A                      A
 Frequencies --   3097.0774              3104.6269              3106.2441
 Red. masses --      1.0862                 1.1008                 1.0921
 Frc consts  --      6.1388                 6.2514                 6.2087
 IR Inten    --      1.6747                44.0003                42.0548

                     97                     98                     99
                      A                      A                      A
 Frequencies --   3120.4231              3124.6998              3130.5805
 Red. masses --      1.0955                 1.0925                 1.0939
 Frc consts  --      6.2846                 6.2845                 6.3168
 IR Inten    --     51.2574                34.2419                28.9030

                    100                    101                    102
                      A                      A                      A
 Frequencies --   3152.4553              3442.6022              3524.7336
 Red. masses --      1.0987                 1.0493                 1.0906
 Frc consts  --      6.4334                 7.3273                 7.9829
 IR Inten    --     25.1854                 3.6498                 1.0956

 - Thermochemistry -
 -------------------
 Temperature   298.150 Kelvin.  Pressure   1.00000 Atm.
 Atom     1 has atomic number  6 and mass  12.00000

 Molecular mass:   198.17321 amu.
 Principal axes and moments of inertia in atomic units:
                           1         2         3
     Eigenvalues --  1510.246763692.000873897.58477
           X            1.00000  -0.00278   0.00080
           Y            0.00280   0.99964  -0.02674
           Z           -0.00073   0.02675   0.99964
 This molecule is an asymmetric top.
 Rotational symmetry number  1.
 Warning -- assumption of classical behavior for rotation
           may cause significant error
 Rotational temperatures (Kelvin)      0.05735     0.02346     0.02222
 Rotational constants (GHZ):           1.19500     0.48882     0.46304
 Zero-point vibrational energy     875891.2 (Joules/Mol)
                                  209.34303 (Kcal/Mol)
 Warning -- explicit consideration of  21 degrees of freedom as
           vibrations may cause significant error
 Vibrational temperatures:     52.37   125.58   177.40   196.46   242.51
          (Kelvin)            282.27   296.79   336.07   383.88   434.65
                              449.06   452.54   523.27   567.73   608.16
                              634.67   664.28   719.14   742.18   760.61
                              798.95   936.82  1031.56  1074.08  1158.18
                             1187.76  1236.77  1245.01  1267.42  1272.92
                             1294.68  1325.33  1372.15  1386.34  1418.57
                             1461.37  1497.98  1514.51  1516.68  1530.08
                             1573.10  1574.81  1601.57  1612.03  1640.29
                             1666.08  1705.39  1725.64  1752.66  1779.08
                             1783.22  1816.65  1845.06  1888.40  1912.07
                             1934.31  1945.61  1952.07  1959.52  1980.94
                             1988.98  2012.92  2016.16  2019.30  2029.67
                             2058.23  2067.95  2075.96  2085.04  2092.02
                             2165.38  2171.56  2175.89  2180.78  2188.65
                             2192.14  2205.14  2218.56  2228.94  2451.95
                             4241.93  4272.53  4281.57  4352.36  4378.93
                             4380.42  4381.83  4395.90  4396.75  4410.07
                             4427.06  4438.80  4440.62  4456.00  4466.87
                             4469.19  4489.59  4495.75  4504.21  4535.68
                             4953.14  5071.31

 Zero-point correction=                           0.333609 (Hartree/Particle)
 Thermal correction to Energy=                    0.347177
 Thermal correction to Enthalpy=                  0.348122
 Thermal correction to Gibbs Free Energy=         0.294231
 Sum of electronic and zero-point Energies=           -616.852806
 Sum of electronic and thermal Energies=              -616.839238
 Sum of electronic and thermal Enthalpies=            -616.838293
 Sum of electronic and thermal Free Energies=         -616.892184

                     E (Thermal)             CV                S
                      KCal/Mol        Cal/Mol-Kelvin    Cal/Mol-Kelvin
 Total                  217.857             54.898            113.422
 Electronic               0.000              0.000              0.000
 Translational            0.889              2.981             41.757
 Rotational               0.889              2.981             31.453
 Vibrational            216.080             48.936             40.212
 Vibration     1          0.594              1.982              5.446
 Vibration     2          0.601              1.958              3.720
 Vibration     3          0.610              1.930              3.048
 Vibration     4          0.614              1.917              2.852
 Vibration     5          0.625              1.881              2.452
 Vibration     6          0.636              1.845              2.169
 Vibration     7          0.641              1.831              2.076
 Vibration     8          0.654              1.790              1.851
 Vibration     9          0.672              1.734              1.617
 Vibration    10          0.694              1.670              1.405
 Vibration    11          0.700              1.651              1.351
 Vibration    12          0.702              1.646              1.338
 Vibration    13          0.737              1.547              1.106
 Vibration    14          0.762              1.482              0.983
 Vibration    15          0.785              1.421              0.883
 Vibration    16          0.801              1.380              0.823
 Vibration    17          0.819              1.335              0.761
 Vibration    18          0.855              1.250              0.659
 Vibration    19          0.871              1.215              0.620
 Vibration    20          0.884              1.187              0.590
 Vibration    21          0.911              1.128              0.533

 Optimization completed.
    -- Stationary point found.
 Normal termination of Gaussian 16 at Thu Dec 10 09:47:47 2020.

 ----------------------------------------------------------------------
 # B3LYP/6-311++G(d,p) empiricaldispersion=gd3bj scf=xqc pop=npa geom=c
 heck
 ----------------------------------------------------------------------

 ---------------------------------------
 CID_130946593_JID_4117_Energie_neutraal
 ---------------------------------------
 Structure from the checkpoint file:  "JID_4117.chk"
 Charge =  0 Multiplicity = 1

 SCF Done:  E(RB3LYP) =  -617.362994764     A.U. after   14 cycles
 Normal termination of Gaussian 16 at Thu Dec 10 09:52:37 2020.

 ----------------------------------------------------------------------
 # B3LYP/6-311++G(d,p) empiricaldispersion=gd3bj scf=xqc pop=npa geom=c
 heck
 ----------------------------------------------------------------------

 -------------------------------------
 CID_130946593_JID_4117_Energie_kation
 -------------------------------------
 Structure from the checkpoint file:  "JID_4117.chk"
 Charge =  1 Multiplicity = 2

 SCF Done:  E(UB3LYP) =  -617.093078094     A.U. after   22 cycles
 Normal termination of Gaussian 16 at Thu Dec 10 10:02:41 2020.
 Gaussian 16:  ES64L-G16RevA.03 25-Dec-2016

 ----------------------------------------------------------------------
 # B3LYP/6-311++G(d,p) empiricaldispersion=gd3bj scf=xqc pop=npa geom=c
 heck
 ----------------------------------------------------------------------

 ------------------------------------
 CID_130946593_JID_4117_Energie_anion
 ------------------------------------
 Structure from the checkpoint file:  "JID_4117.chk"
 Charge = -1 Multiplicity = 2

                         Standard orientation:
 ---------------------------------------------------------------------
 Center     Atomic      Atomic             Coordinates (Angstroms)
 Number     Number       Type             X           Y           Z
 ---------------------------------------------------------------------
      1          6           0        0.635402    0.831901   -1.981040
      2          6           0        0.638687   -0.181780   -0.818038
      3          6           0        1.985906   -0.951717   -0.745808
      4          6           0        3.115035    0.002346   -0.316003
      5          6           0        2.766214    0.758727    0.975519
      6          6           0        1.368353    1.390845    0.909880
      7          7           0        0.395884    0.377665    0.518583
      8          6           0       -0.961636    0.517168    1.037121
      9          6           0       -1.957245    1.436205    0.272593
     10          6           0       -2.720192    0.725469   -0.858230
     11          6           0       -3.252585   -0.625505   -0.386848
     12          8           0       -2.201997   -1.435827    0.125974
     13          6           0       -1.625115   -0.849409    1.286240
     14          7           0        1.939766   -2.102113    0.166405
     15          1           0        1.456627    1.550021   -1.911876
     16          1           0       -0.292953    1.405556   -2.024044
     17          1           0        0.746340    0.300686   -2.933744
     18          1           0       -0.153516   -0.913708   -0.998822
     19          1           0        2.219868   -1.341340   -1.744806
     20          1           0        3.308539    0.723620   -1.119521
     21          1           0        4.031887   -0.579526   -0.178115
     22          1           0        3.517605    1.532739    1.176358
     23          1           0        2.789133    0.062430    1.822905
     24          1           0        1.380721    2.264539    0.232303
     25          1           0        1.091778    1.771293    1.899398
     26          1           0       -0.827199    0.959957    2.032142
     27          1           0       -2.694737    1.799535    1.002323
     28          1           0       -1.431021    2.320959   -0.103030
     29          1           0       -2.071797    0.552526   -1.721595
     30          1           0       -3.551984    1.352414   -1.204410
     31          1           0       -3.700369   -1.189494   -1.210278
     32          1           0       -4.023257   -0.485291    0.391904
     33          1           0       -0.878581   -1.558610    1.651655
     34          1           0       -2.408328   -0.731170    2.055630
     35          1           0        1.283680   -2.789336   -0.205901
     36          1           0        1.517043   -1.775548    1.036502
 ---------------------------------------------------------------------

 SCF Done:  E(UB3LYP) =  -617.349185164     A.U. after   28 cycles

 The electronic state is 2-A.
 Alpha  occ. eigenvalues --  -19.02354 -14.19568 -14.18978 -10.11247 -10.11087
 Alpha  occ. eigenvalues --  -10.09774 -10.09556 -10.09364 -10.08831 -10.06527
 Alpha  occ. eigenvalues --  -10.06446 -10.06332 -10.06249 -10.05746  -0.93843
 Alpha  occ. eigenvalues --   -0.82969  -0.78029  -0.69745  -0.67709  -0.66537
 Alpha  occ. eigenvalues --   -0.64529  -0.58828  -0.54663  -0.54311  -0.52237
 Alpha  occ. eigenvalues --   -0.50652  -0.46445  -0.42726  -0.40644  -0.39646
 Alpha  occ. eigenvalues --   -0.38271  -0.37793  -0.36983  -0.35093  -0.34492
 Alpha  occ. eigenvalues --   -0.33896  -0.32258  -0.31367  -0.30569  -0.30010
 Alpha  occ. eigenvalues --   -0.29382  -0.27841  -0.27687  -0.27185  -0.26486
 Alpha  occ. eigenvalues --   -0.26240  -0.24394  -0.23468  -0.22787  -0.21699
 Alpha  occ. eigenvalues --   -0.21550  -0.20371  -0.15951  -0.14437  -0.10208
 Alpha  occ. eigenvalues --    0.04417
 Alpha virt. eigenvalues --    0.06636   0.06846   0.07647   0.08493   0.08807
 Alpha virt. eigenvalues --    0.09327   0.09639   0.09883   0.10902   0.11232
 Alpha virt. eigenvalues --    0.11496   0.11881   0.12743   0.13153   0.13390

  Beta  occ. eigenvalues --  -19.02345 -14.19567 -14.18970 -10.11225 -10.11071
  Beta  occ. eigenvalues --  -10.09761 -10.09552 -10.09360 -10.08808 -10.06514
  Beta  occ. eigenvalues --  -10.06438 -10.06311 -10.06224 -10.05724  -0.93826
  Beta  occ. eigenvalues --   -0.82955  -0.78015  -0.69709  -0.67674  -0.66512
  Beta  occ. eigenvalues --   -0.64498  -0.58790  -0.54610  -0.54269  -0.52195
  Beta  occ. eigenvalues --   -0.50613  -0.46397  -0.42683  -0.40606  -0.39606
  Beta  occ. eigenvalues --   -0.38238  -0.37771  -0.36950  -0.35057  -0.34463
  Beta  occ. eigenvalues --   -0.33861  -0.32229  -0.31337  -0.30539  -0.29983
  Beta  occ. eigenvalues --   -0.29347  -0.27812  -0.27651  -0.27159  -0.26463
  Beta  occ. eigenvalues --   -0.26208  -0.24359  -0.23437  -0.22748  -0.21674
  Beta  occ. eigenvalues --   -0.21524  -0.20336  -0.15905  -0.14422  -0.10188
  Beta virt. eigenvalues --    0.06526   0.07445   0.07651   0.08049   0.09038
  Beta virt. eigenvalues --    0.09219   0.09838   0.10083   0.10142   0.11333
  Beta virt. eigenvalues --    0.11614   0.11845   0.12355   0.13030   0.13475

 Mulliken charges and spin densities:
               1          2
     1  C    0.157287  -0.910859
     2  C   -1.419010   0.908071
     3  C    0.857290  -0.899690
     4  C   -0.203144  -0.219999
     5  C   -0.157335  -0.309744
     6  C    0.622822  -0.771900
     7  N    0.310725  -0.007629
     8  C   -1.552625   1.679721
     9  C    1.676602  -2.177138
    10  C   -0.689821   0.648342
    11  C    0.803943  -1.197835
    12  O   -0.090664   0.024464
    13  C    0.724332  -1.284913
    14  N   -0.252085   0.056872
    15  H   -0.064113   0.208638
    16  H    0.101463   0.018465
    17  H   -0.141982   0.283829
    18  H    0.279669   0.002010
    19  H    0.098403   0.103255
    20  H   -0.004436   0.122707
    21  H    0.096970   0.077391
    22  H   -0.239522   0.403055
    23  H    0.100940   0.041949
    24  H    0.009860   0.113587
    25  H   -0.301386   0.460962
    26  H   -0.400476   0.580026
    27  H   -0.472879   0.657587
    28  H   -0.070403   0.225787
    29  H    0.063145   0.048063
    30  H   -0.700780   0.894734
    31  H   -0.318000   0.508379
    32  H    0.024178   0.094303
    33  H    0.124461   0.068004
    34  H   -0.306213   0.446144
    35  H    0.127157   0.097108
    36  H    0.205630   0.006255
 Sum of Mulliken charges =  -1.00000   1.00000

 Dipole moment (field-independent basis, Debye):
    X=              3.6932    Y=             -3.1552    Z=             -1.5109  Tot=              5.0871
 Quadrupole moment (field-independent basis, Debye-Ang):
   XX=           -160.4358   YY=           -134.6773   ZZ=           -129.7081
   XY=              6.9249   XZ=             -1.0827   YZ=             -3.4282

 Summary of Natural Population Analysis:

                                       Natural Population
                Natural  -----------------------------------------------
    Atom  No    Charge         Core      Valence    Rydberg      Total
 -----------------------------------------------------------------------
      C    1   -0.29858      0.99964     2.29300    0.00594     3.29858
      C    2   -0.01705      0.99956     2.00397    0.01352     3.01705
      C    3   -0.01121      0.99957     1.99942    0.01221     3.01121
      C    4   -0.19368      0.99960     2.18535    0.00873     3.19368
      C    5   -0.19351      0.99962     2.18519    0.00870     3.19351
      C    6   -0.08010      0.99960     2.06908    0.01142     3.08010
      N    7   -0.29934      0.99969     2.78271    0.01695     3.79934
      C    8   -0.01285      0.99956     1.99719    0.01610     3.01285
      C    9   -0.20066      0.99960     2.19113    0.00993     3.20066
      C   10   -0.20658      0.99962     2.19837    0.00859     3.20658
      C   11   -0.00747      0.99958     1.99506    0.01283     3.00747
      O   12   -0.30357      0.99989     3.29476    0.00892     4.30357
      C   13   -0.01150      0.99954     1.99832    0.01364     3.01150
      N   14   -0.42463      0.99977     2.91598    0.00888     3.92463
      H   15    0.09832      0.00000     0.40058    0.00110     0.40168
      H   16    0.10201      0.00000     0.39685    0.00115     0.39799
      H   17    0.09896      0.00000     0.40004    0.00101     0.40104
      H   18    0.10693      0.00000     0.39056    0.00252     0.39307
      H   19    0.08994      0.00000     0.40879    0.00128     0.41006
      H   20    0.09591      0.00000     0.40304    0.00105     0.40409
      H   21    0.10255      0.00000     0.39630    0.00116     0.39745
      H   22    0.09785      0.00000     0.40112    0.00103     0.40215
      H   23    0.09430      0.00000     0.40439    0.00131     0.40570
      H   24    0.08024      0.00000     0.41806    0.00169     0.41976
      H   25    0.09889      0.00000     0.39939    0.00172     0.40111
      H   26    0.10227      0.00000     0.39574    0.00200     0.39773
      H   27    0.10208      0.00000     0.39551    0.00241     0.39792
      H   28    0.10337      0.00000     0.39524    0.00139     0.39663
      H   29    0.09548      0.00000     0.40275    0.00176     0.40452
      H   30    0.10277      0.00000     0.39538    0.00186     0.39723
      H   31    0.09007      0.00000     0.40863    0.00130     0.40993
      H   32    0.07705      0.00000     0.42132    0.00163     0.42295
      H   33    0.09252      0.00000     0.40578    0.00171     0.40748
      H   34    0.08115      0.00000     0.41742    0.00143     0.41885
      H   35    0.17188      0.00000     0.32631    0.00181     0.32812
      H   36    0.17621      0.00000     0.32125    0.00254     0.32379
 =======================================================================
   * Total *    0.00000     13.99483    40.81395    0.19122    55.00000

 Normal termination of Gaussian 16 at Thu Dec 10 10:15:18 2020.
