 Gaussian 16, Revision A.03,

 -----------------------------------------------------------
 # opt freq B3LYP/6-31G(d) empiricaldispersion=gd3bj scf=xqc
 -----------------------------------------------------------

 -------------------------------
 CID_129932386_JID_4417_neutraal
 -------------------------------
 Symbolic Z-matrix:
 Charge =  0 Multiplicity = 1

 SCF Done:  E(RB3LYP) =  -649.495019144     A.U. after   15 cycles
 SCF Done:  E(RB3LYP) =  -649.500245739     A.U. after   13 cycles
 SCF Done:  E(RB3LYP) =  -649.500861203     A.U. after   12 cycles
 SCF Done:  E(RB3LYP) =  -649.501713144     A.U. after   12 cycles
 SCF Done:  E(RB3LYP) =  -649.501917410     A.U. after   12 cycles
 SCF Done:  E(RB3LYP) =  -649.502027021     A.U. after   11 cycles
 SCF Done:  E(RB3LYP) =  -649.502099977     A.U. after   10 cycles
 SCF Done:  E(RB3LYP) =  -649.502128736     A.U. after   11 cycles
 SCF Done:  E(RB3LYP) =  -649.502138062     A.U. after    9 cycles
 SCF Done:  E(RB3LYP) =  -649.502147736     A.U. after   10 cycles
 SCF Done:  E(RB3LYP) =  -649.502154933     A.U. after   10 cycles
 SCF Done:  E(RB3LYP) =  -649.502160597     A.U. after   10 cycles
 SCF Done:  E(RB3LYP) =  -649.502162679     A.U. after    9 cycles
 SCF Done:  E(RB3LYP) =  -649.502163045     A.U. after    8 cycles
 SCF Done:  E(RB3LYP) =  -649.502163107     A.U. after    7 cycles
 Optimization completed.
    -- Stationary point found.
 Normal termination of Gaussian 16 at Thu Dec 10 09:43:59 2020.

 --------------------------------------------------------------------
 #N Geom=AllCheck Guess=TCheck SCRF=Check GenChk RB3LYP/6-31G(d) Freq
 --------------------------------------------------------------------

 Structure from the checkpoint file:  "JID_4417.chk"
 -------------------------------
 CID_129932386_JID_4417_neutraal
 -------------------------------
 Charge =  0 Multiplicity = 1

 SCF Done:  E(RB3LYP) =  -649.502163107     A.U. after    1 cycles

  Exact polarizability: 164.999  -5.367 117.132   1.477   9.003  79.698
 Approx polarizability: 216.068  -4.516 195.920  -0.736  19.818 123.076

                      1                      2                      3
                      A                      A                      A
 Frequencies --     33.1094                53.8410                84.4677
 Red. masses --      3.8924                 4.2025                 4.8622
 Frc consts  --      0.0025                 0.0072                 0.0204
 IR Inten    --      0.1240                 0.5053                 4.0919

                      4                      5                      6
                      A                      A                      A
 Frequencies --    140.1259               162.3509               200.0035
 Red. masses --      4.4524                 3.9549                 4.2505
 Frc consts  --      0.0515                 0.0614                 0.1002
 IR Inten    --      1.4554                 2.9131                 0.5808

                      7                      8                      9
                      A                      A                      A
 Frequencies --    232.3874               258.6000               320.9349
 Red. masses --      3.2326                 4.0875                 3.7092
 Frc consts  --      0.1029                 0.1610                 0.2251
 IR Inten    --      1.2726                13.8211                 1.8115

                     10                     11                     12
                      A                      A                      A
 Frequencies --    332.2529               360.1557               385.0226
 Red. masses --      2.3971                 1.1651                 2.6312
 Frc consts  --      0.1559                 0.0890                 0.2298
 IR Inten    --      9.2990                90.6466                 5.1154

                     13                     14                     15
                      A                      A                      A
 Frequencies --    432.2575               462.0047               537.1297
 Red. masses --      3.5943                 2.9122                 4.6226
 Frc consts  --      0.3957                 0.3662                 0.7858
 IR Inten    --      8.4359                10.0566                 2.8821

                     16                     17                     18
                      A                      A                      A
 Frequencies --    551.7277               584.3924               615.6317
 Red. masses --      2.9047                 2.1400                 4.0101
 Frc consts  --      0.5210                 0.4306                 0.8955
 IR Inten    --     11.3815                51.8579                 4.2959

                     19                     20                     21
                      A                      A                      A
 Frequencies --    644.3839               661.5382               736.8985
 Red. masses --      3.5138                 1.9266                 1.4100
 Frc consts  --      0.8596                 0.4968                 0.4511
 IR Inten    --      5.4134                 6.9788                30.7425

                     22                     23                     24
                      A                      A                      A
 Frequencies --    739.9968               757.8918               818.5767
 Red. masses --      2.5689                 3.9490                 1.3233
 Frc consts  --      0.8288                 1.3364                 0.5224
 IR Inten    --     48.3574                47.2492                17.1385

                     25                     26                     27
                      A                      A                      A
 Frequencies --    833.2953               837.5253               874.5439
 Red. masses --      1.8653                 2.4956                 1.4138
 Frc consts  --      0.7631                 1.0314                 0.6371
 IR Inten    --     10.9332                 3.3176                 0.4306

                     28                     29                     30
                      A                      A                      A
 Frequencies --    882.7512               910.9471               913.7007
 Red. masses --      2.6802                 3.1313                 2.6197
 Frc consts  --      1.2305                 1.5310                 1.2886
 IR Inten    --      4.3880                 5.0040                 8.0359

                     31                     32                     33
                      A                      A                      A
 Frequencies --    935.9527               974.1722              1010.6462
 Red. masses --      1.7895                 2.8472                 2.1838
 Frc consts  --      0.9236                 1.5920                 1.3142
 IR Inten    --     16.9104                17.9512                82.6206

                     34                     35                     36
                      A                      A                      A
 Frequencies --   1028.5976              1059.3379              1078.6452
 Red. masses --      2.2560                 2.1922                 1.3199
 Frc consts  --      1.4063                 1.4494                 0.9048
 IR Inten    --     40.9347                18.7902                23.2749

                     37                     38                     39
                      A                      A                      A
 Frequencies --   1087.9800              1118.2885              1141.4742
 Red. masses --      1.6522                 1.7640                 1.5856
 Frc consts  --      1.1523                 1.2997                 1.2173
 IR Inten    --      7.1947                40.9672                65.4943

                     40                     41                     42
                      A                      A                      A
 Frequencies --   1145.6969              1164.3146              1202.3848
 Red. masses --      1.5713                 2.3713                 1.4159
 Frc consts  --      1.2152                 1.8940                 1.2061
 IR Inten    --     36.8893                11.9273                24.2162

                     43                     44                     45
                      A                      A                      A
 Frequencies --   1236.4665              1270.5322              1280.8931
 Red. masses --      1.8975                 2.7118                 1.4622
 Frc consts  --      1.7092                 2.5791                 1.4134
 IR Inten    --     94.2158                29.2262                41.5205

                     46                     47                     48
                      A                      A                      A
 Frequencies --   1294.4543              1304.9151              1324.5841
 Red. masses --      1.4018                 1.2443                 1.4686
 Frc consts  --      1.3839                 1.2483                 1.5181
 IR Inten    --     11.7830                10.1137                56.7857

                     49                     50                     51
                      A                      A                      A
 Frequencies --   1371.6030              1393.0363              1402.5863
 Red. masses --      1.3200                 1.6195                 1.4423
 Frc consts  --      1.4631                 1.8517                 1.6717
 IR Inten    --     12.3256                87.7695                 5.2113

                     52                     53                     54
                      A                      A                      A
 Frequencies --   1409.3579              1418.7239              1447.0797
 Red. masses --      1.5335                 1.8071                 1.4321
 Frc consts  --      1.7946                 2.1431                 1.7669
 IR Inten    --      6.2073                20.0321                28.5383

                     55                     56                     57
                      A                      A                      A
 Frequencies --   1455.7839              1461.8923              1474.9380
 Red. masses --      4.2220                 2.2772                 3.3266
 Frc consts  --      5.2718                 2.8673                 4.2638
 IR Inten    --     57.8102                22.9153               379.9216

                     58                     59                     60
                      A                      A                      A
 Frequencies --   1495.6299              1503.8842              1513.2836
 Red. masses --      3.4015                 1.1021                 1.0883
 Frc consts  --      4.4830                 1.4686                 1.4683
 IR Inten    --      0.8982                 2.8673                 8.3712

                     61                     62                     63
                      A                      A                      A
 Frequencies --   1522.3275              1536.3247              1599.3966
 Red. masses --      1.0984                 1.0908                 3.7358
 Frc consts  --      1.4998                 1.5170                 5.6304
 IR Inten    --     10.5604                 4.6024                27.4646

                     64                     65                     66
                      A                      A                      A
 Frequencies --   1702.0165              3040.1990              3054.6978
 Red. masses --     11.5017                 1.0645                 1.0639
 Frc consts  --     19.6309                 5.7972                 5.8490
 IR Inten    --    256.9607                26.7283                14.9941

                     67                     68                     69
                      A                      A                      A
 Frequencies --   3055.5594              3058.5804              3087.1534
 Red. masses --      1.0706                 1.0624                 1.0992
 Frc consts  --      5.8892                 5.8558                 6.1722
 IR Inten    --     26.7013                28.4315                53.1552

                     70                     71                     72
                      A                      A                      A
 Frequencies --   3099.8450              3110.5284              3154.5809
 Red. masses --      1.1015                 1.1032                 1.0853
 Frc consts  --      6.2363                 6.2889                 6.3634
 IR Inten    --     36.9554                44.6592                16.5543

                     73                     74                     75
                      A                      A                      A
 Frequencies --   3168.2978              3258.6613              3273.0905
 Red. masses --      1.0930                 1.0897                 1.0960
 Frc consts  --      6.4645                 6.8177                 6.9179
 IR Inten    --      4.4300                 5.7301                 4.8749

                     76                     77                     78
                      A                      A                      A
 Frequencies --   3285.5458              3640.3471              3735.7242
 Red. masses --      1.1036                 1.0801                 1.0661
 Frc consts  --      7.0191                 8.4334                 8.7657
 IR Inten    --      2.7035                87.9061                12.5737

 - Thermochemistry -
 -------------------
 Temperature   298.150 Kelvin.  Pressure   1.00000 Atm.
 Atom     1 has atomic number  6 and mass  12.00000

 Molecular mass:   194.10553 amu.
 Principal axes and moments of inertia in atomic units:
                           1         2         3
     Eigenvalues --  1270.488244122.367764687.45783
           X            0.99995  -0.00474   0.00834
           Y            0.00456   0.99976   0.02152
           Z           -0.00844  -0.02148   0.99973
 This molecule is an asymmetric top.
 Rotational symmetry number  1.
 Warning -- assumption of classical behavior for rotation
           may cause significant error
 Rotational temperatures (Kelvin)      0.06817     0.02101     0.01848
 Rotational constants (GHZ):           1.42051     0.43779     0.38501
 Zero-point vibrational energy     626534.9 (Joules/Mol)
                                  149.74544 (Kcal/Mol)
 Warning -- explicit consideration of  18 degrees of freedom as
           vibrations may cause significant error
 Vibrational temperatures:     47.64    77.47   121.53   201.61   233.59
          (Kelvin)            287.76   334.35   372.07   461.75   478.04
                              518.18   553.96   621.92   664.72   772.81
                              793.81   840.81   885.76   927.12   951.81
                             1060.23  1064.69  1090.44  1177.75  1198.93
                             1205.01  1258.27  1270.08  1310.65  1314.61
                             1346.63  1401.62  1454.09  1479.92  1524.15
                             1551.93  1565.36  1608.97  1642.33  1648.40
                             1675.19  1729.96  1779.00  1828.01  1842.92
                             1862.43  1877.48  1905.78  1973.43  2004.27
                             2018.01  2027.75  2041.23  2082.02  2094.55
                             2103.34  2122.11  2151.88  2163.75  2177.28
                             2190.29  2210.43  2301.17  2448.82  4374.17
                             4395.03  4396.27  4400.62  4441.73  4459.99
                             4475.36  4538.74  4558.47  4688.49  4709.25
                             4727.17  5237.65  5374.87

 Zero-point correction=                           0.238635 (Hartree/Particle)
 Thermal correction to Energy=                    0.250935
 Thermal correction to Enthalpy=                  0.251879
 Thermal correction to Gibbs Free Energy=         0.199357
 Sum of electronic and zero-point Energies=           -649.263529
 Sum of electronic and thermal Energies=              -649.251228
 Sum of electronic and thermal Enthalpies=            -649.250284
 Sum of electronic and thermal Free Energies=         -649.302806

                     E (Thermal)             CV                S
                      KCal/Mol        Cal/Mol-Kelvin    Cal/Mol-Kelvin
 Total                  157.464             48.306            110.542
 Electronic               0.000              0.000              0.000
 Translational            0.889              2.981             41.695
 Rotational               0.889              2.981             31.574
 Vibrational            155.687             42.344             37.273
 Vibration     1          0.594              1.983              5.634
 Vibration     2          0.596              1.976              4.671
 Vibration     3          0.601              1.960              3.784
 Vibration     4          0.615              1.913              2.802
 Vibration     5          0.622              1.889              2.522
 Vibration     6          0.638              1.840              2.133
 Vibration     7          0.653              1.791              1.860
 Vibration     8          0.667              1.748              1.671
 Vibration     9          0.706              1.633              1.305
 Vibration    10          0.714              1.611              1.249
 Vibration    11          0.735              1.554              1.121
 Vibration    12          0.754              1.502              1.019
 Vibration    13          0.793              1.400              0.851
 Vibration    14          0.820              1.334              0.760
 Vibration    15          0.892              1.168              0.571
 Vibration    16          0.907              1.136              0.541
 Vibration    17          0.941              1.065              0.477
 Vibration    18          0.975              0.999              0.424

 Optimization completed.
    -- Stationary point found.
 Normal termination of Gaussian 16 at Thu Dec 10 09:51:52 2020.

 ----------------------------------------------------------------------
 # B3LYP/6-311++G(d,p) empiricaldispersion=gd3bj scf=xqc pop=npa geom=c
 heck
 ----------------------------------------------------------------------

 ---------------------------------------
 CID_129932386_JID_4417_Energie_neutraal
 ---------------------------------------
 Structure from the checkpoint file:  "JID_4417.chk"
 Charge =  0 Multiplicity = 1

 SCF Done:  E(RB3LYP) =  -649.694756170     A.U. after   14 cycles
 Normal termination of Gaussian 16 at Thu Dec 10 09:54:35 2020.

 ----------------------------------------------------------------------
 # B3LYP/6-311++G(d,p) empiricaldispersion=gd3bj scf=xqc pop=npa geom=c
 heck
 ----------------------------------------------------------------------

 -------------------------------------
 CID_129932386_JID_4417_Energie_kation
 -------------------------------------
 Structure from the checkpoint file:  "JID_4417.chk"
 Charge =  1 Multiplicity = 2

 SCF Done:  E(UB3LYP) =  -649.393526673     A.U. after   26 cycles
 Normal termination of Gaussian 16 at Thu Dec 10 10:01:44 2020.
 Gaussian 16:  ES64L-G16RevA.03 25-Dec-2016

 ----------------------------------------------------------------------
 # B3LYP/6-311++G(d,p) empiricaldispersion=gd3bj scf=xqc pop=npa geom=c
 heck
 ----------------------------------------------------------------------

 ------------------------------------
 CID_129932386_JID_4417_Energie_anion
 ------------------------------------
 Structure from the checkpoint file:  "JID_4417.chk"
 Charge = -1 Multiplicity = 2

                         Standard orientation:
 ---------------------------------------------------------------------
 Center     Atomic      Atomic             Coordinates (Angstroms)
 Number     Number       Type             X           Y           Z
 ---------------------------------------------------------------------
      1          6           0       -3.344276   -0.644067   -0.502672
      2          6           0       -2.942902    0.762709   -0.964250
      3          6           0       -1.877376    1.365618   -0.045903
      4          7           0       -0.729470    0.452623    0.045701
      5          6           0       -1.051060   -0.888975    0.528613
      6          6           0       -2.105682   -1.538818   -0.364146
      7          8           0       -1.598102   -0.836660    1.843155
      8          6           0        0.535639    0.997274    0.041699
      9          8           0        0.721101    2.218907    0.098515
     10          6           0        1.713152    0.114422   -0.081003
     11          6           0        1.995563   -1.165563   -0.553894
     12          6           0        3.400973   -1.338449   -0.512843
     13          6           0        3.946881   -0.161819   -0.024559
     14          7           0        2.922140    0.697650    0.229681
     15          1           0       -4.053483   -1.092727   -1.207768
     16          1           0       -3.848472   -0.581747    0.468584
     17          1           0       -2.543330    0.717278   -1.986266
     18          1           0       -3.815902    1.425948   -0.985951
     19          1           0       -2.291265    1.536394    0.955717
     20          1           0       -1.503838    2.317799   -0.420241
     21          1           0       -0.131745   -1.472719    0.537061
     22          1           0       -2.369143   -2.513669    0.058927
     23          1           0       -1.651007   -1.709930   -1.348092
     24          1           0       -0.927121   -0.436936    2.419421
     25          1           0        1.279024   -1.882060   -0.928457
     26          1           0        3.952786   -2.219827   -0.808680
     27          1           0        4.974104    0.117481    0.159112
     28          1           0        2.971240    1.670843    0.499338
 ---------------------------------------------------------------------

 SCF Done:  E(UB3LYP) =  -649.682216872     A.U. after   33 cycles
 SCF Done:  E(UB3LYP) =  -649.682216873     a.u. after    1 cycles

 The electronic state is 2-A.
 Alpha  occ. eigenvalues --  -19.02964 -18.98048 -14.25466 -14.23458 -10.16903
 Alpha  occ. eigenvalues --  -10.15741 -10.09850 -10.09831 -10.09515 -10.07185
 Alpha  occ. eigenvalues --  -10.06996 -10.06841 -10.06626 -10.06247  -0.94679
 Alpha  occ. eigenvalues --   -0.92947  -0.87882  -0.82552  -0.70430  -0.67899
 Alpha  occ. eigenvalues --   -0.66268  -0.63959  -0.57677  -0.53709  -0.50850
 Alpha  occ. eigenvalues --   -0.49093  -0.48425  -0.46022  -0.44838  -0.42207
 Alpha  occ. eigenvalues --   -0.37900  -0.36323  -0.35468  -0.34424  -0.33381
 Alpha  occ. eigenvalues --   -0.33093  -0.32239  -0.31257  -0.30997  -0.30110
 Alpha  occ. eigenvalues --   -0.28928  -0.28270  -0.27418  -0.26351  -0.24150
 Alpha  occ. eigenvalues --   -0.23218  -0.22661  -0.19796  -0.16411  -0.15589
 Alpha  occ. eigenvalues --   -0.14500  -0.12267   0.04386
 Alpha virt. eigenvalues --    0.06175   0.06908   0.07499   0.07659   0.08529
 Alpha virt. eigenvalues --    0.08982   0.09879   0.10635   0.10901   0.11439
 Alpha virt. eigenvalues --    0.11939   0.13428   0.13524   0.13601   0.14218

  Beta  occ. eigenvalues --  -19.02936 -18.97979 -14.25402 -14.23442 -10.16841
  Beta  occ. eigenvalues --  -10.15736 -10.09848 -10.09784 -10.09508 -10.07166
  Beta  occ. eigenvalues --  -10.06976 -10.06822 -10.06577 -10.06255  -0.94610
  Beta  occ. eigenvalues --   -0.92842  -0.87791  -0.82489  -0.70386  -0.67815
  Beta  occ. eigenvalues --   -0.66220  -0.63872  -0.57602  -0.53664  -0.50736
  Beta  occ. eigenvalues --   -0.49033  -0.48365  -0.45942  -0.44766  -0.42150
  Beta  occ. eigenvalues --   -0.37840  -0.36230  -0.35404  -0.34356  -0.33327
  Beta  occ. eigenvalues --   -0.32996  -0.32139  -0.31209  -0.30918  -0.30058
  Beta  occ. eigenvalues --   -0.28877  -0.28143  -0.27379  -0.26164  -0.24099
  Beta  occ. eigenvalues --   -0.23173  -0.22622  -0.19760  -0.16320  -0.15373
  Beta  occ. eigenvalues --   -0.14330  -0.12078
  Beta virt. eigenvalues --    0.06600   0.07225   0.07623   0.08141   0.08342
  Beta virt. eigenvalues --    0.09014   0.09264   0.10343   0.11017   0.11270
  Beta virt. eigenvalues --    0.11675   0.12015   0.13608   0.13674   0.13705

 Mulliken charges and spin densities:
               1          2
     1  C   -0.192147  -0.011095
     2  C    0.445813  -0.803524
     3  C   -0.443820   0.362938
     4  N    0.123317   0.099792
     5  C    0.056274  -0.647845
     6  C    0.132373  -0.455249
     7  O   -0.248096   0.044032
     8  C   -0.266656   0.235001
     9  O   -0.367063   0.023500
    10  C    0.897770  -1.205800
    11  C   -0.476890   0.725405
    12  C    1.488371  -1.973167
    13  C   -0.111688   0.096885
    14  N   -0.196050   0.181483
    15  H   -0.484475   0.646986
    16  H    0.119769   0.037353
    17  H    0.056238   0.084544
    18  H   -0.204659   0.363340
    19  H    0.032157   0.129393
    20  H    0.052553   0.139768
    21  H    0.353309  -0.205177
    22  H   -0.062066   0.241981
    23  H   -0.208327   0.347924
    24  H   -0.142545   0.432500
    25  H   -0.142717   0.281012
    26  H   -0.252120   0.402625
    27  H   -1.101580   1.270143
    28  H    0.142955   0.155251
 Sum of Mulliken charges =  -1.00000   1.00000

 Dipole moment (field-independent basis, Debye):
    X=             -2.2690    Y=              0.2189    Z=             -0.0497  Tot=              2.2801
 Quadrupole moment (field-independent basis, Debye-Ang):
   XX=           -168.3248   YY=           -118.3915   ZZ=           -115.2061
   XY=             -1.2743   XZ=             -4.9935   YZ=             -0.4418

 Summary of Natural Population Analysis:

                                       Natural Population
                Natural  -----------------------------------------------
    Atom  No    Charge         Core      Valence    Rydberg      Total
 -----------------------------------------------------------------------
      C    1   -0.19255      0.99963     2.18443    0.00849     3.19255
      C    2   -0.19383      0.99963     2.18549    0.00872     3.19383
      C    3   -0.08810      0.99960     2.07860    0.00991     3.08810
      N    4   -0.26313      0.99964     2.75215    0.01134     3.76313
      C    5    0.15288      0.99956     1.83191    0.01565     2.84712
      C    6   -0.19786      0.99960     2.18900    0.00926     3.19786
      O    7   -0.37508      0.99989     3.36914    0.00604     4.37508
      C    8    0.33813      0.99958     1.64123    0.02106     2.66187
      O    9   -0.33101      0.99989     3.32566    0.00547     4.33101
      C   10    0.01539      0.99951     1.97184    0.01325     2.98461
      C   11   -0.12184      0.99953     2.11432    0.00799     3.12184
      C   12   -0.15126      0.99957     2.14213    0.00955     3.15126
      C   13   -0.00237      0.99959     1.98963    0.01315     3.00237
      N   14   -0.24784      0.99966     2.73741    0.01077     3.74784
      H   15    0.09959      0.00000     0.39901    0.00140     0.40041
      H   16    0.10042      0.00000     0.39820    0.00138     0.39958
      H   17    0.09543      0.00000     0.40323    0.00134     0.40457
      H   18    0.10011      0.00000     0.39884    0.00105     0.39989
      H   19    0.09473      0.00000     0.40386    0.00141     0.40527
      H   20    0.11356      0.00000     0.38523    0.00122     0.38644
      H   21    0.09428      0.00000     0.40346    0.00226     0.40572
      H   22    0.10420      0.00000     0.39479    0.00101     0.39580
      H   23    0.10064      0.00000     0.39780    0.00156     0.39936
      H   24    0.23312      0.00000     0.26329    0.00359     0.26688
      H   25    0.10509      0.00000     0.39376    0.00115     0.39491
      H   26    0.10442      0.00000     0.39465    0.00093     0.39558
      H   27    0.10151      0.00000     0.39601    0.00248     0.39849
      H   28    0.21135      0.00000     0.28624    0.00241     0.28865
 =======================================================================
   * Total *   -0.00000     13.99488    37.83128    0.17385    52.00000

 Normal termination of Gaussian 16 at Thu Dec 10 10:13:38 2020.
