 Gaussian 16, Revision A.03,

 -----------------------------------------------------------
 # opt freq B3LYP/6-31G(d) empiricaldispersion=gd3bj scf=xqc
 -----------------------------------------------------------

 ------------------------------
 CID_140112499_JID_716_neutraal
 ------------------------------
 Symbolic Z-matrix:
 Charge =  0 Multiplicity = 1

 SCF Done:  E(RB3LYP) =  -429.022341218     A.U. after   13 cycles
 SCF Done:  E(RB3LYP) =  -429.026452707     A.U. after   10 cycles
 SCF Done:  E(RB3LYP) =  -429.026613622     A.U. after   10 cycles
 SCF Done:  E(RB3LYP) =  -429.026886567     A.U. after   10 cycles
 SCF Done:  E(RB3LYP) =  -429.026929195     A.U. after    9 cycles
 SCF Done:  E(RB3LYP) =  -429.026940257     A.U. after    8 cycles
 SCF Done:  E(RB3LYP) =  -429.026941806     A.U. after    7 cycles
 SCF Done:  E(RB3LYP) =  -429.026941965     A.U. after    6 cycles
 Optimization completed.
    -- Stationary point found.

 1\1\GINC-NODE203\FOpt\RB3LYP\6-31G(d)\C9H18O1\VSC10255\08-Dec-2020\0\\
 # opt freq B3LYP/6-31G(d) empiricaldispersion=gd3bj scf=xqc\\CID_14011
 2499_JID_716_neutraal\\0,1\C,1.0936032775,0.069458953,0.0380128525\C,0
 .7161671719,-0.2559922789,1.4852636352\C,1.6257707056,0.4280320073,2.5
 046935504\C,1.1767519049,0.2511888607,3.9809112752\C,0.5437606652,1.66
 58098291,3.9370753998\C,1.3985822323,1.9649192254,2.6572231773\C,2.696
 0454485,2.7374294517,2.8711880136\C,0.6284638322,2.5061389103,5.205998
 5835\O,-0.2699533991,3.6053215873,5.2451421422\C,0.0713752278,4.660728

 Normal termination of Gaussian 16 at Tue Dec  8 12:51:17 2020.

 --------------------------------------------------------------------
 #N Geom=AllCheck Guess=TCheck SCRF=Check GenChk RB3LYP/6-31G(d) Freq
 --------------------------------------------------------------------

 Structure from the checkpoint file:  "JID_716.chk"
 ------------------------------
 CID_140112499_JID_716_neutraal
 ------------------------------
 Charge =  0 Multiplicity = 1

 SCF Done:  E(RB3LYP) =  -429.026941965     A.U. after    1 cycles

  Exact polarizability: 108.145  -1.621  93.160  -0.182  -0.632  86.230
 Approx polarizability: 130.560  -1.011 130.608   2.550  -0.653 128.119

                      1                      2                      3
                      A                      A                      A
 Frequencies --     58.0643                78.8010               107.1997
 Red. masses --      3.3697                 2.6533                 2.4712
 Frc consts  --      0.0067                 0.0097                 0.0167
 IR Inten    --      0.0143                 2.1735                 0.4938

                      4                      5                      6
                      A                      A                      A
 Frequencies --    141.4854               167.9432               207.9268
 Red. masses --      2.2944                 2.0844                 1.6224
 Frc consts  --      0.0271                 0.0346                 0.0413
 IR Inten    --      0.4240                 1.7459                 0.0651

                      7                      8                      9
                      A                      A                      A
 Frequencies --    230.3669               234.0270               265.5917
 Red. masses --      1.6630                 1.4328                 1.1749
 Frc consts  --      0.0520                 0.0462                 0.0488
 IR Inten    --      0.2460                 0.4453                 0.4619

                     10                     11                     12
                      A                      A                      A
 Frequencies --    279.3473               288.3914               345.7290
 Red. masses --      1.6613                 2.1999                 2.7876
 Frc consts  --      0.0764                 0.1078                 0.1963
 IR Inten    --      2.1267                 0.9403                 2.8582

                     13                     14                     15
                      A                      A                      A
 Frequencies --    394.5133               423.3111               486.3933
 Red. masses --      2.5444                 2.2734                 2.8242
 Frc consts  --      0.2333                 0.2400                 0.3937
 IR Inten    --      0.5093                 0.6873                 2.6509

                     16                     17                     18
                      A                      A                      A
 Frequencies --    534.3987               692.2801               769.6400
 Red. masses --      2.1988                 2.6848                 1.4343
 Frc consts  --      0.3700                 0.7581                 0.5006
 IR Inten    --      2.7565                 9.7507                 0.9538

                     19                     20                     21
                      A                      A                      A
 Frequencies --    791.2425               834.5862               894.8168
 Red. masses --      2.4953                 1.5888                 1.7127
 Frc consts  --      0.9204                 0.6520                 0.8080
 IR Inten    --      0.7574                 0.2583                 3.3038

                     22                     23                     24
                      A                      A                      A
 Frequencies --    929.2843               947.7576               971.4935
 Red. masses --      1.8186                 2.9981                 1.7695
 Frc consts  --      0.9253                 1.5867                 0.9840
 IR Inten    --      2.6807                18.4340                11.2446

                     25                     26                     27
                      A                      A                      A
 Frequencies --    985.1278              1013.6262              1043.2075
 Red. masses --      2.3640                 1.6333                 1.5298
 Frc consts  --      1.3517                 0.9887                 0.9809
 IR Inten    --      0.4267                 1.9829                 0.8433

                     28                     29                     30
                      A                      A                      A
 Frequencies --   1045.6211              1070.1822              1094.5342
 Red. masses --      1.3112                 2.1768                 2.1655
 Frc consts  --      0.8446                 1.4689                 1.5285
 IR Inten    --      1.9335                 0.4386                 7.8655

                     31                     32                     33
                      A                      A                      A
 Frequencies --   1131.5434              1150.7847              1156.4509
 Red. masses --      1.8429                 2.4489                 2.2695
 Frc consts  --      1.3903                 1.9107                 1.7882
 IR Inten    --      0.8871                 7.5800                72.3133

                     34                     35                     36
                      A                      A                      A
 Frequencies --   1186.2634              1193.2607              1209.5557
 Red. masses --      1.8228                 1.4765                 1.8744
 Frc consts  --      1.5113                 1.2387                 1.6157
 IR Inten    --     23.9335                 6.8690                 5.6128

                     37                     38                     39
                      A                      A                      A
 Frequencies --   1232.0573              1252.4252              1273.5724
 Red. masses --      1.6688                 1.5304                 1.4047
 Frc consts  --      1.4925                 1.4144                 1.3424
 IR Inten    --     35.9918                 2.6410                 0.2587

                     40                     41                     42
                      A                      A                      A
 Frequencies --   1285.6112              1302.9486              1312.3715
 Red. masses --      1.4049                 1.3827                 1.3757
 Frc consts  --      1.3681                 1.3830                 1.3960
 IR Inten    --      1.4900                 2.1921                 1.4859

                     43                     44                     45
                      A                      A                      A
 Frequencies --   1325.9012              1352.3850              1378.0991
 Red. masses --      1.2695                 1.2708                 1.3930
 Frc consts  --      1.3149                 1.3694                 1.5587
 IR Inten    --      2.5467                 4.7444                 7.5740

                     46                     47                     48
                      A                      A                      A
 Frequencies --   1379.6550              1415.4099              1428.8249
 Red. masses --      1.3553                 1.5569                 1.3583
 Frc consts  --      1.5200                 1.8377                 1.6338
 IR Inten    --      0.9123                 0.6375                26.1384

                     49                     50                     51
                      A                      A                      A
 Frequencies --   1440.6205              1440.7489              1500.3964
 Red. masses --      1.2473                 1.2544                 1.1245
 Frc consts  --      1.5251                 1.5341                 1.4915
 IR Inten    --      6.3139                 4.6651                 0.6824

                     52                     53                     54
                      A                      A                      A
 Frequencies --   1514.7040              1518.0722              1519.2183
 Red. masses --      1.0859                 1.0653                 1.0693
 Frc consts  --      1.4680                 1.4465                 1.4541
 IR Inten    --      1.6244                 1.2948                 3.6104

                     55                     56                     57
                      A                      A                      A
 Frequencies --   1522.3365              1528.2959              1529.8849
 Red. masses --      1.1030                 1.0541                 1.0423
 Frc consts  --      1.5060                 1.4506                 1.4373
 IR Inten    --      3.5378                 1.5970                 4.9319

                     58                     59                     60
                      A                      A                      A
 Frequencies --   1533.2554              1537.5613              1542.0679
 Red. masses --      1.0539                 1.0683                 1.0569
 Frc consts  --      1.4598                 1.4880                 1.4808
 IR Inten    --      4.4940                 2.5900                11.1942

                     61                     62                     63
                      A                      A                      A
 Frequencies --   2988.0841              2996.1716              3024.3240
 Red. masses --      1.0547                 1.0536                 1.0619
 Frc consts  --      5.5482                 5.5728                 5.7224
 IR Inten    --     35.5419                55.3054                18.0619

                     64                     65                     66
                      A                      A                      A
 Frequencies --   3033.9920              3042.7344              3043.5279
 Red. masses --      1.0810                 1.0737                 1.0644
 Frc consts  --      5.8626                 5.8568                 5.8090
 IR Inten    --     22.0746                15.3310                 7.0540

                     67                     68                     69
                      A                      A                      A
 Frequencies --   3044.9298              3046.0132              3056.3254
 Red. masses --      1.0484                 1.0717                 1.0805
 Frc consts  --      5.7269                 5.8587                 5.9466
 IR Inten    --     48.8595                68.2553                14.8436

                     70                     71                     72
                      A                      A                      A
 Frequencies --   3060.7880              3068.2712              3081.3366
 Red. masses --      1.0789                 1.0860                 1.0945
 Frc consts  --      5.9549                 6.0240                 6.1230
 IR Inten    --     40.8348                37.3637                38.3965

                     73                     74                     75
                      A                      A                      A
 Frequencies --   3102.7755              3107.0076              3109.0855
 Red. masses --      1.1029                 1.1053                 1.1023
 Frc consts  --      6.2556                 6.2868                 6.2777
 IR Inten    --     37.6551                38.3433                56.5836

                     76                     77                     78
                      A                      A                      A
 Frequencies --   3114.5405              3120.5459              3129.4391
 Red. masses --      1.1019                 1.1003                 1.0973
 Frc consts  --      6.2978                 6.3129                 6.3314
 IR Inten    --     47.9687                51.8889                33.8588

 - Thermochemistry -
 -------------------
 Temperature   298.150 Kelvin.  Pressure   1.00000 Atm.
 Atom     1 has atomic number  6 and mass  12.00000

 Molecular mass:   142.13577 amu.
 Principal axes and moments of inertia in atomic units:
                           1         2         3
     Eigenvalues --   786.967072610.352562783.80139
           X            0.99990  -0.00770  -0.01215
           Y            0.00755   0.99989  -0.01277
           Z            0.01224   0.01268   0.99984
 This molecule is an asymmetric top.
 Rotational symmetry number  1.
 Warning -- assumption of classical behavior for rotation
           may cause significant error
 Rotational temperatures (Kelvin)      0.11006     0.03318     0.03111
 Rotational constants (GHZ):           2.29329     0.69138     0.64830
 Zero-point vibrational energy     679425.4 (Joules/Mol)
                                  162.38658 (Kcal/Mol)
 Warning -- explicit consideration of  16 degrees of freedom as
           vibrations may cause significant error
 Vibrational temperatures:     83.54   113.38   154.24   203.57   241.63
          (Kelvin)            299.16   331.45   336.71   382.13   401.92
                              414.93   497.43   567.62   609.05   699.81
                              768.88   996.04  1107.34  1138.42  1200.78
                             1287.44  1337.03  1363.61  1397.76  1417.38
                             1458.38  1500.94  1504.42  1539.75  1574.79
                             1628.04  1655.72  1663.87  1706.77  1716.84
                             1740.28  1772.66  1801.96  1832.39  1849.71
                             1874.65  1888.21  1907.68  1945.78  1982.78
                             1985.02  2036.46  2055.76  2072.73  2072.92
                             2158.74  2179.32  2184.17  2185.82  2190.30
                             2198.88  2201.16  2206.01  2212.21  2218.69
                             4299.19  4310.82  4351.33  4365.24  4377.82
                             4378.96  4380.97  4382.53  4397.37  4403.79
                             4414.56  4433.36  4464.20  4470.29  4473.28
                             4481.13  4489.77  4502.56

 Zero-point correction=                           0.258779 (Hartree/Particle)
 Thermal correction to Energy=                    0.270545
 Thermal correction to Enthalpy=                  0.271490
 Thermal correction to Gibbs Free Energy=         0.221470
 Sum of electronic and zero-point Energies=           -428.768162
 Sum of electronic and thermal Energies=              -428.756397
 Sum of electronic and thermal Enthalpies=            -428.755452
 Sum of electronic and thermal Free Energies=         -428.805472

                     E (Thermal)             CV                S
                      KCal/Mol        Cal/Mol-Kelvin    Cal/Mol-Kelvin
 Total                  169.770             43.636            105.275
 Electronic               0.000              0.000              0.000
 Translational            0.889              2.981             40.766
 Rotational               0.889              2.981             30.126
 Vibrational            167.992             37.674             34.383
 Vibration     1          0.596              1.974              4.522
 Vibration     2          0.600              1.963              3.921
 Vibration     3          0.606              1.943              3.319
 Vibration     4          0.615              1.912              2.784
 Vibration     5          0.625              1.882              2.458
 Vibration     6          0.641              1.829              2.062
 Vibration     7          0.652              1.795              1.876
 Vibration     8          0.654              1.789              1.848
 Vibration     9          0.671              1.736              1.625
 Vibration    10          0.680              1.712              1.538
 Vibration    11          0.685              1.695              1.483
 Vibration    12          0.724              1.584              1.186
 Vibration    13          0.761              1.482              0.983
 Vibration    14          0.785              1.420              0.881
 Vibration    15          0.842              1.280              0.693
 Vibration    16          0.889              1.174              0.577

 Optimization completed.
    -- Stationary point found.

 1\1\GINC-NODE203\Freq\RB3LYP\6-31G(d)\C9H18O1\VSC10255\08-Dec-2020\0\\
 #N Geom=AllCheck Guess=TCheck SCRF=Check GenChk RB3LYP/6-31G(d) Freq\\
 CID_140112499_JID_716_neutraal\\0,1\C,1.0936032775,0.069458953,0.03801
 28525\C,0.7161671719,-0.2559922789,1.4852636352\C,1.6257707056,0.42803
 20073,2.5046935504\C,1.1767519049,0.2511888607,3.9809112752\C,0.543760
 6652,1.6658098291,3.9370753998\C,1.3985822323,1.9649192254,2.657223177
 3\C,2.6960454485,2.7374294517,2.8711880136\C,0.6284638322,2.5061389103
 ,5.2059985835\O,-0.2699533991,3.6053215873,5.2451421422\C,0.0713752278

 Normal termination of Gaussian 16 at Tue Dec  8 13:08:43 2020.

 ----------------------------------------------------------------------
 # B3LYP/6-311++G(d,p) empiricaldispersion=gd3bj scf=xqc pop=npa geom=c
 heck
 ----------------------------------------------------------------------

 --------------------------------------
 CID_140112499_JID_716_Energie_neutraal
 --------------------------------------
 Structure from the checkpoint file:  "JID_716.chk"
 Charge =  0 Multiplicity = 1

 SCF Done:  E(RB3LYP) =  -429.149085292     A.U. after   12 cycles
 Normal termination of Gaussian 16 at Tue Dec  8 13:12:48 2020.

 ----------------------------------------------------------------------
 # B3LYP/6-311++G(d,p) empiricaldispersion=gd3bj scf=xqc pop=npa geom=c
 heck
 ----------------------------------------------------------------------

 ------------------------------------
 CID_140112499_JID_716_Energie_kation
 ------------------------------------
 Structure from the checkpoint file:  "JID_716.chk"
 Charge =  1 Multiplicity = 2

 SCF Done:  E(UB3LYP) =  -428.820770081     A.U. after   21 cycles
 Normal termination of Gaussian 16 at Tue Dec  8 13:23:59 2020.
 Gaussian 16:  ES64L-G16RevA.03 25-Dec-2016

 -----------------------------------
 CID_140112499_JID_716_Energie_anion
 -----------------------------------
 Structure from the checkpoint file:  "JID_716.chk"
 Charge = -1 Multiplicity = 2

                         Standard orientation:
 ---------------------------------------------------------------------
 Center     Atomic      Atomic             Coordinates (Angstroms)
 Number     Number       Type             X           Y           Z
 ---------------------------------------------------------------------
      1          6           0        3.431899    0.803552   -0.768013
      2          6           0        2.580335   -0.459657   -0.619515
      3          6           0        1.551918   -0.354060    0.505524
      4          6           0        0.564553   -1.550438    0.582336
      5          6           0       -0.496367   -0.696841   -0.158996
      6          6           0        0.339680    0.580394    0.198644
      7          6           0       -0.119550    1.374743    1.416873
      8          6           0       -1.951362   -0.879041    0.257282
      9          8           0       -2.897744   -0.381004   -0.677174
     10          6           0       -2.961462    1.026595   -0.739233
     11          1           0        2.808432    1.680670   -0.977776
     12          1           0        4.154865    0.706372   -1.585436
     13          1           0        3.991771    1.008943    0.152507
     14          1           0        3.232012   -1.323199   -0.426742
     15          1           0        2.065304   -0.671739   -1.567282
     16          1           0        2.069104   -0.120194    1.445686
     17          1           0        0.874563   -2.485175    0.102338
     18          1           0        0.264440   -1.774970    1.612293
     19          1           0       -0.441530   -0.884004   -1.237304
     20          1           0        0.492881    1.265388   -0.644695
     21          1           0        0.647863    2.105920    1.697740
     22          1           0       -1.049987    1.920663    1.229095
     23          1           0       -0.284615    0.725478    2.285284
     24          1           0       -2.161374   -1.952828    0.325323
     25          1           0       -2.133146   -0.444800    1.254745
     26          1           0       -3.205470    1.465693    0.241769
     27          1           0       -2.022482    1.475988   -1.095318
     28          1           0       -3.758535    1.278346   -1.444253
 ---------------------------------------------------------------------

 SCF Done:  E(UB3LYP) =  -429.130691950     A.U. after   29 cycles

 The electronic state is 2-A.
 Alpha  occ. eigenvalues --  -19.02275 -10.11236 -10.10730 -10.06813 -10.06657
 Alpha  occ. eigenvalues --  -10.06507 -10.06344 -10.06130 -10.05353 -10.05189
 Alpha  occ. eigenvalues --   -0.93457  -0.75470  -0.66500  -0.63455  -0.61452
 Alpha  occ. eigenvalues --   -0.56867  -0.52431  -0.52044  -0.47954  -0.41990
 Alpha  occ. eigenvalues --   -0.39830  -0.38042  -0.37799  -0.35939  -0.34106
 Alpha  occ. eigenvalues --   -0.32428  -0.31217  -0.30240  -0.29510  -0.28060
 Alpha  occ. eigenvalues --   -0.27800  -0.26494  -0.25468  -0.24112  -0.22688
 Alpha  occ. eigenvalues --   -0.21517  -0.20790  -0.19168  -0.18877  -0.15355
 Alpha  occ. eigenvalues --    0.04802
 Alpha virt. eigenvalues --    0.06865   0.07358   0.07751   0.09074   0.09402
 Alpha virt. eigenvalues --    0.09535   0.10211   0.10507   0.11700   0.12149
 Alpha virt. eigenvalues --    0.12438   0.13153   0.13732   0.14206   0.14925

  Beta  occ. eigenvalues --  -19.02266 -10.11226 -10.10696 -10.06810 -10.06643
  Beta  occ. eigenvalues --  -10.06498 -10.06329 -10.06112 -10.05321 -10.05153
  Beta  occ. eigenvalues --   -0.93438  -0.75448  -0.66466  -0.63419  -0.61410
  Beta  occ. eigenvalues --   -0.56816  -0.52368  -0.51978  -0.47896  -0.41943
  Beta  occ. eigenvalues --   -0.39795  -0.38015  -0.37763  -0.35900  -0.34078
  Beta  occ. eigenvalues --   -0.32392  -0.31176  -0.30203  -0.29479  -0.28026
  Beta  occ. eigenvalues --   -0.27752  -0.26443  -0.25428  -0.24076  -0.22653
  Beta  occ. eigenvalues --   -0.21486  -0.20748  -0.19141  -0.18848  -0.15336
  Beta virt. eigenvalues --    0.07045   0.07791   0.08080   0.08320   0.09614
  Beta virt. eigenvalues --    0.09858   0.10189   0.10855   0.10959   0.12159
  Beta virt. eigenvalues --    0.12681   0.12900   0.13530   0.14059   0.14540

 Mulliken charges and spin densities:
               1          2
     1  C    1.431949  -2.065509
     2  C   -0.836253   0.537205
     3  C   -0.303491   0.797175
     4  C    0.014363  -0.842001
     5  C   -0.519690   0.827828
     6  C   -0.242311   0.201847
     7  C    1.410465  -2.081866
     8  C    0.215724  -0.915923
     9  O   -0.162944   0.050436
    10  C    0.820177  -1.146722
    11  H   -0.474448   0.619409
    12  H   -0.314117   0.449195
    13  H   -0.191208   0.318267
    14  H   -0.406818   0.551534
    15  H   -0.101023   0.240090
    16  H   -0.203952   0.422977
    17  H    0.035171   0.102063
    18  H   -0.229265   0.382393
    19  H    0.152748   0.062341
    20  H    0.353333  -0.172544
    21  H   -0.199228   0.345037
    22  H   -0.146379   0.276532
    23  H   -0.169011   0.328464
    24  H   -0.010858   0.185529
    25  H    0.050981   0.102223
    26  H   -0.237315   0.362319
    27  H   -0.517403   0.684809
    28  H   -0.219198   0.376892
 Sum of Mulliken charges =  -1.00000   1.00000

 Dipole moment (field-independent basis, Debye):
    X=             -2.0814    Y=             -3.2988    Z=              0.3974  Tot=              3.9208
 Quadrupole moment (field-independent basis, Debye-Ang):
   XX=           -136.8678   YY=           -106.7715   ZZ=           -103.1024
   XY=              1.3561   XZ=              0.6291   YZ=              1.2090

 Summary of Natural Population Analysis:

                                       Natural Population
                Natural  -----------------------------------------------
    Atom  No    Charge         Core      Valence    Rydberg      Total
 -----------------------------------------------------------------------
      C    1   -0.28473      0.99967     2.28017    0.00489     3.28473
      C    2   -0.18727      0.99962     2.17811    0.00953     3.18727
      C    3   -0.10397      0.99958     2.09265    0.01174     3.10397
      C    4   -0.18512      0.99961     2.17643    0.00908     3.18512
      C    5   -0.12404      0.99958     2.11425    0.01021     3.12404
      C    6   -0.10430      0.99958     2.09271    0.01201     3.10430
      C    7   -0.28945      0.99964     2.28272    0.00709     3.28945
      C    8   -0.00609      0.99953     1.99499    0.01157     3.00609
      O    9   -0.29984      0.99989     3.28969    0.01026     4.29984
      C   10   -0.09907      0.99961     2.08950    0.00997     3.09907
      H   11    0.09805      0.00000     0.40042    0.00153     0.40195
      H   12    0.09850      0.00000     0.40030    0.00119     0.40150
      H   13    0.09617      0.00000     0.40239    0.00144     0.40383
      H   14    0.09517      0.00000     0.40367    0.00116     0.40483
      H   15    0.09282      0.00000     0.40563    0.00155     0.40718
      H   16    0.09362      0.00000     0.40476    0.00162     0.40638
      H   17    0.09650      0.00000     0.40245    0.00106     0.40350
      H   18    0.09732      0.00000     0.40145    0.00123     0.40268
      H   19    0.10163      0.00000     0.39674    0.00162     0.39837
      H   20    0.09773      0.00000     0.40060    0.00167     0.40227
      H   21    0.10324      0.00000     0.39545    0.00130     0.39676
      H   22    0.10063      0.00000     0.39803    0.00134     0.39937
      H   23    0.09559      0.00000     0.40296    0.00145     0.40441
      H   24    0.08894      0.00000     0.40953    0.00152     0.41106
      H   25    0.08003      0.00000     0.41848    0.00149     0.41997
      H   26    0.07786      0.00000     0.42052    0.00161     0.42214
      H   27    0.08138      0.00000     0.41690    0.00173     0.41862
      H   28    0.08869      0.00000     0.41011    0.00120     0.41131
 =======================================================================
   * Total *   -0.00000      9.99632    29.88160    0.12208    40.00000

 Normal termination of Gaussian 16 at Tue Dec  8 13:35:19 2020.
