 Gaussian 16, Revision A.03,

 -----------------------------------------------------------
 # opt freq B3LYP/6-31G(d) empiricaldispersion=gd3bj scf=xqc
 -----------------------------------------------------------

 -----------------------------
 CID_4488497_JID_2246_neutraal
 -----------------------------
 Symbolic Z-matrix:
 Charge =  0 Multiplicity = 1

 SCF Done:  E(RB3LYP) =  -541.171341294     A.U. after   14 cycles
 SCF Done:  E(RB3LYP) =  -541.175382464     A.U. after   12 cycles
 SCF Done:  E(RB3LYP) =  -541.175099539     A.U. after   12 cycles
 SCF Done:  E(RB3LYP) =  -541.175752028     A.U. after   11 cycles
 SCF Done:  E(RB3LYP) =  -541.175818191     A.U. after   11 cycles
 SCF Done:  E(RB3LYP) =  -541.175834030     A.U. after   10 cycles
 SCF Done:  E(RB3LYP) =  -541.175834758     A.U. after   10 cycles
 SCF Done:  E(RB3LYP) =  -541.175839346     A.U. after    9 cycles
 SCF Done:  E(RB3LYP) =  -541.175840056     A.U. after    8 cycles
 SCF Done:  E(RB3LYP) =  -541.175840206     A.U. after    8 cycles
 SCF Done:  E(RB3LYP) =  -541.175840321     A.U. after    7 cycles
 SCF Done:  E(RB3LYP) =  -541.175840353     A.U. after    7 cycles
 Optimization completed.
    -- Stationary point found.
 Normal termination of Gaussian 16 at Wed Dec  9 16:57:46 2020.

 --------------------------------------------------------------------
 #N Geom=AllCheck Guess=TCheck SCRF=Check GenChk RB3LYP/6-31G(d) Freq
 --------------------------------------------------------------------

 Structure from the checkpoint file:  "JID_2246.chk"
 -----------------------------
 CID_4488497_JID_2246_neutraal
 -----------------------------
 Charge =  0 Multiplicity = 1

 SCF Done:  E(RB3LYP) =  -541.175840353     A.U. after    1 cycles

  Exact polarizability: 121.843   4.405  91.973  -2.901  -1.547  99.771
 Approx polarizability: 160.983  13.424 134.658  -4.706  -5.184 154.895

                      1                      2                      3
                      A                      A                      A
 Frequencies --     31.6276                64.5266               102.7256
 Red. masses --      2.5376                 3.1348                 4.2552
 Frc consts  --      0.0015                 0.0077                 0.0265
 IR Inten    --      0.4244                 0.1488                 2.9418

                      4                      5                      6
                      A                      A                      A
 Frequencies --    162.7553               183.3122               201.8677
 Red. masses --      3.0585                 1.3124                 1.3227
 Frc consts  --      0.0477                 0.0260                 0.0318
 IR Inten    --      4.3511                 0.5481                 0.1353

                      7                      8                      9
                      A                      A                      A
 Frequencies --    220.8412               267.2280               282.0686
 Red. masses --      2.0131                 3.6589                 3.4292
 Frc consts  --      0.0578                 0.1539                 0.1607
 IR Inten    --      0.4311                 2.7500                 2.5561

                     10                     11                     12
                      A                      A                      A
 Frequencies --    309.5699               317.4327               331.2959
 Red. masses --      2.1708                 2.4854                 2.7135
 Frc consts  --      0.1226                 0.1476                 0.1755
 IR Inten    --      1.0279                 0.7499                 2.7511

                     13                     14                     15
                      A                      A                      A
 Frequencies --    387.2250               409.0927               470.7721
 Red. masses --      4.1019                 3.0434                 2.4037
 Frc consts  --      0.3624                 0.3001                 0.3139
 IR Inten    --      1.2769                 2.0646                 0.4063

                     16                     17                     18
                      A                      A                      A
 Frequencies --    514.5795               553.8503               624.9275
 Red. masses --      3.4598                 2.5221                 3.1997
 Frc consts  --      0.5398                 0.4558                 0.7362
 IR Inten    --      4.2344                 9.6373                 3.9547

                     19                     20                     21
                      A                      A                      A
 Frequencies --    671.8090               707.1756               746.0353
 Red. masses --      2.7223                 1.6220                 2.4234
 Frc consts  --      0.7239                 0.4779                 0.7947
 IR Inten    --      3.7890                 0.7838                 9.6160

                     22                     23                     24
                      A                      A                      A
 Frequencies --    759.1635               807.2791               828.1881
 Red. masses --      2.4293                 2.6990                 2.5042
 Frc consts  --      0.8249                 1.0363                 1.0120
 IR Inten    --      3.2371                 7.2802                 6.7721

                     25                     26                     27
                      A                      A                      A
 Frequencies --    894.9633               924.0868               935.1227
 Red. masses --      2.6387                 1.3659                 2.2058
 Frc consts  --      1.2452                 0.6872                 1.1364
 IR Inten    --      1.4454                38.7147                 3.5543

                     28                     29                     30
                      A                      A                      A
 Frequencies --    956.7621               978.7419              1002.0859
 Red. masses --      1.5865                 1.8281                 2.5008
 Frc consts  --      0.8556                 1.0318                 1.4796
 IR Inten    --      6.4939                 1.1634                35.9146

                     31                     32                     33
                      A                      A                      A
 Frequencies --   1024.6186              1048.2375              1069.7739
 Red. masses --      1.5515                 2.1517                 1.7735
 Frc consts  --      0.9597                 1.3930                 1.1958
 IR Inten    --      1.0022                 7.8722                 0.5225

                     34                     35                     36
                      A                      A                      A
 Frequencies --   1078.3201              1087.0463              1115.1114
 Red. masses --      1.6150                 2.1988                 2.4662
 Frc consts  --      1.1064                 1.5309                 1.8068
 IR Inten    --      8.2796                43.1126                12.1184

                     37                     38                     39
                      A                      A                      A
 Frequencies --   1133.5715              1150.2534              1180.4451
 Red. masses --      2.5180                 2.2333                 2.7083
 Frc consts  --      1.9064                 1.7409                 2.2235
 IR Inten    --     68.6372                42.1735               161.4704

                     40                     41                     42
                      A                      A                      A
 Frequencies --   1205.4752              1267.3637              1291.2973
 Red. masses --      1.3433                 1.1486                 1.6313
 Frc consts  --      1.1502                 1.0870                 1.6027
 IR Inten    --      6.3217                 1.7316                 7.5930

                     43                     44                     45
                      A                      A                      A
 Frequencies --   1318.7044              1328.7822              1342.1174
 Red. masses --      1.3184                 1.5924                 1.2696
 Frc consts  --      1.3508                 1.6566                 1.3474
 IR Inten    --      0.6600                 0.3076                 4.8376

                     46                     47                     48
                      A                      A                      A
 Frequencies --   1366.2858              1382.7363              1404.5690
 Red. masses --      1.2951                 1.2945                 1.3298
 Frc consts  --      1.4244                 1.4583                 1.5457
 IR Inten    --      6.2989                 2.1243                 7.9953

                     49                     50                     51
                      A                      A                      A
 Frequencies --   1414.7530              1424.4633              1443.1709
 Red. masses --      1.3700                 1.6354                 1.2557
 Frc consts  --      1.6156                 1.9551                 1.5409
 IR Inten    --     19.9389                15.2636                 5.7885

                     52                     53                     54
                      A                      A                      A
 Frequencies --   1449.7205              1475.3726              1506.7083
 Red. masses --      1.2179                 1.1993                 1.0675
 Frc consts  --      1.5081                 1.5381                 1.4278
 IR Inten    --      4.0740                 0.4111                 5.3321

                     55                     56                     57
                      A                      A                      A
 Frequencies --   1509.2472              1519.0940              1522.2984
 Red. masses --      1.0809                 1.0656                 1.0585
 Frc consts  --      1.4506                 1.4488                 1.4453
 IR Inten    --      2.5614                 3.6888                20.1139

                     58                     59                     60
                      A                      A                      A
 Frequencies --   1528.6042              1529.9344              1539.8249
 Red. masses --      1.0502                 1.0767                 1.0812
 Frc consts  --      1.4459                 1.4849                 1.5104
 IR Inten    --      5.0604                 5.5547                17.1762

                     61                     62                     63
                      A                      A                      A
 Frequencies --   1724.3723              1838.5998              3042.9542
 Red. masses --      4.7062                11.4524                 1.0763
 Frc consts  --      8.2448                22.8097                 5.8718
 IR Inten    --     10.6557               198.3041                 3.3565

                     64                     65                     66
                      A                      A                      A
 Frequencies --   3052.3310              3056.7455              3058.4721
 Red. masses --      1.0649                 1.0759                 1.0678
 Frc consts  --      5.8454                 5.9230                 5.8851
 IR Inten    --     16.0284                24.6559                25.8870

                     67                     68                     69
                      A                      A                      A
 Frequencies --   3060.9930              3062.3642              3091.4151
 Red. masses --      1.0378                 1.0439                 1.1016
 Frc consts  --      5.7290                 5.7682                 6.2029
 IR Inten    --     16.2785                15.4180                22.6344

                     70                     71                     72
                      A                      A                      A
 Frequencies --   3097.4441              3101.2092              3118.0499
 Red. masses --      1.0649                 1.0960                 1.0956
 Frc consts  --      6.0197                 6.2104                 6.2757
 IR Inten    --     23.6083                44.5672                28.1171

                     73                     74                     75
                      A                      A                      A
 Frequencies --   3128.5048              3136.7319              3140.4849
 Red. masses --      1.1029                 1.1023                 1.1020
 Frc consts  --      6.3598                 6.3901                 6.4033
 IR Inten    --     23.1532                32.0162                16.1450

                     76                     77                     78
                      A                      A                      A
 Frequencies --   3149.4816              3154.3683              3230.7505
 Red. masses --      1.1081                 1.0606                 1.1155
 Frc consts  --      6.4761                 6.2179                 6.8600
 IR Inten    --     18.3283                11.3871                20.1835

 - Thermochemistry -
 -------------------
 Temperature   298.150 Kelvin.  Pressure   1.00000 Atm.
 Atom     1 has atomic number  6 and mass  12.00000

 Molecular mass:   168.11503 amu.
 Principal axes and moments of inertia in atomic units:
                           1         2         3
     Eigenvalues --  1273.363502521.794532608.08956
           X            0.99955  -0.03012   0.00002
           Y            0.03010   0.99901   0.03277
           Z           -0.00101  -0.03276   0.99946
 This molecule is an asymmetric top.
 Rotational symmetry number  1.
 Warning -- assumption of classical behavior for rotation
           may cause significant error
 Rotational temperatures (Kelvin)      0.06802     0.03435     0.03321
 Rotational constants (GHZ):           1.41730     0.71566     0.69198
 Zero-point vibrational energy     649274.9 (Joules/Mol)
                                  155.18042 (Kcal/Mol)
 Warning -- explicit consideration of  17 degrees of freedom as
           vibrations may cause significant error
 Vibrational temperatures:     45.51    92.84   147.80   234.17   263.75
          (Kelvin)            290.44   317.74   384.48   405.83   445.40
                              456.71   476.66   557.13   588.59   677.34
                              740.37   796.87   899.13   966.58  1017.47
                             1073.38  1092.27  1161.49  1191.58  1287.65
                             1329.55  1345.43  1376.57  1408.19  1441.78
                             1474.20  1508.18  1539.17  1551.46  1564.02
                             1604.40  1630.96  1654.96  1698.40  1734.41
                             1823.45  1857.89  1897.32  1911.82  1931.01
                             1965.78  1989.45  2020.86  2035.51  2049.48
                             2076.40  2085.82  2122.73  2167.82  2171.47
                             2185.64  2190.25  2199.32  2201.23  2215.46
                             2480.99  2645.33  4378.13  4391.62  4397.97
                             4400.46  4404.09  4406.06  4447.86  4456.53
                             4461.95  4486.18  4501.22  4513.06  4518.46
                             4531.40  4538.43  4648.33

 Zero-point correction=                           0.247296 (Hartree/Particle)
 Thermal correction to Energy=                    0.259573
 Thermal correction to Enthalpy=                  0.260517
 Thermal correction to Gibbs Free Energy=         0.208919
 Sum of electronic and zero-point Energies=           -540.928545
 Sum of electronic and thermal Energies=              -540.916267
 Sum of electronic and thermal Enthalpies=            -540.915323
 Sum of electronic and thermal Free Energies=         -540.966921

                     E (Thermal)             CV                S
                      KCal/Mol        Cal/Mol-Kelvin    Cal/Mol-Kelvin
 Total                  162.885             47.052            108.597
 Electronic               0.000              0.000              0.000
 Translational            0.889              2.981             41.266
 Rotational               0.889              2.981             30.505
 Vibrational            161.107             41.091             36.825
 Vibration     1          0.594              1.983              5.725
 Vibration     2          0.597              1.971              4.314
 Vibration     3          0.605              1.947              3.402
 Vibration     4          0.623              1.888              2.518
 Vibration     5          0.631              1.863              2.294
 Vibration     6          0.639              1.837              2.116
 Vibration     7          0.648              1.809              1.952
 Vibration     8          0.672              1.733              1.614
 Vibration     9          0.681              1.707              1.521
 Vibration    10          0.699              1.655              1.365
 Vibration    11          0.704              1.640              1.323
 Vibration    12          0.714              1.613              1.254
 Vibration    13          0.756              1.497              1.011
 Vibration    14          0.773              1.450              0.930
 Vibration    15          0.828              1.315              0.735
 Vibration    16          0.870              1.218              0.623
 Vibration    17          0.909              1.131              0.536

 Optimization completed.
    -- Stationary point found.
 Normal termination of Gaussian 16 at Wed Dec  9 17:05:58 2020.

 ----------------------------------------------------------------------
 # B3LYP/6-311++G(d,p) empiricaldispersion=gd3bj scf=xqc pop=npa geom=c
 heck
 ----------------------------------------------------------------------

 -------------------------------------
 CID_4488497_JID_2246_Energie_neutraal
 -------------------------------------
 Structure from the checkpoint file:  "JID_2246.chk"
 Charge =  0 Multiplicity = 1

 SCF Done:  E(RB3LYP) =  -541.329694510     A.U. after   14 cycles
 Normal termination of Gaussian 16 at Wed Dec  9 17:09:59 2020.

 ----------------------------------------------------------------------
 # B3LYP/6-311++G(d,p) empiricaldispersion=gd3bj scf=xqc pop=npa geom=c
 heck
 ----------------------------------------------------------------------

 -----------------------------------
 CID_4488497_JID_2246_Energie_kation
 -----------------------------------
 Structure from the checkpoint file:  "JID_2246.chk"
 Charge =  1 Multiplicity = 2

 SCF Done:  E(UB3LYP) =  -540.999636434     A.U. after   23 cycles
 Normal termination of Gaussian 16 at Wed Dec  9 17:18:15 2020.
 Gaussian 16:  ES64L-G16RevA.03 25-Dec-2016

 ----------------------------------------------------------------------
 # B3LYP/6-311++G(d,p) empiricaldispersion=gd3bj scf=xqc pop=npa geom=c
 heck
 ----------------------------------------------------------------------

 ----------------------------------
 CID_4488497_JID_2246_Energie_anion
 ----------------------------------
 Structure from the checkpoint file:  "JID_2246.chk"
 Charge = -1 Multiplicity = 2

                         Standard orientation:
 ---------------------------------------------------------------------
 Center     Atomic      Atomic             Coordinates (Angstroms)
 Number     Number       Type             X           Y           Z
 ---------------------------------------------------------------------
      1          6           0       -2.934942    1.101149    0.683560
      2          6           0       -1.937653    0.525691   -0.318380
      3          6           0       -0.703588    1.453772   -0.509521
      4          6           0        0.446005    0.929545   -1.392660
      5          6           0        1.369056   -0.204361   -0.845442
      6          6           0        0.647612   -1.580939   -0.795752
      7          8           0       -0.772885   -1.422432   -0.961618
      8          6           0       -1.398992   -0.820369    0.100866
      9          8           0       -1.405585   -1.284110    1.215490
     10          6           0        2.096784    0.197203    0.437443
     11          6           0        3.287495    0.799475    0.341219
     12          6           0        1.483624   -0.070983    1.790863
     13          1           0       -3.267842    2.095823    0.368493
     14          1           0       -2.478521    1.184934    1.674596
     15          1           0       -3.815065    0.457467    0.778303
     16          1           0       -2.405825    0.393901   -1.301787
     17          1           0       -1.074707    2.382125   -0.960519
     18          1           0       -0.315397    1.733573    0.476351
     19          1           0        1.106549    1.779325   -1.597847
     20          1           0        0.038224    0.604256   -2.357357
     21          1           0        2.151664   -0.300600   -1.607121
     22          1           0        0.850896   -2.131533    0.126374
     23          1           0        0.950368   -2.201254   -1.640590
     24          1           0        3.831558    1.135675    1.219895
     25          1           0        3.761271    0.982842   -0.620664
     26          1           0        0.494047    0.380746    1.904392
     27          1           0        1.338774   -1.142499    1.969237
     28          1           0        2.129364    0.316455    2.584094
 ---------------------------------------------------------------------

 SCF Done:  E(UB3LYP) =  -541.316846406     A.U. after   30 cycles

 The electronic state is 2-A.
 Alpha  occ. eigenvalues --  -19.03560 -19.00577 -10.18232 -10.11885 -10.08238
 Alpha  occ. eigenvalues --  -10.07993 -10.07636 -10.06695 -10.06361 -10.06270
 Alpha  occ. eigenvalues --  -10.05961 -10.05546  -0.98704  -0.91096  -0.72531
 Alpha  occ. eigenvalues --   -0.70597  -0.65683  -0.61568  -0.58999  -0.55571
 Alpha  occ. eigenvalues --   -0.54085  -0.47841  -0.43552  -0.41655  -0.40834
 Alpha  occ. eigenvalues --   -0.38595  -0.37175  -0.35881  -0.34229  -0.33465
 Alpha  occ. eigenvalues --   -0.32214  -0.31637  -0.29853  -0.29267  -0.28334
 Alpha  occ. eigenvalues --   -0.27966  -0.26545  -0.26125  -0.25126  -0.23801
 Alpha  occ. eigenvalues --   -0.23508  -0.21616  -0.21164  -0.17851  -0.16799
 Alpha  occ. eigenvalues --   -0.14856   0.04692
 Alpha virt. eigenvalues --    0.07160   0.07594   0.08526   0.08742   0.09344
 Alpha virt. eigenvalues --    0.09844   0.09920   0.10663   0.10804   0.11916
 Alpha virt. eigenvalues --    0.12572   0.12683   0.13383   0.13830   0.14663

  Beta  occ. eigenvalues --  -19.03561 -19.00489 -10.18131 -10.11851 -10.08236
  Beta  occ. eigenvalues --  -10.07996 -10.07622 -10.06660 -10.06349 -10.06244
  Beta  occ. eigenvalues --  -10.05943 -10.05526  -0.98591  -0.90992  -0.72494
  Beta  occ. eigenvalues --   -0.70532  -0.65634  -0.61518  -0.58966  -0.55465
  Beta  occ. eigenvalues --   -0.54010  -0.47768  -0.43475  -0.41599  -0.40705
  Beta  occ. eigenvalues --   -0.38474  -0.37141  -0.35791  -0.34127  -0.33420
  Beta  occ. eigenvalues --   -0.32173  -0.31604  -0.29791  -0.29158  -0.28286
  Beta  occ. eigenvalues --   -0.27895  -0.26493  -0.26082  -0.24992  -0.23741
  Beta  occ. eigenvalues --   -0.23371  -0.21530  -0.21122  -0.17775  -0.16725
  Beta  occ. eigenvalues --   -0.14826
  Beta virt. eigenvalues --    0.07116   0.07904   0.08201   0.08989   0.09439
  Beta virt. eigenvalues --    0.09762   0.10219   0.10473   0.11125   0.11273
  Beta virt. eigenvalues --    0.12371   0.12790   0.12999   0.13758   0.14374

 Mulliken charges and spin densities:
               1          2
     1  C    0.220538  -0.957515
     2  C   -0.451029   0.959398
     3  C    0.043050  -0.434910
     4  C    1.246371  -1.673366
     5  C   -0.564919   0.970591
     6  C    0.270673  -0.835683
     7  O   -0.075611   0.044298
     8  C    0.584812  -0.994999
     9  O   -0.254037   0.062934
    10  C   -1.241730   1.744049
    11  C    2.156027  -2.799332
    12  C   -0.549104  -0.165090
    13  H   -0.255853   0.395275
    14  H    0.057665   0.105226
    15  H    0.101675   0.033450
    16  H   -0.283961   0.513631
    17  H   -0.647801   0.853908
    18  H    0.006668   0.133028
    19  H   -0.267023   0.436567
    20  H   -0.081176   0.275992
    21  H   -0.698492   0.948465
    22  H    0.209047  -0.030194
    23  H   -0.670488   0.862514
    24  H   -0.025473   0.123896
    25  H   -0.180520   0.309393
    26  H    0.257416  -0.085246
    27  H    0.083510   0.076106
    28  H    0.009767   0.127613
 Sum of Mulliken charges =  -1.00000   1.00000

 Dipole moment (field-independent basis, Debye):
    X=             -0.4341    Y=             -1.5275    Z=              5.2108  Tot=              5.4474
 Quadrupole moment (field-independent basis, Debye-Ang):
   XX=           -122.7830   YY=           -117.0022   ZZ=           -115.7072
   XY=              4.8234   XZ=              5.9066   YZ=              4.7024

 Summary of Natural Population Analysis:

                                       Natural Population
                Natural  -----------------------------------------------
    Atom  No    Charge         Core      Valence    Rydberg      Total
 -----------------------------------------------------------------------
      C    1   -0.28370      0.99966     2.27698    0.00707     3.28370
      C    2   -0.15846      0.99954     2.14861    0.01032     3.15846
      C    3   -0.18504      0.99960     2.17531    0.01013     3.18504
      C    4   -0.18448      0.99960     2.17423    0.01065     3.18448
      C    5   -0.14070      0.99953     2.12749    0.01368     3.14070
      C    6   -0.00828      0.99954     1.99514    0.01360     3.00828
      O    7   -0.30380      0.99986     3.29507    0.00886     4.30380
      C    8    0.43147      0.99963     1.54128    0.02762     2.56853
      O    9   -0.29151      0.99986     3.28615    0.00551     4.29151
      C   10    0.00500      0.99950     1.98446    0.01104     2.99500
      C   11   -0.19833      0.99948     2.19051    0.00835     3.19833
      C   12   -0.30257      0.99960     2.29767    0.00530     3.30257
      H   13    0.10085      0.00000     0.39820    0.00095     0.39915
      H   14    0.10131      0.00000     0.39770    0.00099     0.39869
      H   15    0.09967      0.00000     0.39955    0.00078     0.40033
      H   16    0.11190      0.00000     0.38595    0.00215     0.38810
      H   17    0.10907      0.00000     0.38771    0.00322     0.39093
      H   18    0.09433      0.00000     0.40398    0.00168     0.40567
      H   19    0.10433      0.00000     0.39392    0.00175     0.39567
      H   20    0.10510      0.00000     0.39248    0.00243     0.39490
      H   21    0.11080      0.00000     0.38547    0.00373     0.38920
      H   22    0.08923      0.00000     0.40944    0.00133     0.41077
      H   23    0.09742      0.00000     0.40084    0.00173     0.40258
      H   24    0.08908      0.00000     0.41003    0.00088     0.41092
      H   25    0.09522      0.00000     0.40352    0.00126     0.40478
      H   26    0.10734      0.00000     0.39130    0.00136     0.39266
      H   27    0.10620      0.00000     0.39273    0.00108     0.39380
      H   28    0.09855      0.00000     0.40054    0.00091     0.40145
 =======================================================================
   * Total *    0.00000     11.99540    33.84625    0.15835    46.00000

 Normal termination of Gaussian 16 at Wed Dec  9 17:28:57 2020.
