 Gaussian 16, Revision A.03,

 -----------------------------------------------------------
 # opt freq B3LYP/6-31G(d) empiricaldispersion=gd3bj scf=xqc
 -----------------------------------------------------------

 -------------------------------
 CID_65254601_JID_10248_neutraal
 -------------------------------
 Symbolic Z-matrix:
 Charge =  0 Multiplicity = 1

 SCF Done:  E(RB3LYP) =  -961.022149271     A.U. after   14 cycles
 SCF Done:  E(RB3LYP) =  -961.011193286     A.U. after   14 cycles
 SCF Done:  E(RB3LYP) =  -961.027849241     A.U. after   12 cycles
 SCF Done:  E(RB3LYP) =  -961.029583259     A.U. after   13 cycles
 SCF Done:  E(RB3LYP) =  -961.030202049     A.U. after   13 cycles
 SCF Done:  E(RB3LYP) =  -961.030772971     A.U. after   12 cycles
 SCF Done:  E(RB3LYP) =  -961.031460797     A.U. after   11 cycles
 SCF Done:  E(RB3LYP) =  -961.031882970     A.U. after   12 cycles
 SCF Done:  E(RB3LYP) =  -961.031700994     A.U. after   13 cycles
 SCF Done:  E(RB3LYP) =  -961.032546440     A.U. after   12 cycles
 SCF Done:  E(RB3LYP) =  -961.034947129     A.U. after    8 cycles
 SCF Done:  E(RB3LYP) =  -961.034947663     A.U. after    8 cycles
 SCF Done:  E(RB3LYP) =  -961.034947778     A.U. after    7 cycles
 SCF Done:  E(RB3LYP) =  -961.034947796     A.U. after    6 cycles
 Optimization completed.
    -- Stationary point found.
 Normal termination of Gaussian 16 at Mon Dec 14 18:13:46 2020.

 --------------------------------------------------------------------
 #N Geom=AllCheck Guess=TCheck SCRF=Check GenChk RB3LYP/6-31G(d) Freq
 --------------------------------------------------------------------

 Structure from the checkpoint file:  "JID_10248.chk"
 -------------------------------
 CID_65254601_JID_10248_neutraal
 -------------------------------
 Charge =  0 Multiplicity = 1

 SCF Done:  E(RB3LYP) =  -961.034947796     A.U. after    1 cycles

  Exact polarizability: 206.157  -1.225 184.399 -22.019   1.799 128.082
 Approx polarizability: 269.623  -1.804 289.528 -42.941   9.838 192.395

                      1                      2                      3
                      A                      A                      A
 Frequencies --     25.8609                38.3825                46.0177
 Red. masses --      4.4846                 4.8695                 4.7623
 Frc consts  --      0.0018                 0.0042                 0.0059
 IR Inten    --      0.1715                 0.4236                 0.4161

                      4                      5                      6
                      A                      A                      A
 Frequencies --     79.9224                92.1813                93.1299
 Red. masses --      3.7808                 5.5600                 3.7726
 Frc consts  --      0.0142                 0.0278                 0.0193
 IR Inten    --      4.9729                 1.7737                 0.1247

                      7                      8                      9
                      A                      A                      A
 Frequencies --    107.2921               129.9874               139.6848
 Red. masses --      4.0088                 4.9557                 5.5529
 Frc consts  --      0.0272                 0.0493                 0.0638
 IR Inten    --      2.3695                 1.5570                 1.0921

                     10                     11                     12
                      A                      A                      A
 Frequencies --    188.6078               206.7142               214.3929
 Red. masses --      3.4519                 2.1971                 2.2736
 Frc consts  --      0.0723                 0.0553                 0.0616
 IR Inten    --      2.2120                 0.4471                 1.8686

                     13                     14                     15
                      A                      A                      A
 Frequencies --    222.3175               235.3869               250.4322
 Red. masses --      1.5935                 1.1564                 2.9197
 Frc consts  --      0.0464                 0.0378                 0.1079
 IR Inten    --      0.8832                 0.6114                 0.1495

                     16                     17                     18
                      A                      A                      A
 Frequencies --    254.1382               268.0607               280.5917
 Red. masses --      1.7027                 2.6827                 2.1757
 Frc consts  --      0.0648                 0.1136                 0.1009
 IR Inten    --      3.7611                 0.6283                 1.9877

                     19                     20                     21
                      A                      A                      A
 Frequencies --    282.5550               290.7967               292.7716
 Red. masses --      1.8917                 1.9963                 2.4908
 Frc consts  --      0.0890                 0.0995                 0.1258
 IR Inten    --      1.8688                 0.2228                 0.5901

                     22                     23                     24
                      A                      A                      A
 Frequencies --    295.9624               349.4133               361.6201
 Red. masses --      1.7312                 2.8944                 2.6998
 Frc consts  --      0.0893                 0.2082                 0.2080
 IR Inten    --      0.5398                 1.0221                 3.6797

                     25                     26                     27
                      A                      A                      A
 Frequencies --    386.6660               401.6671               430.7891
 Red. masses --      2.3606                 4.3309                 4.1837
 Frc consts  --      0.2079                 0.4117                 0.4574
 IR Inten    --      2.4645                 5.4933                 7.7369

                     28                     29                     30
                      A                      A                      A
 Frequencies --    497.8673               517.6618               531.6518
 Red. masses --      3.2520                 4.5709                 3.7990
 Frc consts  --      0.4749                 0.7217                 0.6327
 IR Inten    --      5.2163                 4.2800                17.0076

                     31                     32                     33
                      A                      A                      A
 Frequencies --    549.3588               556.6594               587.9597
 Red. masses --      4.5841                 2.5793                 1.9279
 Frc consts  --      0.8151                 0.4709                 0.3927
 IR Inten    --     12.2316                71.6706                75.9719

                     34                     35                     36
                      A                      A                      A
 Frequencies --    619.5818               626.7314               630.5534
 Red. masses --      3.1961                 3.0959                 3.9313
 Frc consts  --      0.7229                 0.7165                 0.9209
 IR Inten    --     24.7101                25.8351                 0.4265

                     37                     38                     39
                      A                      A                      A
 Frequencies --    689.0059               701.3067               727.6943
 Red. masses --      2.7400                 3.3512                 3.2629
 Frc consts  --      0.7664                 0.9711                 1.0180
 IR Inten    --      0.8759                 4.0098                 8.7130

                     40                     41                     42
                      A                      A                      A
 Frequencies --    749.5072               808.5798               809.9831
 Red. masses --      2.2527                 1.5498                 1.5636
 Frc consts  --      0.7456                 0.5970                 0.6044
 IR Inten    --     57.7077                 0.4607                18.2688

                     43                     44                     45
                      A                      A                      A
 Frequencies --    815.1851               821.7879               863.2732
 Red. masses --      1.8825                 1.9313                 2.4473
 Frc consts  --      0.7371                 0.7684                 1.0746
 IR Inten    --     25.7057                41.0365                 0.7635

                     46                     47                     48
                      A                      A                      A
 Frequencies --    904.6495               930.8686               966.0923
 Red. masses --      2.1578                 2.2566                 1.9466
 Frc consts  --      1.0405                 1.1521                 1.0704
 IR Inten    --      5.1255                 3.2201                 0.8401

                     49                     50                     51
                      A                      A                      A
 Frequencies --    966.9411               983.8927              1013.6573
 Red. masses --      3.0130                 2.4279                 6.2778
 Frc consts  --      1.6598                 1.3848                 3.8005
 IR Inten    --     10.6493                 3.5864                 0.6460

                     52                     53                     54
                      A                      A                      A
 Frequencies --   1031.6699              1042.2265              1082.7570
 Red. masses --      1.6507                 1.8470                 1.5364
 Frc consts  --      1.0352                 1.1821                 1.0613
 IR Inten    --      7.6575                 4.3651                 2.1192

                     55                     56                     57
                      A                      A                      A
 Frequencies --   1089.5348              1103.6182              1108.3832
 Red. masses --      2.6833                 2.5481                 2.1041
 Frc consts  --      1.8767                 1.8286                 1.5230
 IR Inten    --     26.6435                60.5548                37.2279

                     58                     59                     60
                      A                      A                      A
 Frequencies --   1111.8009              1162.0265              1186.3939
 Red. masses --      2.4765                 2.9693                 1.2718
 Frc consts  --      1.8036                 2.3623                 1.0547
 IR Inten    --     17.0299                81.1820                 0.2558

                     61                     62                     63
                      A                      A                      A
 Frequencies --   1186.8013              1199.6457              1203.2497
 Red. masses --      1.2714                 1.6846                 1.9154
 Frc consts  --      1.0551                 1.4284                 1.6339
 IR Inten    --      1.3677               115.8346               160.6910

                     64                     65                     66
                      A                      A                      A
 Frequencies --   1211.1157              1216.7086              1235.6177
 Red. masses --      1.7685                 2.0066                 1.9895
 Frc consts  --      1.5284                 1.7502                 1.7896
 IR Inten    --    118.1499                61.1252               284.5995

                     67                     68                     69
                      A                      A                      A
 Frequencies --   1242.9425              1250.2193              1279.2115
 Red. masses --      2.2196                 2.1748                 1.3093
 Frc consts  --      2.0204                 2.0028                 1.2624
 IR Inten    --     13.9277               270.6620                 4.0387

                     70                     71                     72
                      A                      A                      A
 Frequencies --   1294.2683              1307.3604              1341.7807
 Red. masses --      1.4164                 1.5695                 1.2232
 Frc consts  --      1.3979                 1.5805                 1.2975
 IR Inten    --      1.8925                 1.3154                 2.3632

                     73                     74                     75
                      A                      A                      A
 Frequencies --   1355.5843              1386.4326              1400.7002
 Red. masses --      4.6928                 1.7704                 1.5378
 Frc consts  --      5.0808                 2.0050                 1.7777
 IR Inten    --      1.7178                10.4029                 8.9099

                     76                     77                     78
                      A                      A                      A
 Frequencies --   1414.0547              1425.5068              1430.8635
 Red. masses --      1.4997                 4.2234                 1.2745
 Frc consts  --      1.7668                 5.0565                 1.5373
 IR Inten    --     20.0780                 0.2493                 7.1845

                     79                     80                     81
                      A                      A                      A
 Frequencies --   1449.5184              1454.9039              1486.2279
 Red. masses --      1.3440                 1.2724                 1.4137
 Frc consts  --      1.6637                 1.5869                 1.8398
 IR Inten    --     52.6313                 6.9673                69.4689

                     82                     83                     84
                      A                      A                      A
 Frequencies --   1503.1294              1506.7136              1510.2889
 Red. masses --      1.6123                 1.0780                 1.0853
 Frc consts  --      2.1463                 1.4419                 1.4586
 IR Inten    --     58.5021                 3.4393                 0.9997

                     85                     86                     87
                      A                      A                      A
 Frequencies --   1519.5879              1520.1518              1520.6115
 Red. masses --      1.0516                 1.0505                 1.6537
 Frc consts  --      1.4307                 1.4303                 2.2529
 IR Inten    --      5.2280                 5.8928                42.2382

                     88                     89                     90
                      A                      A                      A
 Frequencies --   1521.0829              1523.9572              1524.9633
 Red. masses --      1.0844                 1.4854                 1.3566
 Frc consts  --      1.4782                 2.0326                 1.8588
 IR Inten    --      8.7725                45.8179                14.8006

                     91                     92                     93
                      A                      A                      A
 Frequencies --   1530.6012              1537.8793              1539.9976
 Red. masses --      1.0549                 1.1020                 1.2303
 Frc consts  --      1.4561                 1.5356                 1.7191
 IR Inten    --      3.3456                 9.8011                21.6299

                     94                     95                     96
                      A                      A                      A
 Frequencies --   1544.1902              1558.0935              1658.4625
 Red. masses --      1.0736                 1.1221                 6.1848
 Frc consts  --      1.5083                 1.6050                10.0228
 IR Inten    --     12.5806                20.1840               300.8546

                     97                     98                     99
                      A                      A                      A
 Frequencies --   1665.2466              1823.6367              3025.9898
 Red. masses --      6.3802                 9.6985                 1.0352
 Frc consts  --     10.4242                19.0034                 5.5847
 IR Inten    --    343.3101               182.8717                45.9517

                    100                    101                    102
                      A                      A                      A
 Frequencies --   3028.9312              3030.8662              3044.1163
 Red. masses --      1.0344                 1.0669                 1.0665
 Frc consts  --      5.5912                 5.7744                 5.8228
 IR Inten    --     55.0472                33.8324                18.6343

                    103                    104                    105
                      A                      A                      A
 Frequencies --   3053.6597              3056.4685              3063.0902
 Red. masses --      1.0374                 1.0585                 1.0426
 Frc consts  --      5.6994                 5.8259                 5.7637
 IR Inten    --     27.0262                38.4100                45.9419

                    106                    107                    108
                      A                      A                      A
 Frequencies --   3084.8567              3084.8855              3088.5284
 Red. masses --      1.1040                 1.1035                 1.1066
 Frc consts  --      6.1900                 6.1871                 6.2195
 IR Inten    --     14.5108                38.7297                42.5703

                    109                    110                    111
                      A                      A                      A
 Frequencies --   3112.3503              3117.1628              3121.4010
 Red. masses --      1.0976                 1.1025                 1.0954
 Frc consts  --      6.2645                 6.3120                 6.2880
 IR Inten    --     16.9635                15.0350                22.7343

                    112                    113                    114
                      A                      A                      A
 Frequencies --   3127.3965              3146.1549              3151.1868
 Red. masses --      1.1013                 1.1011                 1.0999
 Frc consts  --      6.3462                 6.4213                 6.4353
 IR Inten    --     35.2278                20.1994                23.0420

                    115                    116                    117
                      A                      A                      A
 Frequencies --   3159.1759              3159.4371              3249.9715
 Red. masses --      1.1003                 1.1000                 1.0900
 Frc consts  --      6.4699                 6.4691                 6.7833
 IR Inten    --     31.2655                24.8703                 0.6736

                    118                    119                    120
                      A                      A                      A
 Frequencies --   3252.1222              3253.1293              3642.7029
 Red. masses --      1.0902                 1.0906                 1.0642
 Frc consts  --      6.7937                 6.8001                 8.3196
 IR Inten    --      1.6545                 2.2441               115.2326

 - Thermochemistry -
 -------------------
 Temperature   298.150 Kelvin.  Pressure   1.00000 Atm.
 Atom     1 has atomic number  6 and mass  12.00000

 Molecular mass:   282.14672 amu.
 Principal axes and moments of inertia in atomic units:
                           1         2         3
     Eigenvalues --  3509.696668701.40918**********
           X            0.99998   0.00116  -0.00577
           Y           -0.00114   0.99999   0.00449
           Z            0.00578  -0.00448   0.99997
 This molecule is an asymmetric top.
 Rotational symmetry number  1.
 Warning -- assumption of classical behavior for rotation
           may cause significant error
 Rotational temperatures (Kelvin)      0.02468     0.00995     0.00856
 Rotational constants (GHZ):           0.51422     0.20741     0.17842
 Zero-point vibrational energy     939601.4 (Joules/Mol)
                                  224.57014 (Kcal/Mol)
 Warning -- explicit consideration of  34 degrees of freedom as
           vibrations may cause significant error
 Vibrational temperatures:     37.21    55.22    66.21   114.99   132.63
          (Kelvin)            133.99   154.37   187.02   200.98   271.36
                              297.42   308.46   319.87   338.67   360.32
                              365.65   385.68   403.71   406.53   418.39
                              421.23   425.82   502.73   520.29   556.33
                              577.91   619.81   716.32   744.80   764.93
                              790.40   800.91   845.94   891.44   901.73
                              907.23   991.33  1009.02  1046.99  1078.37
                             1163.37  1165.39  1172.87  1182.37  1242.06
                             1301.59  1339.31  1389.99  1391.21  1415.60
                             1458.43  1484.34  1499.53  1557.85  1567.60
                             1587.86  1594.72  1599.63  1671.90  1706.96
                             1707.54  1726.02  1731.21  1742.53  1750.57
                             1777.78  1788.32  1798.79  1840.50  1862.16
                             1881.00  1930.52  1950.38  1994.77  2015.30
                             2034.51  2050.99  2058.69  2085.53  2093.28
                             2138.35  2162.67  2167.82  2172.97  2186.35
                             2187.16  2187.82  2188.50  2192.63  2194.08
                             2202.19  2212.67  2215.71  2221.75  2241.75
                             2386.16  2395.92  2623.81  4353.72  4357.96
                             4360.74  4379.80  4393.54  4397.58  4407.10
                             4438.42  4438.46  4443.70  4477.98  4484.90
                             4491.00  4499.63  4526.62  4533.86  4545.35
                             4545.73  4675.98  4679.08  4680.53  5241.04

 Zero-point correction=                           0.357875 (Hartree/Particle)
 Thermal correction to Energy=                    0.378744
 Thermal correction to Enthalpy=                  0.379688
 Thermal correction to Gibbs Free Energy=         0.308483
 Sum of electronic and zero-point Energies=           -960.677073
 Sum of electronic and thermal Energies=              -960.656204
 Sum of electronic and thermal Enthalpies=            -960.655260
 Sum of electronic and thermal Free Energies=         -960.726465

                     E (Thermal)             CV                S
                      KCal/Mol        Cal/Mol-Kelvin    Cal/Mol-Kelvin
 Total                  237.665             79.194            149.864
 Electronic               0.000              0.000              0.000
 Translational            0.889              2.981             42.810
 Rotational               0.889              2.981             34.090
 Vibrational            235.888             73.232             72.964
 Vibration     1          0.593              1.985              6.124
 Vibration     2          0.594              1.982              5.341
 Vibration     3          0.595              1.979              4.982
 Vibration     4          0.600              1.963              3.893
 Vibration     5          0.602              1.955              3.613
 Vibration     6          0.602              1.954              3.593
 Vibration     7          0.606              1.943              3.317
 Vibration     8          0.612              1.923              2.946
 Vibration     9          0.615              1.914              2.808
 Vibration    10          0.633              1.856              2.241
 Vibration    11          0.641              1.830              2.073
 Vibration    12          0.644              1.819              2.006
 Vibration    13          0.648              1.807              1.940
 Vibration    14          0.655              1.787              1.837
 Vibration    15          0.663              1.762              1.728
 Vibration    16          0.665              1.756              1.702
 Vibration    17          0.673              1.732              1.609
 Vibration    18          0.680              1.710              1.530
 Vibration    19          0.682              1.706              1.518
 Vibration    20          0.687              1.691              1.469
 Vibration    21          0.688              1.687              1.458
 Vibration    22          0.690              1.681              1.440
 Vibration    23          0.727              1.576              1.169
 Vibration    24          0.736              1.551              1.115
 Vibration    25          0.755              1.499              1.013
 Vibration    26          0.767              1.467              0.957
 Vibration    27          0.792              1.403              0.856
 Vibration    28          0.853              1.255              0.663
 Vibration    29          0.873              1.211              0.615
 Vibration    30          0.887              1.180              0.584
 Vibration    31          0.905              1.141              0.546
 Vibration    32          0.912              1.125              0.531
 Vibration    33          0.945              1.057              0.471
 Vibration    34          0.980              0.991              0.417

 Optimization completed.
    -- Stationary point found.
 Normal termination of Gaussian 16 at Mon Dec 14 18:37:02 2020.

 ----------------------------------------------------------------------
 # B3LYP/6-311++G(d,p) empiricaldispersion=gd3bj scf=xqc pop=npa geom=c
 heck
 ----------------------------------------------------------------------

 ---------------------------------------
 CID_65254601_JID_10248_Energie_neutraal
 ---------------------------------------
 Structure from the checkpoint file:  "JID_10248.chk"
 Charge =  0 Multiplicity = 1

 SCF Done:  E(RB3LYP) =  -961.313866723     A.U. after   15 cycles
 Normal termination of Gaussian 16 at Mon Dec 14 18:48:14 2020.

 ----------------------------------------------------------------------
 # B3LYP/6-311++G(d,p) empiricaldispersion=gd3bj scf=xqc pop=npa geom=c
 heck
 ----------------------------------------------------------------------

 -------------------------------------
 CID_65254601_JID_10248_Energie_kation
 -------------------------------------
 Structure from the checkpoint file:  "JID_10248.chk"
 Charge =  1 Multiplicity = 2

 SCF Done:  E(UB3LYP) =  -961.029154910     A.U. after   33 cycles
 SCF Done:  E(UB3LYP) =  -961.029154910     a.u. after    2 cycles
 Normal termination of Gaussian 16 at Mon Dec 14 19:44:20 2020.
 Gaussian 16:  ES64L-G16RevA.03 25-Dec-2016

 ----------------------------------------------------------------------
 # B3LYP/6-311++G(d,p) empiricaldispersion=gd3bj scf=xqc pop=npa geom=c
 heck
 ----------------------------------------------------------------------

 ------------------------------------
 CID_65254601_JID_10248_Energie_anion
 ------------------------------------
 Structure from the checkpoint file:  "JID_10248.chk"
 Charge = -1 Multiplicity = 2

                         Standard orientation:
 ---------------------------------------------------------------------
 Center     Atomic      Atomic             Coordinates (Angstroms)
 Number     Number       Type             X           Y           Z
 ---------------------------------------------------------------------
      1          6           0       -3.949742   -1.264507   -1.013170
      2          6           0       -3.351247    0.065604   -0.539269
      3          6           0       -4.208769    1.237591   -1.063121
      4          6           0       -3.309308    0.156407    1.013328
      5          6           0       -2.727252   -1.033118    1.797156
      6          6           0       -1.284910   -1.400413    1.463166
      7          8           0       -0.513291   -0.198676    1.517597
      8          6           0        0.720286   -0.182357    0.940239
      9          6           0        1.414335   -1.321129    0.556797
     10          6           0        2.677852   -1.174088   -0.041378
     11          6           0        3.236968    0.083248   -0.248736
     12          6           0        2.516048    1.219839    0.154046
     13          6           0        1.259080    1.104282    0.741831
     14          8           0        3.138915    2.410423   -0.084885
     15          6           0        2.465484    3.597278    0.298784
     16          8           0        3.285926   -2.344037   -0.386707
     17          6           0        4.557717   -2.272133   -1.009289
     18          6           0       -1.936214    0.209275   -1.099479
     19          8           0       -1.303814   -0.666183   -1.652727
     20          8           0       -1.425487    1.448790   -0.906148
     21          1           0       -4.944640   -1.401090   -0.574530
     22          1           0       -3.325272   -2.115974   -0.734513
     23          1           0       -4.049271   -1.278569   -2.102842
     24          1           0       -5.243180    1.116805   -0.722791
     25          1           0       -3.833045    2.197713   -0.700547
     26          1           0       -4.213905    1.263672   -2.158430
     27          1           0       -2.762697    1.062701    1.288165
     28          1           0       -4.344600    0.296473    1.350544
     29          1           0       -2.790802   -0.784586    2.863692
     30          1           0       -3.340448   -1.930625    1.650842
     31          1           0       -0.896403   -2.128848    2.188311
     32          1           0       -1.206164   -1.835984    0.462831
     33          1           0        1.019309   -2.318622    0.692785
     34          1           0        4.206229    0.227191   -0.706225
     35          1           0        0.682251    1.956204    1.075687
     36          1           0        1.510041    3.707217   -0.231685
     37          1           0        2.277976    3.622036    1.379923
     38          1           0        3.127830    4.420340    0.025433
     39          1           0        4.509372   -1.720566   -1.957009
     40          1           0        5.299325   -1.796679   -0.354243
     41          1           0        4.854376   -3.304050   -1.204399
     42          1           0       -0.476229    1.388032   -1.133462
 ---------------------------------------------------------------------

 SCF Done:  E(UB3LYP) =  -961.300559886     A.U. after   33 cycles
 SCF Done:  E(UB3LYP) =  -961.300559886     a.u. after    1 cycles

 The electronic state is 2-A.
 Alpha  occ. eigenvalues --  -19.07815 -19.07216 -19.07039 -19.06582 -19.02620
 Alpha  occ. eigenvalues --  -10.21518 -10.15436 -10.15368 -10.15253 -10.14115
 Alpha  occ. eigenvalues --  -10.13733 -10.13588 -10.11419 -10.08799 -10.08575
 Alpha  occ. eigenvalues --  -10.07963 -10.07800 -10.07785 -10.07632 -10.07504
 Alpha  occ. eigenvalues --   -1.02090  -0.98915  -0.98629  -0.98323  -0.93098
 Alpha  occ. eigenvalues --   -0.76811  -0.74847  -0.69937  -0.68010  -0.66056
 Alpha  occ. eigenvalues --   -0.62064  -0.61216  -0.60844  -0.60346  -0.57305
 Alpha  occ. eigenvalues --   -0.53462  -0.51105  -0.49899  -0.47197  -0.46354
 Alpha  occ. eigenvalues --   -0.42879  -0.41782  -0.41327  -0.40839  -0.40567
 Alpha  occ. eigenvalues --   -0.40452  -0.39288  -0.39012  -0.38405  -0.36904
 Alpha  occ. eigenvalues --   -0.35831  -0.35625  -0.34677  -0.33521  -0.33304
 Alpha  occ. eigenvalues --   -0.32618  -0.30998  -0.30943  -0.30625  -0.30285
 Alpha  occ. eigenvalues --   -0.29604  -0.28302  -0.28073  -0.26865  -0.26535
 Alpha  occ. eigenvalues --   -0.26357  -0.25817  -0.25553  -0.25201  -0.24288
 Alpha  occ. eigenvalues --   -0.23832  -0.22823  -0.19433  -0.18992  -0.13777
 Alpha  occ. eigenvalues --   -0.13497   0.03866
 Alpha virt. eigenvalues --    0.05107   0.05480   0.06669   0.07472   0.07644
 Alpha virt. eigenvalues --    0.08100   0.08211   0.08654   0.08809   0.09023
 Alpha virt. eigenvalues --    0.09145   0.09548   0.09829   0.10050   0.10389

  Beta  occ. eigenvalues --  -19.07804 -19.07211 -19.07032 -19.06577 -19.02616
  Beta  occ. eigenvalues --  -10.21517 -10.15437 -10.15368 -10.15253 -10.14086
  Beta  occ. eigenvalues --  -10.13726 -10.13547 -10.11418 -10.08782 -10.08559
  Beta  occ. eigenvalues --  -10.07941 -10.07792 -10.07779 -10.07630 -10.07482
  Beta  occ. eigenvalues --   -1.02079  -0.98905  -0.98617  -0.98317  -0.93087
  Beta  occ. eigenvalues --   -0.76804  -0.74830  -0.69917  -0.67991  -0.66033
  Beta  occ. eigenvalues --   -0.62021  -0.61177  -0.60805  -0.60316  -0.57272
  Beta  occ. eigenvalues --   -0.53433  -0.51072  -0.49869  -0.47164  -0.46325
  Beta  occ. eigenvalues --   -0.42859  -0.41763  -0.41305  -0.40821  -0.40548
  Beta  occ. eigenvalues --   -0.40439  -0.39266  -0.38990  -0.38380  -0.36884
  Beta  occ. eigenvalues --   -0.35808  -0.35593  -0.34652  -0.33493  -0.33278
  Beta  occ. eigenvalues --   -0.32593  -0.30978  -0.30918  -0.30601  -0.30268
  Beta  occ. eigenvalues --   -0.29585  -0.28275  -0.28044  -0.26843  -0.26517
  Beta  occ. eigenvalues --   -0.26337  -0.25793  -0.25522  -0.25178  -0.24266
  Beta  occ. eigenvalues --   -0.23809  -0.22808  -0.19421  -0.18975  -0.13768
  Beta  occ. eigenvalues --   -0.13490
  Beta virt. eigenvalues --    0.05692   0.05998   0.06426   0.07034   0.07797
  Beta virt. eigenvalues --    0.08022   0.08276   0.08466   0.08855   0.08899
  Beta virt. eigenvalues --    0.09292   0.09370   0.09828   0.10003   0.10341

 Mulliken charges and spin densities:
               1          2
     1  C    0.170328  -0.764544
     2  C   -1.060489   1.926091
     3  C    0.392968  -0.802400
     4  C   -0.154485  -0.343793
     5  C    0.246640  -0.957155
     6  C   -0.218339   0.065744
     7  O    0.000598  -0.001056
     8  C    0.239594  -0.214697
     9  C   -0.104823  -0.015315
    10  C   -0.318680   0.176748
    11  C   -0.139217  -0.034618
    12  C   -0.662281   0.319975
    13  C    0.488307  -0.328896
    14  O   -0.187826   0.040460
    15  C    0.736444  -1.094507
    16  O   -0.175498   0.030546
    17  C    0.403718  -0.767340
    18  C    0.447627  -1.180431
    19  O   -0.170818   0.031023
    20  O   -0.097333   0.048565
    21  H   -0.292819   0.457681
    22  H    0.075139   0.091034
    23  H    0.124121   0.031000
    24  H   -0.158715   0.306009
    25  H   -0.084250   0.260010
    26  H    0.044133   0.100139
    27  H    0.078426   0.118901
    28  H   -0.181604   0.361461
    29  H   -0.131273   0.320689
    30  H   -0.014562   0.190260
    31  H   -0.104987   0.279891
    32  H    0.085824   0.038568
    33  H    0.198250   0.021238
    34  H    0.074844   0.138344
    35  H    0.362751  -0.113516
    36  H   -0.271995   0.427938
    37  H   -0.209574   0.372705
    38  H   -0.511298   0.693301
    39  H   -0.060938   0.215473
    40  H   -0.102101   0.256351
    41  H   -0.247389   0.417741
    42  H    0.491584  -0.119619
 Sum of Mulliken charges =  -1.00000   1.00000

 Dipole moment (field-independent basis, Debye):
    X=             -0.0269    Y=             -1.9697    Z=             -0.1266  Tot=              1.9739
 Quadrupole moment (field-independent basis, Debye-Ang):
   XX=           -221.1514   YY=           -183.1625   ZZ=           -157.7992
   XY=             -4.5392   XZ=              6.3960   YZ=             -3.2056

 Summary of Natural Population Analysis:

                                       Natural Population
                Natural  -----------------------------------------------
    Atom  No    Charge         Core      Valence    Rydberg      Total
 -----------------------------------------------------------------------
      C    1   -0.28552      0.99964     2.27775    0.00813     3.28552
      C    2   -0.08535      0.99952     2.07361    0.01222     3.08535
      C    3   -0.28036      0.99963     2.27305    0.00768     3.28036
      C    4   -0.18638      0.99959     2.17578    0.01101     3.18638
      C    5   -0.19835      0.99962     2.18922    0.00951     3.19835
      C    6   -0.01854      0.99956     2.00742    0.01156     3.01854
      O    7   -0.28084      0.99985     3.27073    0.01026     4.28084
      C    8    0.17993      0.99940     1.80731    0.01336     2.82007
      C    9   -0.17177      0.99947     2.16447    0.00783     3.17177
      C   10    0.17991      0.99941     1.80866    0.01203     2.82009
      C   11   -0.18145      0.99948     2.17320    0.00877     3.18145
      C   12    0.17725      0.99940     1.81001    0.01334     2.82275
      C   13   -0.19560      0.99947     2.18668    0.00944     3.19560
      O   14   -0.27213      0.99986     3.26206    0.01021     4.27213
      C   15   -0.10076      0.99960     2.09213    0.00903     3.10076
      O   16   -0.27162      0.99985     3.26208    0.00968     4.27162
      C   17   -0.10203      0.99960     2.09330    0.00913     3.10203
      C   18    0.41417      0.99963     1.55900    0.02720     2.58583
      O   19   -0.30786      0.99987     3.30212    0.00587     4.30786
      O   20   -0.34775      0.99987     3.34091    0.00696     4.34775
      H   21    0.10081      0.00000     0.39824    0.00095     0.39919
      H   22    0.10535      0.00000     0.39369    0.00095     0.39465
      H   23    0.10356      0.00000     0.39563    0.00081     0.39644
      H   24    0.10152      0.00000     0.39742    0.00106     0.39848
      H   25    0.10855      0.00000     0.39021    0.00125     0.39145
      H   26    0.10001      0.00000     0.39904    0.00094     0.39999
      H   27    0.10985      0.00000     0.38822    0.00193     0.39015
      H   28    0.10263      0.00000     0.39600    0.00137     0.39737
      H   29    0.10221      0.00000     0.39669    0.00110     0.39779
      H   30    0.10194      0.00000     0.39696    0.00110     0.39806
      H   31    0.08656      0.00000     0.41231    0.00113     0.41344
      H   32    0.09558      0.00000     0.40263    0.00179     0.40442
      H   33    0.11125      0.00000     0.38705    0.00170     0.38875
      H   34    0.11159      0.00000     0.38683    0.00158     0.38841
      H   35    0.11557      0.00000     0.38275    0.00167     0.38443
      H   36    0.08530      0.00000     0.41293    0.00177     0.41470
      H   37    0.08593      0.00000     0.41260    0.00147     0.41407
      H   38    0.09562      0.00000     0.40298    0.00140     0.40438
      H   39    0.08605      0.00000     0.41262    0.00133     0.41395
      H   40    0.08523      0.00000     0.41335    0.00142     0.41477
      H   41    0.09404      0.00000     0.40493    0.00102     0.40596
      H   42    0.24588      0.00000     0.25059    0.00353     0.25412
 =======================================================================
   * Total *   -0.00000     19.99232    55.76321    0.24448    76.00000

 Normal termination of Gaussian 16 at Mon Dec 14 20:15:30 2020.
