 Gaussian 16, Revision A.03,

 -----------------------------------------------------------
 # opt freq B3LYP/6-31G(d) empiricaldispersion=gd3bj scf=xqc
 -----------------------------------------------------------

 -------------------------------
 CID_103430443_JID_8223_neutraal
 -------------------------------
 Symbolic Z-matrix:
 Charge =  0 Multiplicity = 1

 SCF Done:  E(RB3LYP) =  -790.730281393     A.U. after   14 cycles
 SCF Done:  E(RB3LYP) =  -790.732814074     A.U. after   13 cycles
 SCF Done:  E(RB3LYP) =  -790.731043169     A.U. after   13 cycles
 SCF Done:  E(RB3LYP) =  -790.732721510     A.U. after   12 cycles
 SCF Done:  E(RB3LYP) =  -790.734909677     A.U. after    9 cycles
 SCF Done:  E(RB3LYP) =  -790.734034648     A.U. after   12 cycles
 SCF Done:  E(RB3LYP) =  -790.735319807     A.U. after   12 cycles
 SCF Done:  E(RB3LYP) =  -790.735952667     A.U. after   12 cycles
 SCF Done:  E(RB3LYP) =  -790.736044814     A.U. after   11 cycles
 SCF Done:  E(RB3LYP) =  -790.736109120     A.U. after   11 cycles
 SCF Done:  E(RB3LYP) =  -790.736182304     A.U. after    7 cycles
 SCF Done:  E(RB3LYP) =  -790.736183146     A.U. after    8 cycles
 SCF Done:  E(RB3LYP) =  -790.736183661     A.U. after    8 cycles
 SCF Done:  E(RB3LYP) =  -790.736183868     A.U. after    8 cycles
 SCF Done:  E(RB3LYP) =  -790.736183897     A.U. after    7 cycles
 Optimization completed.
    -- Stationary point found.
 Normal termination of Gaussian 16 at Fri Dec 11 19:50:32 2020.

 --------------------------------------------------------------------
 #N Geom=AllCheck Guess=TCheck SCRF=Check GenChk RB3LYP/6-31G(d) Freq
 --------------------------------------------------------------------

 Structure from the checkpoint file:  "JID_8223.chk"
 -------------------------------
 CID_103430443_JID_8223_neutraal
 -------------------------------
 Charge =  0 Multiplicity = 1

 SCF Done:  E(RB3LYP) =  -790.736183897     A.U. after    1 cycles

  Exact polarizability: 149.782  -4.559 186.331 -18.069   1.241 143.021
 Approx polarizability: 198.425  -5.013 291.885 -38.415   9.847 240.821

                      1                      2                      3
                      A                      A                      A
 Frequencies --     21.7395                35.3064                49.7727
 Red. masses --      4.4692                 5.4710                 4.8374
 Frc consts  --      0.0012                 0.0040                 0.0071
 IR Inten    --      0.1728                 0.7040                 0.2756

                      4                      5                      6
                      A                      A                      A
 Frequencies --     70.4991                83.2123               113.1252
 Red. masses --      3.7063                 4.3650                 3.7060
 Frc consts  --      0.0109                 0.0178                 0.0279
 IR Inten    --      0.3441                 0.1391                 0.3907

                      7                      8                      9
                      A                      A                      A
 Frequencies --    131.8428               184.7508               206.7484
 Red. masses --      3.7319                 2.9016                 1.4041
 Frc consts  --      0.0382                 0.0584                 0.0354
 IR Inten    --      0.6742                 0.0358                 0.4301

                     10                     11                     12
                      A                      A                      A
 Frequencies --    218.2091               223.3973               240.2595
 Red. masses --      1.9071                 2.7988                 1.3018
 Frc consts  --      0.0535                 0.0823                 0.0443
 IR Inten    --      0.0704                 0.0491                 0.1438

                     13                     14                     15
                      A                      A                      A
 Frequencies --    248.5718               253.5938               281.6744
 Red. masses --      1.8702                 2.1225                 1.4397
 Frc consts  --      0.0681                 0.0804                 0.0673
 IR Inten    --      0.0431                 1.7814                 0.1469

                     16                     17                     18
                      A                      A                      A
 Frequencies --    302.0702               344.9104               359.9573
 Red. masses --      1.1931                 2.4076                 2.5361
 Frc consts  --      0.0641                 0.1688                 0.1936
 IR Inten    --      0.4076                 1.5274                 0.3588

                     19                     20                     21
                      A                      A                      A
 Frequencies --    370.7856               387.2839               411.6502
 Red. masses --      2.0200                 2.1153                 3.1698
 Frc consts  --      0.1636                 0.1869                 0.3165
 IR Inten    --      0.4075                 0.4803                 1.3335

                     22                     23                     24
                      A                      A                      A
 Frequencies --    418.6961               437.1669               447.1833
 Red. masses --      2.9654                 3.6812                 3.9608
 Frc consts  --      0.3063                 0.4145                 0.4667
 IR Inten    --      0.0583                 6.8033                28.4658

                     25                     26                     27
                      A                      A                      A
 Frequencies --    458.5872               493.8920               521.8152
 Red. masses --      2.9935                 3.0363                 3.9118
 Frc consts  --      0.3709                 0.4364                 0.6276
 IR Inten    --      1.2479                 0.9424                 1.2010

                     28                     29                     30
                      A                      A                      A
 Frequencies --    550.5515               564.9431               586.3898
 Red. masses --      1.2178                 2.5587                 3.0293
 Frc consts  --      0.2175                 0.4811                 0.6137
 IR Inten    --     57.8949                25.5985                 2.2535

                     31                     32                     33
                      A                      A                      A
 Frequencies --    631.5086               634.9426               638.5526
 Red. masses --      1.4035                 3.6259                 6.0870
 Frc consts  --      0.3298                 0.8613                 1.4623
 IR Inten    --     54.2674                11.9131                 0.7988

                     34                     35                     36
                      A                      A                      A
 Frequencies --    658.1096               715.3777               756.5489
 Red. masses --      3.4391                 1.8512                 1.8320
 Frc consts  --      0.8776                 0.5582                 0.6178
 IR Inten    --      9.0079                28.5028                27.4032

                     37                     38                     39
                      A                      A                      A
 Frequencies --    769.3290               783.8408               787.2352
 Red. masses --      3.4499                 3.3815                 2.5781
 Frc consts  --      1.2030                 1.2241                 0.9414
 IR Inten    --     53.7350                 2.2597                 9.6961

                     40                     41                     42
                      A                      A                      A
 Frequencies --    857.9498               877.5288               893.6318
 Red. masses --      1.2550                 2.6321                 2.2139
 Frc consts  --      0.5443                 1.1942                 1.0416
 IR Inten    --      0.0539                 0.7933                 7.0243

                     43                     44                     45
                      A                      A                      A
 Frequencies --    909.6417               939.4782               943.8197
 Red. masses --      1.4369                 1.7118                 1.5747
 Frc consts  --      0.7005                 0.8902                 0.8265
 IR Inten    --      4.4836                 0.4243                 1.0306

                     46                     47                     48
                      A                      A                      A
 Frequencies --    956.1403               964.9439               992.0573
 Red. masses --      1.6762                 1.3707                 1.8936
 Frc consts  --      0.9029                 0.7520                 1.0980
 IR Inten    --      0.7873                 0.2560                 6.4993

                     49                     50                     51
                      A                      A                      A
 Frequencies --    994.1043               999.0638              1019.2005
 Red. masses --      1.2623                 1.9815                 1.8868
 Frc consts  --      0.7350                 1.1653                 1.1548
 IR Inten    --      1.1209                41.8121                 2.5219

                     52                     53                     54
                      A                      A                      A
 Frequencies --   1022.6760              1029.1585              1047.7514
 Red. masses --      5.8750                 1.3256                 1.9203
 Frc consts  --      3.6202                 0.8273                 1.2420
 IR Inten    --      0.5473                 0.8829                 9.9644

                     55                     56                     57
                      A                      A                      A
 Frequencies --   1055.1063              1063.0053              1113.0953
 Red. masses --      1.7411                 2.1233                 1.5788
 Frc consts  --      1.1420                 1.4136                 1.1525
 IR Inten    --      5.0894                 1.1215                 6.0341

                     58                     59                     60
                      A                      A                      A
 Frequencies --   1168.8907              1187.0130              1194.9927
 Red. masses --      1.4300                 1.9613                 1.1009
 Frc consts  --      1.1511                 1.6282                 0.9263
 IR Inten    --      5.7161                21.0511                 0.0455

                     61                     62                     63
                      A                      A                      A
 Frequencies --   1198.5347              1212.1323              1215.3446
 Red. masses --      2.0732                 2.8439                 1.1508
 Frc consts  --      1.7547                 2.4618                 1.0015
 IR Inten    --      3.1454                14.8709                 0.8716

                     64                     65                     66
                      A                      A                      A
 Frequencies --   1229.0475              1232.8865              1238.8930
 Red. masses --      2.6619                 2.3172                 2.2999
 Frc consts  --      2.3691                 2.0752                 2.0798
 IR Inten    --    101.9245                65.2502                 9.2202

                     67                     68                     69
                      A                      A                      A
 Frequencies --   1272.6390              1317.7494              1358.6745
 Red. masses --      1.9116                 1.7508                 2.7502
 Frc consts  --      1.8242                 1.7913                 2.9912
 IR Inten    --      1.6592                26.1818                 4.6713

                     70                     71                     72
                      A                      A                      A
 Frequencies --   1368.0065              1380.9864              1395.8543
 Red. masses --      1.6919                 2.5260                 1.3660
 Frc consts  --      1.8655                 2.8383                 1.5681
 IR Inten    --      0.3899               331.8487                 8.7903

                     73                     74                     75
                      A                      A                      A
 Frequencies --   1402.4928              1419.0693              1428.4124
 Red. masses --      1.4130                 1.2490                 1.2480
 Frc consts  --      1.6376                 1.4819                 1.5003
 IR Inten    --      4.6592                 5.7486                10.0296

                     76                     77                     78
                      A                      A                      A
 Frequencies --   1443.0975              1452.0603              1473.5465
 Red. masses --      1.3080                 1.2344                 1.6807
 Frc consts  --      1.6049                 1.5335                 2.1501
 IR Inten    --     68.9069                 9.4648                14.2523

                     79                     80                     81
                      A                      A                      A
 Frequencies --   1501.9667              1503.8303              1507.8700
 Red. masses --      1.2231                 1.8218                 1.0636
 Frc consts  --      1.6257                 2.4274                 1.4248
 IR Inten    --     17.8078                 0.5125                 1.2131

                     82                     83                     84
                      A                      A                      A
 Frequencies --   1510.3464              1514.9870              1518.5641
 Red. masses --      1.0993                 1.0806                 1.0811
 Frc consts  --      1.4774                 1.4613                 1.4689
 IR Inten    --      4.9526                 1.7080                 4.6678

                     85                     86                     87
                      A                      A                      A
 Frequencies --   1524.8584              1529.7190              1535.4563
 Red. masses --      1.0701                 1.0919                 1.1466
 Frc consts  --      1.4659                 1.5055                 1.5928
 IR Inten    --     10.7707                 6.6821                 7.3477

                     88                     89                     90
                      A                      A                      A
 Frequencies --   1542.3576              1543.9661              1548.9822
 Red. masses --      1.1158                 1.1304                 2.1016
 Frc consts  --      1.5639                 1.5876                 2.9710
 IR Inten    --      4.2007                 1.1215                 7.5182

                     91                     92                     93
                      A                      A                      A
 Frequencies --   1555.2558              1647.6403              1668.5939
 Red. masses --      1.1219                 5.5065                 5.6316
 Frc consts  --      1.5989                 8.8074                 9.2381
 IR Inten    --      7.9700                 1.4274                 3.5893

                     94                     95                     96
                      A                      A                      A
 Frequencies --   1716.4396              3036.4734              3047.7161
 Red. masses --      4.5113                 1.0646                 1.0659
 Frc consts  --      7.8309                 5.7833                 5.8336
 IR Inten    --    182.0747                14.0898                29.7039

                     97                     98                     99
                      A                      A                      A
 Frequencies --   3059.3534              3069.0604              3072.0935
 Red. masses --      1.0408                 1.0368                 1.0394
 Frc consts  --      5.7393                 5.7537                 5.7798
 IR Inten    --     24.1216                20.0084                 5.8908

                    100                    101                    102
                      A                      A                      A
 Frequencies --   3075.7088              3085.0939              3099.7070
 Red. masses --      1.0462                 1.0953                 1.0973
 Frc consts  --      5.8311                 6.1420                 6.2116
 IR Inten    --     11.5501                30.2822                29.9529

                    103                    104                    105
                      A                      A                      A
 Frequencies --   3122.8977              3134.7199              3136.9782
 Red. masses --      1.1020                 1.1035                 1.1026
 Frc consts  --      6.3324                 6.3886                 6.3930
 IR Inten    --     28.9085                 7.9970                32.6705

                    106                    107                    108
                      A                      A                      A
 Frequencies --   3145.9876              3165.0760              3168.7456
 Red. masses --      1.0932                 1.1000                 1.0877
 Frc consts  --      6.3749                 6.4923                 6.4350
 IR Inten    --     36.5984                26.3601                11.5661

                    109                    110                    111
                      A                      A                      A
 Frequencies --   3171.0195              3172.5010              3178.0848
 Red. masses --      1.0973                 1.0984                 1.0870
 Frc consts  --      6.5008                 6.5136                 6.4688
 IR Inten    --     12.4637                11.9579                15.0550

                    112                    113                    114
                      A                      A                      A
 Frequencies --   3185.6532              3192.7398              3200.1734
 Red. masses --      1.0964                 1.0891                 1.0935
 Frc consts  --      6.5554                 6.5413                 6.5980
 IR Inten    --     17.3818                 3.0880                34.7628

                    115                    116                    117
                      A                      A                      A
 Frequencies --   3214.6610              3539.4276              3563.9079
 Red. masses --      1.0976                 1.0635                 1.0745
 Frc consts  --      6.6831                 7.8497                 8.0407
 IR Inten    --     17.9660               125.2293                38.8387

 - Thermochemistry -
 -------------------
 Temperature   298.150 Kelvin.  Pressure   1.00000 Atm.
 Atom     1 has atomic number  6 and mass  12.00000

 Molecular mass:   249.17288 amu.
 Principal axes and moments of inertia in atomic units:
                           1         2         3
     Eigenvalues --  3231.093555017.546546657.00019
           X            0.99972  -0.02001  -0.01255
           Y            0.01982   0.99969  -0.01529
           Z            0.01285   0.01503   0.99980
 This molecule is an asymmetric top.
 Rotational symmetry number  1.
 Warning -- assumption of classical behavior for rotation
           may cause significant error
 Rotational temperatures (Kelvin)      0.02681     0.01726     0.01301
 Rotational constants (GHZ):           0.55855     0.35969     0.27110
 Zero-point vibrational energy     947270.9 (Joules/Mol)
                                  226.40317 (Kcal/Mol)
 Warning -- explicit consideration of  30 degrees of freedom as
           vibrations may cause significant error
 Vibrational temperatures:     31.28    50.80    71.61   101.43   119.72
          (Kelvin)            162.76   189.69   265.82   297.46   313.95
                              321.42   345.68   357.64   364.86   405.27
                              434.61   496.25   517.90   533.48   557.22
                              592.27   602.41   628.99   643.40   659.80
                              710.60   750.78   792.12   812.83   843.68
                              908.60   913.54   918.73   946.87  1029.27
                             1088.51  1106.89  1127.77  1132.66  1234.40
                             1262.57  1285.74  1308.77  1351.70  1357.95
                             1375.67  1388.34  1427.35  1430.29  1437.43
                             1466.40  1471.40  1480.73  1507.48  1518.06
                             1529.43  1601.50  1681.77  1707.85  1719.33
                             1724.42  1743.99  1748.61  1768.33  1773.85
                             1782.49  1831.04  1895.95  1954.83  1968.26
                             1986.93  2008.32  2017.87  2041.72  2055.17
                             2076.30  2089.19  2120.10  2161.00  2163.68
                             2169.49  2173.05  2179.73  2184.88  2193.93
                             2200.92  2209.18  2219.11  2221.42  2228.64
                             2237.67  2370.59  2400.73  2469.57  4368.81
                             4384.98  4401.73  4415.69  4420.06  4425.26
                             4438.76  4459.79  4493.15  4510.16  4513.41
                             4526.37  4553.84  4559.12  4562.39  4564.52
                             4572.56  4583.44  4593.64  4604.34  4625.18
                             5092.45  5127.67

 Zero-point correction=                           0.360796 (Hartree/Particle)
 Thermal correction to Energy=                    0.379482
 Thermal correction to Enthalpy=                  0.380426
 Thermal correction to Gibbs Free Energy=         0.314094
 Sum of electronic and zero-point Energies=           -790.375387
 Sum of electronic and thermal Energies=              -790.356702
 Sum of electronic and thermal Enthalpies=            -790.355758
 Sum of electronic and thermal Free Energies=         -790.422090

                     E (Thermal)             CV                S
                      KCal/Mol        Cal/Mol-Kelvin    Cal/Mol-Kelvin
 Total                  238.128             73.354            139.607
 Electronic               0.000              0.000              0.000
 Translational            0.889              2.981             42.439
 Rotational               0.889              2.981             33.045
 Vibrational            236.351             67.393             64.123
 Vibration     1          0.593              1.985              6.469
 Vibration     2          0.594              1.982              5.506
 Vibration     3          0.595              1.978              4.826
 Vibration     4          0.598              1.968              4.139
 Vibration     5          0.600              1.961              3.814
 Vibration     6          0.607              1.939              3.215
 Vibration     7          0.612              1.922              2.919
 Vibration     8          0.631              1.861              2.280
 Vibration     9          0.641              1.830              2.072
 Vibration    10          0.646              1.813              1.974
 Vibration    11          0.649              1.805              1.931
 Vibration    12          0.657              1.779              1.801
 Vibration    13          0.662              1.765              1.741
 Vibration    14          0.665              1.757              1.705
 Vibration    15          0.681              1.708              1.523
 Vibration    16          0.694              1.670              1.405
 Vibration    17          0.723              1.586              1.189
 Vibration    18          0.734              1.555              1.122
 Vibration    19          0.743              1.532              1.077
 Vibration    20          0.756              1.497              1.011
 Vibration    21          0.776              1.445              0.921
 Vibration    22          0.782              1.430              0.896
 Vibration    23          0.797              1.389              0.836
 Vibration    24          0.806              1.367              0.804
 Vibration    25          0.817              1.342              0.770
 Vibration    26          0.850              1.264              0.674
 Vibration    27          0.877              1.202              0.606
 Vibration    28          0.906              1.138              0.543
 Vibration    29          0.921              1.107              0.514
 Vibration    30          0.943              1.061              0.474

 Optimization completed.
    -- Stationary point found.
 Normal termination of Gaussian 16 at Fri Dec 11 20:13:01 2020.

 ----------------------------------------------------------------------
 # B3LYP/6-311++G(d,p) empiricaldispersion=gd3bj scf=xqc pop=npa geom=c
 heck
 ----------------------------------------------------------------------

 ---------------------------------------
 CID_103430443_JID_8223_Energie_neutraal
 ---------------------------------------
 Structure from the checkpoint file:  "JID_8223.chk"
 Charge =  0 Multiplicity = 1

 SCF Done:  E(RB3LYP) =  -790.966614279     A.U. after   15 cycles
 Normal termination of Gaussian 16 at Fri Dec 11 20:23:38 2020.

 ----------------------------------------------------------------------
 # B3LYP/6-311++G(d,p) empiricaldispersion=gd3bj scf=xqc pop=npa geom=c
 heck
 ----------------------------------------------------------------------

 -------------------------------------
 CID_103430443_JID_8223_Energie_kation
 -------------------------------------
 Structure from the checkpoint file:  "JID_8223.chk"
 Charge =  1 Multiplicity = 2

 SCF Done:  E(UB3LYP) =  -790.665609532     A.U. after   25 cycles
 Normal termination of Gaussian 16 at Fri Dec 11 20:48:58 2020.
 Gaussian 16:  ES64L-G16RevA.03 25-Dec-2016

 ----------------------------------------------------------------------
 # B3LYP/6-311++G(d,p) empiricaldispersion=gd3bj scf=xqc pop=npa geom=c
 heck
 ----------------------------------------------------------------------

 ------------------------------------
 CID_103430443_JID_8223_Energie_anion
 ------------------------------------
 Structure from the checkpoint file:  "JID_8223.chk"
 Charge = -1 Multiplicity = 2

                         Standard orientation:
 ---------------------------------------------------------------------
 Center     Atomic      Atomic             Coordinates (Angstroms)
 Number     Number       Type             X           Y           Z
 ---------------------------------------------------------------------
      1          6           0       -0.933590    1.945078    1.332017
      2          6           0       -0.536294    1.835021   -0.146242
      3          6           0       -1.519620    2.623030   -1.032368
      4          6           0        0.868400    2.470914   -0.334244
      5          6           0        2.018604    1.971653    0.568510
      6          6           0        2.376803    0.514691    0.376700
      7          6           0        2.993484    0.089318   -0.807521
      8          6           0        3.237317   -1.263897   -1.041224
      9          6           0        2.876581   -2.214748   -0.086270
     10          6           0        2.284946   -1.801166    1.107155
     11          6           0        2.041496   -0.447252    1.335193
     12          7           0       -0.416570    0.442221   -0.639252
     13          6           0       -1.136627   -0.714071   -0.692492
     14          8           0       -0.675746   -1.637236   -1.377652
     15          6           0       -2.429312   -1.046811    0.110613
     16          6           0       -2.042223   -1.310953    1.578285
     17          6           0       -3.577126   -0.043932   -0.028544
     18          8           0       -2.920891   -2.261259   -0.435536
     19          1           0       -0.793998    2.980004    1.663137
     20          1           0       -0.315018    1.298966    1.957195
     21          1           0       -1.978692    1.688455    1.503947
     22          1           0       -1.594162    3.663137   -0.695060
     23          1           0       -1.176662    2.621562   -2.072344
     24          1           0       -2.517994    2.183816   -1.006701
     25          1           0        1.160349    2.351438   -1.386672
     26          1           0        0.754127    3.549091   -0.172540
     27          1           0        2.892836    2.596593    0.345082
     28          1           0        1.772224    2.157722    1.618991
     29          1           0        3.276305    0.825330   -1.557589
     30          1           0        3.706053   -1.575724   -1.970231
     31          1           0        3.054138   -3.269729   -0.271781
     32          1           0        2.005584   -2.533665    1.859304
     33          1           0        1.569638   -0.133994    2.263103
     34          1           0        0.422909    0.290142   -1.187211
     35          1           0       -1.704289   -0.416776    2.104556
     36          1           0       -2.916190   -1.717538    2.096389
     37          1           0       -1.244147   -2.059309    1.612222
     38          1           0       -3.781366    0.154592   -1.085013
     39          1           0       -4.471606   -0.502536    0.403742
     40          1           0       -3.400127    0.900992    0.486069
     41          1           0       -2.167868   -2.601413   -0.965737
 ---------------------------------------------------------------------

 SCF Done:  E(UB3LYP) =  -790.957972594     A.U. after   33 cycles
 SCF Done:  E(UB3LYP) =  -790.957972594     a.u. after    1 cycles

 The electronic state is 2-A.
 Alpha  occ. eigenvalues --  -19.01667 -19.00296 -14.24260 -10.18654 -10.15178
 Alpha  occ. eigenvalues --  -10.13889 -10.08601 -10.08360 -10.08275 -10.08028
 Alpha  occ. eigenvalues --  -10.07958 -10.07827 -10.07820 -10.07726 -10.07703
 Alpha  occ. eigenvalues --  -10.07401 -10.07063 -10.06925  -0.96608  -0.91762
 Alpha  occ. eigenvalues --   -0.83349  -0.76680  -0.71819  -0.69068  -0.68199
 Alpha  occ. eigenvalues --   -0.65449  -0.62579  -0.61221  -0.60435  -0.56271
 Alpha  occ. eigenvalues --   -0.54005  -0.51578  -0.51098  -0.48322  -0.46599
 Alpha  occ. eigenvalues --   -0.42911  -0.42044  -0.39756  -0.37579  -0.37360
 Alpha  occ. eigenvalues --   -0.36603  -0.36527  -0.35678  -0.34831  -0.34432
 Alpha  occ. eigenvalues --   -0.33278  -0.33010  -0.32666  -0.31759  -0.30201
 Alpha  occ. eigenvalues --   -0.29946  -0.29263  -0.28971  -0.28753  -0.28025
 Alpha  occ. eigenvalues --   -0.27609  -0.27127  -0.26969  -0.25508  -0.24813
 Alpha  occ. eigenvalues --   -0.24257  -0.24049  -0.23203  -0.18638  -0.17853
 Alpha  occ. eigenvalues --   -0.17034  -0.16332  -0.14587   0.04042
 Alpha virt. eigenvalues --    0.06528   0.06705   0.07106   0.07392   0.07850
 Alpha virt. eigenvalues --    0.08218   0.08527   0.09017   0.09271   0.09965
 Alpha virt. eigenvalues --    0.10074   0.10653   0.10970   0.11210   0.11953

  Beta  occ. eigenvalues --  -19.01665 -19.00291 -14.24253 -10.18650 -10.15177
  Beta  occ. eigenvalues --  -10.13887 -10.08564 -10.08362 -10.08272 -10.07995
  Beta  occ. eigenvalues --  -10.07916 -10.07810 -10.07794 -10.07712 -10.07683
  Beta  occ. eigenvalues --  -10.07393 -10.07023 -10.06896  -0.96602  -0.91757
  Beta  occ. eigenvalues --   -0.83336  -0.76622  -0.71784  -0.69054  -0.68134
  Beta  occ. eigenvalues --   -0.65405  -0.62510  -0.61194  -0.60379  -0.56225
  Beta  occ. eigenvalues --   -0.53960  -0.51541  -0.51048  -0.48262  -0.46580
  Beta  occ. eigenvalues --   -0.42881  -0.41996  -0.39725  -0.37552  -0.37335
  Beta  occ. eigenvalues --   -0.36569  -0.36465  -0.35642  -0.34809  -0.34391
  Beta  occ. eigenvalues --   -0.33240  -0.32984  -0.32633  -0.31734  -0.30162
  Beta  occ. eigenvalues --   -0.29909  -0.29229  -0.28926  -0.28724  -0.27999
  Beta  occ. eigenvalues --   -0.27570  -0.27058  -0.26941  -0.25470  -0.24794
  Beta  occ. eigenvalues --   -0.24216  -0.24005  -0.23161  -0.18631  -0.17830
  Beta  occ. eigenvalues --   -0.16980  -0.16243  -0.14443
  Beta virt. eigenvalues --    0.06264   0.07040   0.07137   0.07467   0.07614
  Beta virt. eigenvalues --    0.08180   0.08569   0.09001   0.09520   0.09582
  Beta virt. eigenvalues --    0.10192   0.10303   0.11000   0.11149   0.11477

 Mulliken charges and spin densities:
               1          2
     1  C    1.454040  -2.142118
     2  C   -1.971554   2.255007
     3  C    1.081006  -1.579724
     4  C    0.992798  -1.552697
     5  C    1.248979  -1.781197
     6  C   -1.108329   1.730582
     7  C   -0.288551   0.036028
     8  C   -0.127897  -0.122971
     9  C    0.446211  -0.732200
    10  C   -0.126060  -0.090932
    11  C   -0.552450   0.338188
    12  N    0.080408  -0.014066
    13  C    0.182490  -0.257424
    14  O   -0.274438  -0.005816
    15  C   -0.616685   0.474402
    16  C   -0.109480  -0.237199
    17  C   -0.034632  -0.381659
    18  O   -0.164924   0.001940
    19  H   -0.580479   0.796532
    20  H    0.243231  -0.103626
    21  H   -0.002932   0.117579
    22  H   -0.338568   0.510200
    23  H   -0.124961   0.293485
    24  H    0.096920   0.008239
    25  H    0.063546   0.095424
    26  H   -0.376285   0.560624
    27  H   -0.655906   0.875978
    28  H   -0.139279   0.298641
    29  H   -0.296560   0.462531
    30  H   -0.038434   0.204229
    31  H    0.141242  -0.009410
    32  H   -0.043262   0.216739
    33  H   -0.285708   0.429728
    34  H    0.516222  -0.191207
    35  H    0.069424   0.060368
    36  H    0.053002   0.109158
    37  H    0.195470  -0.019699
    38  H    0.098150   0.076553
    39  H    0.127205   0.048597
    40  H   -0.088572   0.213074
    41  H    0.255600   0.008122
 Sum of Mulliken charges =  -1.00000   1.00000

 Dipole moment (field-independent basis, Debye):
    X=             -1.6408    Y=             -6.3683    Z=             -0.6843  Tot=              6.6118
 Quadrupole moment (field-independent basis, Debye-Ang):
   XX=           -170.1795   YY=           -184.2783   ZZ=           -147.7151
   XY=            -11.6953   XZ=             -1.8794   YZ=             -7.4925

 Summary of Natural Population Analysis:

                                       Natural Population
                Natural  -----------------------------------------------
    Atom  No    Charge         Core      Valence    Rydberg      Total
 -----------------------------------------------------------------------
      C    1   -0.29205      0.99960     2.28448    0.00797     3.29205
      C    2    0.05808      0.99955     1.92751    0.01485     2.94192
      C    3   -0.28454      0.99961     2.27833    0.00659     3.28454
      C    4   -0.18523      0.99958     2.17419    0.01146     3.18523
      C    5   -0.20124      0.99959     2.19014    0.01151     3.20124
      C    6   -0.01088      0.99950     1.99976    0.01162     3.01088
      C    7   -0.10842      0.99950     2.09904    0.00989     3.10842
      C    8   -0.09835      0.99956     2.08876    0.01003     3.09835
      C    9   -0.09701      0.99956     2.08855    0.00889     3.09701
      C   10   -0.09830      0.99956     2.08879    0.00995     3.09830
      C   11   -0.09803      0.99949     2.08921    0.00933     3.09803
      N   12   -0.32061      0.99964     2.80918    0.01180     3.82061
      C   13    0.34532      0.99962     1.63315    0.02191     2.65468
      O   14   -0.33861      0.99987     3.33324    0.00550     4.33861
      C   15    0.09329      0.99956     1.89273    0.01442     2.90671
      C   16   -0.29175      0.99962     2.28472    0.00742     3.29175
      C   17   -0.29158      0.99962     2.28440    0.00756     3.29158
      O   18   -0.38597      0.99989     3.37923    0.00685     4.38597
      H   19    0.11068      0.00000     0.38748    0.00183     0.38932
      H   20    0.10357      0.00000     0.39468    0.00175     0.39643
      H   21    0.09912      0.00000     0.39947    0.00141     0.40088
      H   22    0.10531      0.00000     0.39339    0.00130     0.39469
      H   23    0.10174      0.00000     0.39725    0.00101     0.39826
      H   24    0.10126      0.00000     0.39770    0.00105     0.39874
      H   25    0.09726      0.00000     0.40092    0.00182     0.40274
      H   26    0.11206      0.00000     0.38437    0.00356     0.38794
      H   27    0.11046      0.00000     0.38726    0.00228     0.38954
      H   28    0.10379      0.00000     0.39419    0.00201     0.39621
      H   29    0.10233      0.00000     0.39649    0.00118     0.39767
      H   30    0.09910      0.00000     0.40015    0.00075     0.40090
      H   31    0.09800      0.00000     0.40127    0.00073     0.40200
      H   32    0.09892      0.00000     0.40028    0.00080     0.40108
      H   33    0.09981      0.00000     0.39857    0.00162     0.40019
      H   34    0.20209      0.00000     0.29442    0.00348     0.29791
      H   35    0.10266      0.00000     0.39627    0.00107     0.39734
      H   36    0.10145      0.00000     0.39768    0.00087     0.39855
      H   37    0.10476      0.00000     0.39421    0.00103     0.39524
      H   38    0.10404      0.00000     0.39506    0.00090     0.39596
      H   39    0.10490      0.00000     0.39429    0.00081     0.39510
      H   40    0.09936      0.00000     0.39969    0.00095     0.40064
      H   41    0.24319      0.00000     0.25349    0.00331     0.25681
 =======================================================================
   * Total *   -0.00000     17.99291    49.78402    0.22307    68.00000

 Normal termination of Gaussian 16 at Fri Dec 11 21:22:24 2020.
