 Gaussian 16, Revision A.03,

 -----------------------------------------------------------
 # opt freq B3LYP/6-31G(d) empiricaldispersion=gd3bj scf=xqc
 -----------------------------------------------------------

 -------------------------------
 CID_113419961_JID_8488_neutraal
 -------------------------------
 Symbolic Z-matrix:
 Charge =  0 Multiplicity = 1

 SCF Done:  E(RB3LYP) =  -750.965416190     A.U. after   14 cycles
 SCF Done:  E(RB3LYP) =  -750.970944143     A.U. after   12 cycles
 SCF Done:  E(RB3LYP) =  -750.971936399     A.U. after   12 cycles
 SCF Done:  E(RB3LYP) =  -750.972731969     A.U. after   12 cycles
 SCF Done:  E(RB3LYP) =  -750.972751045     A.U. after   12 cycles
 SCF Done:  E(RB3LYP) =  -750.972957182     A.U. after   11 cycles
 SCF Done:  E(RB3LYP) =  -750.972973000     A.U. after   11 cycles
 SCF Done:  E(RB3LYP) =  -750.972981265     A.U. after   11 cycles
 SCF Done:  E(RB3LYP) =  -750.972988139     A.U. after    9 cycles
 SCF Done:  E(RB3LYP) =  -750.972990616     A.U. after   10 cycles
 SCF Done:  E(RB3LYP) =  -750.972990889     A.U. after    8 cycles
 SCF Done:  E(RB3LYP) =  -750.972990929     A.U. after    7 cycles
 Optimization completed.
    -- Stationary point found.
 Normal termination of Gaussian 16 at Fri Dec 11 20:54:22 2020.

 --------------------------------------------------------------------
 #N Geom=AllCheck Guess=TCheck SCRF=Check GenChk RB3LYP/6-31G(d) Freq
 --------------------------------------------------------------------

 Structure from the checkpoint file:  "JID_8488.chk"
 -------------------------------
 CID_113419961_JID_8488_neutraal
 -------------------------------
 Charge =  0 Multiplicity = 1

 SCF Done:  E(RB3LYP) =  -750.972990930     A.U. after    1 cycles

  Exact polarizability: 212.236  15.071 184.154  12.962  -5.656 127.568
 Approx polarizability: 278.489  23.720 287.227  27.907 -14.628 200.954

                      1                      2                      3
                      A                      A                      A
 Frequencies --     14.6640                36.4733                55.6382
 Red. masses --      4.3854                 3.6433                 3.1068
 Frc consts  --      0.0006                 0.0029                 0.0057
 IR Inten    --      0.2537                 0.8916                 0.7093

                      4                      5                      6
                      A                      A                      A
 Frequencies --     67.7798                79.2869               119.4509
 Red. masses --      3.6783                 3.9184                 3.4661
 Frc consts  --      0.0100                 0.0145                 0.0291
 IR Inten    --      0.2261                 0.6232                 0.4380

                      7                      8                      9
                      A                      A                      A
 Frequencies --    172.4742               202.8753               214.0279
 Red. masses --      3.5543                 3.1942                 2.9085
 Frc consts  --      0.0623                 0.0775                 0.0785
 IR Inten    --      1.5453                 0.5421                 2.2437

                     10                     11                     12
                      A                      A                      A
 Frequencies --    221.8568               243.6712               259.5200
 Red. masses --      1.0562                 2.1821                 3.0613
 Frc consts  --      0.0306                 0.0763                 0.1215
 IR Inten    --      0.0757                 0.7162                 1.6472

                     13                     14                     15
                      A                      A                      A
 Frequencies --    277.3222               280.1411               318.6152
 Red. masses --      1.0800                 1.0464                 2.5962
 Frc consts  --      0.0489                 0.0484                 0.1553
 IR Inten    --      0.8299                22.1800                 0.0835

                     16                     17                     18
                      A                      A                      A
 Frequencies --    336.0224               375.6130               382.9012
 Red. masses --      2.5140                 2.5092                 2.3809
 Frc consts  --      0.1672                 0.2086                 0.2057
 IR Inten    --      2.8275                 4.8858                 2.6320

                     19                     20                     21
                      A                      A                      A
 Frequencies --    396.5751               419.9953               428.8742
 Red. masses --      3.3421                 3.1079                 2.9949
 Frc consts  --      0.3097                 0.3230                 0.3246
 IR Inten    --      2.7998                 0.2594                 1.4968

                     22                     23                     24
                      A                      A                      A
 Frequencies --    438.5837               448.4711               461.6240
 Red. masses --      1.9342                 2.8554                 2.2672
 Frc consts  --      0.2192                 0.3384                 0.2847
 IR Inten    --      0.3748                 2.1077                 4.0441

                     25                     26                     27
                      A                      A                      A
 Frequencies --    500.7284               503.8802               541.3943
 Red. masses --      3.0968                 2.8982                 2.2273
 Frc consts  --      0.4575                 0.4335                 0.3846
 IR Inten    --      4.9581                 1.2088                42.3910

                     28                     29                     30
                      A                      A                      A
 Frequencies --    616.2537               626.1982               656.9874
 Red. masses --      2.6780                 2.0104                 2.1025
 Frc consts  --      0.5992                 0.4645                 0.5347
 IR Inten    --     60.6674                45.1916               160.9381

                     31                     32                     33
                      A                      A                      A
 Frequencies --    663.3360               715.0930               754.7498
 Red. masses --      2.7066                 3.3288                 3.3805
 Frc consts  --      0.7017                 1.0029                 1.1346
 IR Inten    --     91.0737                 0.3072                22.5557

                     34                     35                     36
                      A                      A                      A
 Frequencies --    772.1991               794.2817               824.3516
 Red. masses --      2.3446                 3.6696                 1.3130
 Frc consts  --      0.8237                 1.3640                 0.5257
 IR Inten    --     12.0628                 6.7140                 1.4984

                     37                     38                     39
                      A                      A                      A
 Frequencies --    827.9993               845.7054               855.1781
 Red. masses --      2.1134                 2.0060                 1.6683
 Frc consts  --      0.8537                 0.8453                 0.7189
 IR Inten    --     15.1957                43.7620                 0.4264

                     40                     41                     42
                      A                      A                      A
 Frequencies --    864.1061               889.8331               921.2116
 Red. masses --      3.2719                 1.8938                 2.3072
 Frc consts  --      1.4394                 0.8835                 1.1536
 IR Inten    --      0.5336                 8.3006                 4.9287

                     43                     44                     45
                      A                      A                      A
 Frequencies --    942.3339               950.9193               973.8366
 Red. masses --      1.3103                 1.3268                 2.5777
 Frc consts  --      0.6855                 0.7069                 1.4403
 IR Inten    --      0.7388                 4.0060                 6.4402

                     46                     47                     48
                      A                      A                      A
 Frequencies --   1009.6732              1017.9617              1037.1839
 Red. masses --      2.1043                 1.5709                 2.8160
 Frc consts  --      1.2639                 0.9591                 1.7848
 IR Inten    --     16.5670                 6.8727                 3.1607

                     49                     50                     51
                      A                      A                      A
 Frequencies --   1044.3486              1068.1671              1075.0560
 Red. masses --      2.2642                 1.7989                 1.8492
 Frc consts  --      1.4549                 1.2093                 1.2592
 IR Inten    --     29.3995                 7.6783                 7.9819

                     52                     53                     54
                      A                      A                      A
 Frequencies --   1082.0654              1092.2110              1106.7588
 Red. masses --      1.8700                 1.9077                 1.7672
 Frc consts  --      1.2900                 1.3408                 1.2754
 IR Inten    --      4.7662                13.6259                 7.5398

                     55                     56                     57
                      A                      A                      A
 Frequencies --   1108.4951              1133.1593              1166.9907
 Red. masses --      1.6565                 1.9177                 1.3560
 Frc consts  --      1.1992                 1.4508                 1.0880
 IR Inten    --      2.7584                 4.5196                 7.3951

                     58                     59                     60
                      A                      A                      A
 Frequencies --   1168.7546              1178.1671              1185.2453
 Red. masses --      1.4099                 2.5690                 2.3975
 Frc consts  --      1.1347                 2.1010                 1.9844
 IR Inten    --      6.5447                39.1494                16.9248

                     61                     62                     63
                      A                      A                      A
 Frequencies --   1192.6173              1219.8316              1226.2085
 Red. masses --      2.0579                 1.1562                 1.5266
 Frc consts  --      1.7245                 1.0136                 1.3524
 IR Inten    --      5.7297                18.6573                 4.1718

                     64                     65                     66
                      A                      A                      A
 Frequencies --   1236.9183              1253.5546              1296.7999
 Red. masses --      1.4253                 1.3267                 1.9338
 Frc consts  --      1.2848                 1.2283                 1.9160
 IR Inten    --      5.1625                 3.0162                 7.9703

                     67                     68                     69
                      A                      A                      A
 Frequencies --   1304.8428              1320.1301              1325.8307
 Red. masses --      1.2994                 3.3189                 1.5032
 Frc consts  --      1.3035                 3.4078                 1.5569
 IR Inten    --      5.0313                75.9758                 5.8667

                     70                     71                     72
                      A                      A                      A
 Frequencies --   1330.8911              1345.8604              1365.1921
 Red. masses --      1.4915                 1.7781                 1.3429
 Frc consts  --      1.5565                 1.8976                 1.4747
 IR Inten    --      9.2568                 4.0941                11.4171

                     73                     74                     75
                      A                      A                      A
 Frequencies --   1375.6802              1380.2679              1395.7689
 Red. masses --      2.0499                 1.3075                 1.4068
 Frc consts  --      2.2857                 1.4677                 1.6147
 IR Inten    --      5.9809                 2.8476                 0.5305

                     76                     77                     78
                      A                      A                      A
 Frequencies --   1396.8922              1402.3894              1406.5736
 Red. masses --      1.5237                 1.3193                 1.5255
 Frc consts  --      1.7518                 1.5287                 1.7782
 IR Inten    --      8.1128                18.4810                40.1589

                     79                     80                     81
                      A                      A                      A
 Frequencies --   1416.7679              1428.3222              1433.7396
 Red. masses --      1.3451                 1.3858                 1.3092
 Frc consts  --      1.5907                 1.6657                 1.5856
 IR Inten    --     21.6241                 9.2233                 9.4453

                     82                     83                     84
                      A                      A                      A
 Frequencies --   1454.3158              1480.2871              1489.7933
 Red. masses --      1.4080                 1.1442                 2.6439
 Frc consts  --      1.7546                 1.4772                 3.4574
 IR Inten    --      3.2492                 1.5808                 1.9321

                     85                     86                     87
                      A                      A                      A
 Frequencies --   1497.3877              1510.9340              1512.2003
 Red. masses --      1.0846                 1.1164                 1.0730
 Frc consts  --      1.4328                 1.5016                 1.4457
 IR Inten    --      1.8668                 5.3620                 0.9954

                     88                     89                     90
                      A                      A                      A
 Frequencies --   1513.2894              1517.6419              1524.0450
 Red. masses --      1.0726                 1.0754                 1.0653
 Frc consts  --      1.4472                 1.4594                 1.4578
 IR Inten    --      8.2700                 3.8436                 9.7715

                     91                     92                     93
                      A                      A                      A
 Frequencies --   1525.8352              1543.4727              1548.0936
 Red. masses --      1.0890                 1.1041                 1.0500
 Frc consts  --      1.4938                 1.5497                 1.4827
 IR Inten    --      3.0290                 7.1763                 2.3213

                     94                     95                     96
                      A                      A                      A
 Frequencies --   1554.6243              1571.3455              1638.4441
 Red. masses --      1.0635                 2.5004                 5.8769
 Frc consts  --      1.5144                 3.6375                 9.2953
 IR Inten    --     10.5669                83.0665                 1.8628

                     97                     98                     99
                      A                      A                      A
 Frequencies --   1678.1018              1696.6514              2913.2957
 Red. masses --      2.7550                 1.4521                 1.0741
 Frc consts  --      4.5710                 2.4628                 5.3712
 IR Inten    --     13.6037               119.7323                24.0853

                    100                    101                    102
                      A                      A                      A
 Frequencies --   2917.4927              2927.1714              2973.7513
 Red. masses --      1.0734                 1.0718                 1.0582
 Frc consts  --      5.3830                 5.4106                 5.5133
 IR Inten    --     29.4532               140.0087               114.2285

                    103                    104                    105
                      A                      A                      A
 Frequencies --   3014.3156              3034.0830              3039.1283
 Red. masses --      1.0817                 1.0624                 1.0616
 Frc consts  --      5.7906                 5.7623                 5.7770
 IR Inten    --     24.0950                29.3718                24.3109

                    106                    107                    108
                      A                      A                      A
 Frequencies --   3040.4434              3050.7633              3068.1218
 Red. masses --      1.0630                 1.0418                 1.1006
 Frc consts  --      5.7897                 5.7128                 6.1042
 IR Inten    --     68.7340                39.4225                31.8368

                    109                    110                    111
                      A                      A                      A
 Frequencies --   3070.5261              3079.2535              3090.9580
 Red. masses --      1.0748                 1.0881                 1.1022
 Frc consts  --      5.9703                 6.0785                 6.2045
 IR Inten    --     49.9210                22.2280                25.0774

                    112                    113                    114
                      A                      A                      A
 Frequencies --   3093.6709              3097.4100              3099.2540
 Red. masses --      1.1026                 1.0859                 1.0878
 Frc consts  --      6.2175                 6.1382                 6.1562
 IR Inten    --     75.0081                13.2649                54.3460

                    115                    116                    117
                      A                      A                      A
 Frequencies --   3108.8067              3113.9727              3156.5520
 Red. masses --      1.1008                 1.1035                 1.0979
 Frc consts  --      6.2682                 6.3043                 6.4454
 IR Inten    --     51.4175                38.3776                12.8950

                    118                    119                    120
                      A                      A                      A
 Frequencies --   3163.2700              3169.8255              3181.7595
 Red. masses --      1.0862                 1.0891                 1.0940
 Frc consts  --      6.4038                 6.4476                 6.5253
 IR Inten    --     20.1422                19.7788                28.8449

                    121                    122                    123
                      A                      A                      A
 Frequencies --   3221.8018              3542.2671              3639.8942
 Red. masses --      1.0909                 1.0480                 1.0975
 Frc consts  --      6.6715                 7.7479                 8.5668
 IR Inten    --      8.1642                 9.1988                 6.2191

 - Thermochemistry -
 -------------------
 Temperature   298.150 Kelvin.  Pressure   1.00000 Atm.
 Atom     1 has atomic number  6 and mass  12.00000

 Molecular mass:   247.20485 amu.
 Principal axes and moments of inertia in atomic units:
                           1         2         3
     Eigenvalues --  2427.203717844.574679175.57280
           X            0.99999  -0.00217  -0.00252
           Y            0.00218   0.99999   0.00468
           Z            0.00251  -0.00469   0.99999
 This molecule is an asymmetric top.
 Rotational symmetry number  1.
 Warning -- assumption of classical behavior for rotation
           may cause significant error
 Rotational temperatures (Kelvin)      0.03568     0.01104     0.00944
 Rotational constants (GHZ):           0.74355     0.23006     0.19669
 Zero-point vibrational energy    1022128.9 (Joules/Mol)
                                  244.29466 (Kcal/Mol)
 Warning -- explicit consideration of  28 degrees of freedom as
           vibrations may cause significant error
 Vibrational temperatures:     21.10    52.48    80.05    97.52   114.08
          (Kelvin)            171.86   248.15   291.89   307.94   319.20
                              350.59   373.39   399.00   403.06   458.42
                              483.46   540.42   550.91   570.58   604.28
                              617.05   631.02   645.25   664.17   720.44
                              724.97   778.95   886.65   900.96   945.26
                              954.39  1028.86  1085.92  1111.02  1142.79
                             1186.06  1191.31  1216.78  1230.41  1243.26
                             1280.27  1325.42  1355.81  1368.16  1401.13
                             1452.69  1464.62  1492.28  1502.58  1536.85
                             1546.77  1556.85  1571.45  1592.38  1594.88
                             1630.36  1679.04  1681.58  1695.12  1705.30
                             1715.91  1755.07  1764.24  1779.65  1803.59
                             1865.81  1877.38  1899.37  1907.57  1914.86
                             1936.39  1964.21  1979.30  1985.90  2008.20
                             2009.82  2017.73  2023.75  2038.41  2055.04
                             2062.83  2092.44  2129.80  2143.48  2154.41
                             2173.90  2175.72  2177.29  2183.55  2192.76
                             2195.34  2220.71  2227.36  2236.76  2260.82
                             2357.36  2414.41  2441.10  4191.58  4197.62
                             4211.55  4278.56  4336.93  4365.37  4372.63
                             4374.52  4389.37  4414.34  4417.80  4430.36
                             4447.20  4451.10  4456.48  4459.14  4472.88
                             4480.31  4541.57  4551.24  4560.67  4577.84
                             4635.45  5096.53  5237.00

 Zero-point correction=                           0.389308 (Hartree/Particle)
 Thermal correction to Energy=                    0.407018
 Thermal correction to Enthalpy=                  0.407962
 Thermal correction to Gibbs Free Energy=         0.342988
 Sum of electronic and zero-point Energies=           -750.583683
 Sum of electronic and thermal Energies=              -750.565973
 Sum of electronic and thermal Enthalpies=            -750.565029
 Sum of electronic and thermal Free Energies=         -750.630003

                     E (Thermal)             CV                S
                      KCal/Mol        Cal/Mol-Kelvin    Cal/Mol-Kelvin
 Total                  255.408             70.458            136.749
 Electronic               0.000              0.000              0.000
 Translational            0.889              2.981             42.416
 Rotational               0.889              2.981             33.524
 Vibrational            253.630             64.496             60.809
 Vibration     1          0.593              1.986              7.251
 Vibration     2          0.594              1.982              5.442
 Vibration     3          0.596              1.975              4.606
 Vibration     4          0.598              1.970              4.217
 Vibration     5          0.600              1.963              3.908
 Vibration     6          0.609              1.933              3.109
 Vibration     7          0.626              1.876              2.408
 Vibration     8          0.639              1.836              2.107
 Vibration     9          0.644              1.820              2.009
 Vibration    10          0.648              1.808              1.944
 Vibration    11          0.659              1.773              1.776
 Vibration    12          0.668              1.747              1.665
 Vibration    13          0.678              1.715              1.550
 Vibration    14          0.680              1.710              1.533
 Vibration    15          0.705              1.638              1.317
 Vibration    16          0.717              1.604              1.231
 Vibration    17          0.746              1.522              1.057
 Vibration    18          0.752              1.507              1.028
 Vibration    19          0.763              1.477              0.975
 Vibration    20          0.783              1.427              0.892
 Vibration    21          0.790              1.407              0.862
 Vibration    22          0.799              1.386              0.831
 Vibration    23          0.807              1.364              0.800
 Vibration    24          0.819              1.335              0.761
 Vibration    25          0.856              1.248              0.656
 Vibration    26          0.859              1.241              0.648
 Vibration    27          0.896              1.159              0.562
 Vibration    28          0.976              0.998              0.423

 Optimization completed.
    -- Stationary point found.
 Normal termination of Gaussian 16 at Fri Dec 11 21:16:48 2020.

 ----------------------------------------------------------------------
 # B3LYP/6-311++G(d,p) empiricaldispersion=gd3bj scf=xqc pop=npa geom=c
 heck
 ----------------------------------------------------------------------

 ---------------------------------------
 CID_113419961_JID_8488_Energie_neutraal
 ---------------------------------------
 Structure from the checkpoint file:  "JID_8488.chk"
 Charge =  0 Multiplicity = 1

 SCF Done:  E(RB3LYP) =  -751.179251554     A.U. after   15 cycles
 Normal termination of Gaussian 16 at Fri Dec 11 21:28:16 2020.

 ----------------------------------------------------------------------
 # B3LYP/6-311++G(d,p) empiricaldispersion=gd3bj scf=xqc pop=npa geom=c
 heck
 ----------------------------------------------------------------------

 -------------------------------------
 CID_113419961_JID_8488_Energie_kation
 -------------------------------------
 Structure from the checkpoint file:  "JID_8488.chk"
 Charge =  1 Multiplicity = 2

 SCF Done:  E(UB3LYP) =  -750.925075623     A.U. after   24 cycles
 Normal termination of Gaussian 16 at Fri Dec 11 21:53:42 2020.
 Gaussian 16:  ES64L-G16RevA.03 25-Dec-2016

 ----------------------------------------------------------------------
 # B3LYP/6-311++G(d,p) empiricaldispersion=gd3bj scf=xqc pop=npa geom=c
 heck
 ----------------------------------------------------------------------

 ------------------------------------
 CID_113419961_JID_8488_Energie_anion
 ------------------------------------
 Structure from the checkpoint file:  "JID_8488.chk"
 Charge = -1 Multiplicity = 2

                         Standard orientation:
 ---------------------------------------------------------------------
 Center     Atomic      Atomic             Coordinates (Angstroms)
 Number     Number       Type             X           Y           Z
 ---------------------------------------------------------------------
      1          6           0       -0.181237    2.155824    1.608534
      2          6           0       -1.011862    2.106043    0.316947
      3          6           0       -0.132000    2.191181   -0.960997
      4          6           0        0.521118    0.884684   -1.422106
      5          7           0        1.402640    0.256784   -0.439996
      6          6           0        2.658955    0.982860   -0.261761
      7          6           0        3.498460    0.317891    0.836331
      8          7           0        3.761408   -1.101688    0.602040
      9          6           0        2.499556   -1.794370    0.339589
     10          6           0        1.656560   -1.146466   -0.764792
     11          6           0        4.784279   -1.348345   -0.405752
     12          6           0       -1.965318    0.924133    0.259666
     13          6           0       -1.626175   -0.344087    0.750489
     14          6           0       -2.498124   -1.423591    0.642563
     15          6           0       -3.753750   -1.274034    0.033755
     16          6           0       -4.103521   -0.008370   -0.459410
     17          6           0       -3.220675    1.061873   -0.343692
     18          7           0       -4.609516   -2.372050   -0.128030
     19          1           0        0.409165    3.079363    1.642479
     20          1           0        0.510929    1.313773    1.667732
     21          1           0       -0.832602    2.137699    2.489366
     22          1           0       -1.633588    3.012445    0.307689
     23          1           0       -0.762593    2.527417   -1.794561
     24          1           0        0.622643    2.975873   -0.819035
     25          1           0        1.057858    1.070288   -2.374665
     26          1           0       -0.274504    0.167234   -1.645518
     27          1           0        3.230266    1.030643   -1.211039
     28          1           0        2.438098    2.014095    0.030898
     29          1           0        2.953553    0.406247    1.785679
     30          1           0        4.454247    0.841878    0.950039
     31          1           0        1.913055   -1.784576    1.268265
     32          1           0        2.713501   -2.839719    0.089450
     33          1           0        0.691841   -1.661191   -0.840135
     34          1           0        2.161748   -1.251899   -1.745964
     35          1           0        4.541408   -0.993690   -1.422830
     36          1           0        5.714895   -0.859386   -0.096546
     37          1           0        4.973193   -2.426020   -0.465983
     38          1           0       -0.656607   -0.494746    1.212067
     39          1           0       -2.205423   -2.396633    1.031699
     40          1           0       -5.072464    0.133949   -0.933059
     41          1           0       -3.519264    2.034389   -0.730250
     42          1           0       -5.588809   -2.126396   -0.210541
     43          1           0       -4.479865   -3.103712    0.560479
 ---------------------------------------------------------------------

 SCF Done:  E(UB3LYP) =  -751.166769266     A.U. after   33 cycles
 SCF Done:  E(UB3LYP) =  -751.166769266     a.u. after    1 cycles

 The electronic state is 2-A.
 Alpha  occ. eigenvalues --  -14.21677 -14.21598 -14.21561 -10.11530 -10.10442
 Alpha  occ. eigenvalues --  -10.10396 -10.10202 -10.10143 -10.10044 -10.09933
 Alpha  occ. eigenvalues --  -10.08743 -10.07902 -10.07679 -10.07379 -10.07299
 Alpha  occ. eigenvalues --  -10.07150 -10.07096 -10.06477  -0.85942  -0.82034
 Alpha  occ. eigenvalues --   -0.81733  -0.75257  -0.70650  -0.67510  -0.65484
 Alpha  occ. eigenvalues --   -0.64968  -0.62340  -0.61405  -0.56888  -0.55602
 Alpha  occ. eigenvalues --   -0.53397  -0.51628  -0.50463  -0.46854  -0.46105
 Alpha  occ. eigenvalues --   -0.42298  -0.41446  -0.41089  -0.38744  -0.38406
 Alpha  occ. eigenvalues --   -0.37796  -0.36878  -0.36630  -0.35350  -0.34317
 Alpha  occ. eigenvalues --   -0.33963  -0.33519  -0.32563  -0.32038  -0.30844
 Alpha  occ. eigenvalues --   -0.30280  -0.29855  -0.29575  -0.28424  -0.27894
 Alpha  occ. eigenvalues --   -0.27001  -0.26494  -0.26246  -0.25146  -0.25045
 Alpha  occ. eigenvalues --   -0.24724  -0.23012  -0.22874  -0.20786  -0.15833
 Alpha  occ. eigenvalues --   -0.14148  -0.11926  -0.10952   0.03932
 Alpha virt. eigenvalues --    0.05141   0.06084   0.06926   0.07167   0.07525
 Alpha virt. eigenvalues --    0.07935   0.08536   0.08697   0.09043   0.09439
 Alpha virt. eigenvalues --    0.09608   0.10223   0.10775   0.11051   0.11111

  Beta  occ. eigenvalues --  -14.21615 -14.21598 -14.21553 -10.11525 -10.10430
  Beta  occ. eigenvalues --  -10.10386 -10.10189 -10.10136 -10.10039 -10.09905
  Beta  occ. eigenvalues --  -10.08740 -10.07894 -10.07675 -10.07377 -10.07296
  Beta  occ. eigenvalues --  -10.07132 -10.07081 -10.06469  -0.85930  -0.81965
  Beta  occ. eigenvalues --   -0.81719  -0.75233  -0.70626  -0.67491  -0.65463
  Beta  occ. eigenvalues --   -0.64947  -0.62301  -0.61375  -0.56859  -0.55572
  Beta  occ. eigenvalues --   -0.53367  -0.51595  -0.50426  -0.46820  -0.46073
  Beta  occ. eigenvalues --   -0.42235  -0.41412  -0.41045  -0.38724  -0.38384
  Beta  occ. eigenvalues --   -0.37767  -0.36852  -0.36608  -0.35320  -0.34286
  Beta  occ. eigenvalues --   -0.33937  -0.33501  -0.32542  -0.32010  -0.30820
  Beta  occ. eigenvalues --   -0.30257  -0.29830  -0.29546  -0.28396  -0.27876
  Beta  occ. eigenvalues --   -0.26980  -0.26475  -0.26229  -0.25128  -0.25026
  Beta  occ. eigenvalues --   -0.24707  -0.22999  -0.22859  -0.20753  -0.15820
  Beta  occ. eigenvalues --   -0.14113  -0.11901  -0.10912
  Beta virt. eigenvalues --    0.05700   0.06362   0.06734   0.07154   0.07726
  Beta virt. eigenvalues --    0.07896   0.08072   0.08743   0.08929   0.09240
  Beta virt. eigenvalues --    0.09660   0.09766   0.10309   0.11011   0.11280

 Mulliken charges and spin densities:
               1          2
     1  C   -0.412887  -0.333956
     2  C    0.623981  -0.258882
     3  C   -0.220896  -0.366848
     4  C   -0.283489   0.022945
     5  N    0.263833   0.001836
     6  C   -0.040166  -0.116543
     7  C   -0.141268  -0.514975
     8  N   -0.004736   0.150598
     9  C   -0.272543  -0.433463
    10  C   -0.210882   0.024505
    11  C    0.453522  -0.757812
    12  C    0.639382  -0.141229
    13  C   -0.382091   0.188860
    14  C   -0.169502  -0.103575
    15  C    1.160560  -1.340028
    16  C   -0.301529  -0.047482
    17  C   -0.654204   0.412557
    18  N   -0.305954  -0.003724
    19  H   -0.005295   0.150204
    20  H    0.205907  -0.069559
    21  H    0.102528   0.034436
    22  H    0.145258   0.052527
    23  H    0.052352   0.099236
    24  H   -0.023896   0.169493
    25  H    0.028253   0.084570
    26  H    0.128807   0.017104
    27  H   -0.051445   0.208545
    28  H    0.009980   0.090942
    29  H    0.093005   0.064715
    30  H   -0.154311   0.335939
    31  H    0.065302   0.108724
    32  H    0.051386   0.125474
    33  H    0.093996   0.050445
    34  H    0.019905   0.131556
    35  H   -0.058650   0.165347
    36  H   -0.174357   0.321979
    37  H   -0.118250   0.260580
    38  H    0.230722  -0.131404
    39  H   -0.398008   0.569877
    40  H   -0.414425   0.585567
    41  H   -0.079062   0.209961
    42  H   -0.298416   0.546515
    43  H   -0.192419   0.434444
 Sum of Mulliken charges =  -1.00000   1.00000

 Dipole moment (field-independent basis, Debye):
    X=              4.0593    Y=              4.2168    Z=             -0.0047  Tot=              5.8531
 Quadrupole moment (field-independent basis, Debye-Ang):
   XX=           -239.9162   YY=           -162.4795   ZZ=           -143.7896
   XY=            -18.9498   XZ=              0.1891   YZ=              0.9299

 Summary of Natural Population Analysis:

                                       Natural Population
                Natural  -----------------------------------------------
    Atom  No    Charge         Core      Valence    Rydberg      Total
 -----------------------------------------------------------------------
      C    1   -0.28552      0.99965     2.28113    0.00474     3.28552
      C    2   -0.11323      0.99957     2.10307    0.01059     3.11323
      C    3   -0.18654      0.99960     2.17831    0.00863     3.18654
      C    4   -0.08485      0.99961     2.07469    0.01055     3.08485
      N    5   -0.29267      0.99971     2.78027    0.01270     3.79267
      C    6   -0.09613      0.99961     2.08578    0.01075     3.09613
      C    7   -0.08794      0.99961     2.07627    0.01207     3.08794
      N    8   -0.27864      0.99974     2.76550    0.01340     3.77864
      C    9   -0.08774      0.99961     2.07657    0.01156     3.08774
      C   10   -0.09367      0.99961     2.08461    0.00946     3.09367
      C   11   -0.17972      0.99964     2.17152    0.00856     3.17972
      C   12   -0.03652      0.99949     2.02555    0.01147     3.03652
      C   13   -0.09527      0.99951     2.08681    0.00895     3.09527
      C   14   -0.12202      0.99952     2.11243    0.01007     3.12202
      C   15    0.08345      0.99948     1.90549    0.01158     2.91655
      C   16   -0.12332      0.99952     2.11366    0.01014     3.12332
      C   17   -0.09174      0.99951     2.08301    0.00922     3.09174
      N   18   -0.39534      0.99972     2.88511    0.01051     3.89534
      H   19    0.09527      0.00000     0.40386    0.00086     0.40473
      H   20    0.10475      0.00000     0.39348    0.00178     0.39525
      H   21    0.09870      0.00000     0.40051    0.00079     0.40130
      H   22    0.09548      0.00000     0.40282    0.00169     0.40452
      H   23    0.10018      0.00000     0.39893    0.00089     0.39982
      H   24    0.09511      0.00000     0.40379    0.00110     0.40489
      H   25    0.08303      0.00000     0.41578    0.00118     0.41697
      H   26    0.10216      0.00000     0.39639    0.00145     0.39784
      H   27    0.08135      0.00000     0.41718    0.00148     0.41865
      H   28    0.09952      0.00000     0.39909    0.00139     0.40048
      H   29    0.09471      0.00000     0.40373    0.00157     0.40529
      H   30    0.09700      0.00000     0.40207    0.00093     0.40300
      H   31    0.09493      0.00000     0.40340    0.00167     0.40507
      H   32    0.09652      0.00000     0.40260    0.00087     0.40348
      H   33    0.10238      0.00000     0.39652    0.00111     0.39762
      H   34    0.08038      0.00000     0.41844    0.00118     0.41962
      H   35    0.08130      0.00000     0.41713    0.00157     0.41870
      H   36    0.09556      0.00000     0.40334    0.00111     0.40444
      H   37    0.09462      0.00000     0.40437    0.00101     0.40538
      H   38    0.10443      0.00000     0.39301    0.00256     0.39557
      H   39    0.09894      0.00000     0.39952    0.00154     0.40106
      H   40    0.10039      0.00000     0.39849    0.00112     0.39961
      H   41    0.09682      0.00000     0.40215    0.00103     0.40318
      H   42    0.18736      0.00000     0.30696    0.00568     0.31264
      H   43    0.18654      0.00000     0.30901    0.00445     0.31346
 =======================================================================
   * Total *   -0.00000     17.99271    49.78234    0.22496    68.00000

 Normal termination of Gaussian 16 at Fri Dec 11 22:29:03 2020.
