 Gaussian 16, Revision A.03,

 -----------------------------------------------------------
 # opt freq B3LYP/6-31G(d) empiricaldispersion=gd3bj scf=xqc
 -----------------------------------------------------------

 ------------------------------
 CID_147509727_JID_993_neutraal
 ------------------------------
 Symbolic Z-matrix:
 Charge =  0 Multiplicity = 1

 SCF Done:  E(RB3LYP) =  -458.636896461     A.U. after   14 cycles
 SCF Done:  E(RB3LYP) =  -458.642800112     A.U. after   12 cycles
 SCF Done:  E(RB3LYP) =  -458.643689427     A.U. after   11 cycles
 SCF Done:  E(RB3LYP) =  -458.644007281     A.U. after   11 cycles
 SCF Done:  E(RB3LYP) =  -458.644298223     A.U. after   12 cycles
 SCF Done:  E(RB3LYP) =  -458.644716202     A.U. after   12 cycles
 SCF Done:  E(RB3LYP) =  -458.644834803     A.U. after   11 cycles
 SCF Done:  E(RB3LYP) =  -458.644931410     A.U. after   11 cycles
 SCF Done:  E(RB3LYP) =  -458.644954804     A.U. after   10 cycles
 SCF Done:  E(RB3LYP) =  -458.644958423     A.U. after   10 cycles
 SCF Done:  E(RB3LYP) =  -458.644990215     A.U. after    8 cycles
 SCF Done:  E(RB3LYP) =  -458.644994945     A.U. after    9 cycles
 SCF Done:  E(RB3LYP) =  -458.644998908     A.U. after    8 cycles
 SCF Done:  E(RB3LYP) =  -458.645002275     A.U. after    9 cycles
 SCF Done:  E(RB3LYP) =  -458.645003441     A.U. after    8 cycles
 SCF Done:  E(RB3LYP) =  -458.645003678     A.U. after    8 cycles
 Optimization completed.
    -- Stationary point found.
 Normal termination of Gaussian 16 at Tue Dec  8 13:45:19 2020.

 --------------------------------------------------------------------
 #N Geom=AllCheck Guess=TCheck SCRF=Check GenChk RB3LYP/6-31G(d) Freq
 --------------------------------------------------------------------

 Structure from the checkpoint file:  "JID_993.chk"
 ------------------------------
 CID_147509727_JID_993_neutraal
 ------------------------------
 Charge =  0 Multiplicity = 1

 SCF Done:  E(RB3LYP) =  -458.645003678     A.U. after    1 cycles

  Exact polarizability: 108.970  -2.388  82.556  -5.615  -0.395  65.858
 Approx polarizability: 149.079  -4.248 117.096 -13.310   1.513  99.130

                      1                      2                      3
                      A                      A                      A
 Frequencies --     40.2547                53.0572               107.2112
 Red. masses --      4.0174                 3.9381                 2.7903
 Frc consts  --      0.0038                 0.0065                 0.0189
 IR Inten    --      0.8201                 4.4244                 0.8423

                      4                      5                      6
                      A                      A                      A
 Frequencies --    203.4027               250.1659               297.8310
 Red. masses --      2.5541                 2.7827                 1.8976
 Frc consts  --      0.0623                 0.1026                 0.0992
 IR Inten    --      2.9603                 1.3756                 2.6172

                      7                      8                      9
                      A                      A                      A
 Frequencies --    355.2973               389.8317               483.4245
 Red. masses --      5.0409                 3.3993                 2.1774
 Frc consts  --      0.3749                 0.3044                 0.2998
 IR Inten    --      1.3759                11.9482                65.8559

                     10                     11                     12
                      A                      A                      A
 Frequencies --    536.3351               554.7279               618.8584
 Red. masses --      2.7048                 3.8503                 2.0197
 Frc consts  --      0.4584                 0.6981                 0.4557
 IR Inten    --      2.0993                10.3047                99.8469

                     13                     14                     15
                      A                      A                      A
 Frequencies --    700.8019               715.4989               831.1127
 Red. masses --      1.4226                 2.4885                 1.9058
 Frc consts  --      0.4117                 0.7506                 0.7756
 IR Inten    --     22.4476                49.1363                23.1966

                     16                     17                     18
                      A                      A                      A
 Frequencies --    844.4865               854.8475               890.0844
 Red. masses --      3.2729                 1.2571                 1.6186
 Frc consts  --      1.3752                 0.5413                 0.7555
 IR Inten    --      9.8714                 1.1895                 0.6666

                     19                     20                     21
                      A                      A                      A
 Frequencies --    904.6665               936.7974               998.0882
 Red. masses --      1.9119                 2.5502                 2.3883
 Frc consts  --      0.9219                 1.3186                 1.4018
 IR Inten    --      4.3618                 9.1311                10.9115

                     22                     23                     24
                      A                      A                      A
 Frequencies --   1019.0494              1031.9209              1040.5742
 Red. masses --      3.3197                 3.4568                 8.2745
 Frc consts  --      2.0312                 2.1688                 5.2788
 IR Inten    --     16.0216                17.9176                79.9145

                     25                     26                     27
                      A                      A                      A
 Frequencies --   1067.5567              1110.1199              1119.1316
 Red. masses --      2.6891                 1.9370                 2.2447
 Frc consts  --      1.8057                 1.4064                 1.6564
 IR Inten    --     56.2545                 1.8570                12.1021

                     28                     29                     30
                      A                      A                      A
 Frequencies --   1145.2917              1158.2768              1164.6551
 Red. masses --      2.3051                 1.0974                 1.2607
 Frc consts  --      1.7815                 0.8674                 1.0075
 IR Inten    --     12.8393                 0.6543                 3.8876

                     31                     32                     33
                      A                      A                      A
 Frequencies --   1204.7413              1237.3543              1271.2655
 Red. masses --      1.6545                 1.5268                 1.2325
 Frc consts  --      1.4148                 1.3773                 1.1736
 IR Inten    --     51.3856                44.5013                15.4999

                     34                     35                     36
                      A                      A                      A
 Frequencies --   1278.6016              1300.7556              1309.2062
 Red. masses --      1.3049                 1.3646                 1.3333
 Frc consts  --      1.2569                 1.3603                 1.3465
 IR Inten    --      2.9025                 0.5220                 3.0828

                     37                     38                     39
                      A                      A                      A
 Frequencies --   1324.8993              1371.9134              1378.4822
 Red. masses --      2.0820                 1.3429                 1.4520
 Frc consts  --      2.1533                 1.4892                 1.6257
 IR Inten    --     45.5587                25.3238                 9.3345

                     40                     41                     42
                      A                      A                      A
 Frequencies --   1402.1191              1451.9456              1462.5647
 Red. masses --      1.3364                 1.3708                 1.6973
 Frc consts  --      1.5480                 1.7026                 2.1392
 IR Inten    --     37.0807                 3.8798                84.9165

                     43                     44                     45
                      A                      A                      A
 Frequencies --   1497.3352              1530.3709              1533.9110
 Red. masses --      1.4777                 1.0965                 1.1128
 Frc consts  --      1.9520                 1.5130                 1.5427
 IR Inten    --     18.1054                 3.6920                 9.2682

                     46                     47                     48
                      A                      A                      A
 Frequencies --   1540.5962              1568.7115              1753.4309
 Red. masses --      1.0901                 1.1214                 5.9599
 Frc consts  --      1.5244                 1.6260                10.7962
 IR Inten    --      3.2296                10.0954                30.2526

                     49                     50                     51
                      A                      A                      A
 Frequencies --   2991.2725              3008.1679              3034.2759
 Red. masses --      1.0722                 1.0687                 1.0540
 Frc consts  --      5.6526                 5.6980                 5.7175
 IR Inten    --     38.4863                54.4126               110.4426

                     52                     53                     54
                      A                      A                      A
 Frequencies --   3046.8477              3077.2858              3083.4240
 Red. masses --      1.0594                 1.1049                 1.1084
 Frc consts  --      5.7943                 6.1645                 6.2087
 IR Inten    --     10.7606                40.8982                15.0339

                     55                     56                     57
                      A                      A                      A
 Frequencies --   3089.1372              3103.0781              3107.8854
 Red. masses --      1.0942                 1.0931                 1.0918
 Frc consts  --      6.1521                 6.2017                 6.2131
 IR Inten    --     42.6463                71.7592                48.6158

                     58                     59                     60
                      A                      A                      A
 Frequencies --   3217.2744              3237.4066              3547.7109
 Red. masses --      1.0865                 1.0982                 1.0756
 Frc consts  --      6.6259                 6.7817                 7.9760
 IR Inten    --      0.5962                19.4825                 1.5973

 - Thermochemistry -
 -------------------
 Temperature   298.150 Kelvin.  Pressure   1.00000 Atm.
 Atom     1 has atomic number  6 and mass  12.00000

 Molecular mass:   140.09496 amu.
 Principal axes and moments of inertia in atomic units:
                           1         2         3
     Eigenvalues --   530.195712277.266382492.02354
           X            0.99996  -0.00916  -0.00242
           Y            0.00912   0.99984  -0.01532
           Z            0.00256   0.01530   0.99988
 This molecule is an asymmetric top.
 Rotational symmetry number  1.
 Warning -- assumption of classical behavior for rotation
           may cause significant error
 Rotational temperatures (Kelvin)      0.16336     0.03803     0.03476
 Rotational constants (GHZ):           3.40392     0.79250     0.72421
 Zero-point vibrational energy     504736.4 (Joules/Mol)
                                  120.63488 (Kcal/Mol)
 Warning -- explicit consideration of  12 degrees of freedom as
           vibrations may cause significant error
 Vibrational temperatures:     57.92    76.34   154.25   292.65   359.93
          (Kelvin)            428.51   511.19   560.88   695.54   771.67
                              798.13   890.40  1008.30  1029.44  1195.79
                             1215.03  1229.93  1280.63  1301.61  1347.84
                             1436.03  1466.18  1484.70  1497.15  1535.98
                             1597.21  1610.18  1647.82  1666.50  1675.68
                             1733.35  1780.28  1829.07  1839.62  1871.50
                             1883.66  1906.23  1973.88  1983.33  2017.34
                             2089.03  2104.30  2154.33  2201.86  2206.96
                             2216.57  2257.03  2522.80  4303.77  4328.08
                             4365.65  4383.73  4427.53  4436.36  4444.58
                             4464.64  4471.55  4628.94  4657.91  5104.36

 Zero-point correction=                           0.192244 (Hartree/Particle)
 Thermal correction to Energy=                    0.201385
 Thermal correction to Enthalpy=                  0.202329
 Thermal correction to Gibbs Free Energy=         0.156876
 Sum of electronic and zero-point Energies=           -458.452760
 Sum of electronic and thermal Energies=              -458.443619
 Sum of electronic and thermal Enthalpies=            -458.442675
 Sum of electronic and thermal Free Energies=         -458.488128

                     E (Thermal)             CV                S
                      KCal/Mol        Cal/Mol-Kelvin    Cal/Mol-Kelvin
 Total                  126.371             34.576             95.664
 Electronic               0.000              0.000              0.000
 Translational            0.889              2.981             40.723
 Rotational               0.889              2.981             29.488
 Vibrational            124.593             28.615             25.453
 Vibration     1          0.594              1.981              5.247
 Vibration     2          0.596              1.976              4.700
 Vibration     3          0.606              1.943              3.319
 Vibration     4          0.639              1.835              2.102
 Vibration     5          0.663              1.762              1.729
 Vibration     6          0.691              1.678              1.429
 Vibration     7          0.731              1.564              1.143
 Vibration     8          0.758              1.492              1.001
 Vibration     9          0.840              1.287              0.701
 Vibration    10          0.891              1.170              0.573
 Vibration    11          0.910              1.129              0.534
 Vibration    12          0.979              0.992              0.418

 Optimization completed.
    -- Stationary point found.
 Normal termination of Gaussian 16 at Tue Dec  8 13:49:58 2020.

 ----------------------------------------------------------------------
 # B3LYP/6-311++G(d,p) empiricaldispersion=gd3bj scf=xqc pop=npa geom=c
 heck
 ----------------------------------------------------------------------

 --------------------------------------
 CID_147509727_JID_993_Energie_neutraal
 --------------------------------------
 Structure from the checkpoint file:  "JID_993.chk"
 Charge =  0 Multiplicity = 1

 SCF Done:  E(RB3LYP) =  -458.779980618     A.U. after   14 cycles
 Normal termination of Gaussian 16 at Tue Dec  8 13:52:29 2020.

 ----------------------------------------------------------------------
 # B3LYP/6-311++G(d,p) empiricaldispersion=gd3bj scf=xqc pop=npa geom=c
 heck
 ----------------------------------------------------------------------

 ------------------------------------
 CID_147509727_JID_993_Energie_kation
 ------------------------------------
 Structure from the checkpoint file:  "JID_993.chk"
 Charge =  1 Multiplicity = 2

 SCF Done:  E(UB3LYP) =  -458.531100288     A.U. after   20 cycles
 Normal termination of Gaussian 16 at Tue Dec  8 13:55:54 2020.
 Gaussian 16:  ES64L-G16RevA.03 25-Dec-2016

 ----------------------------------------------------------------------
 # B3LYP/6-311++G(d,p) empiricaldispersion=gd3bj scf=xqc pop=npa geom=c
 heck
 ----------------------------------------------------------------------

 -----------------------------------
 CID_147509727_JID_993_Energie_anion
 -----------------------------------
 Structure from the checkpoint file:  "JID_993.chk"
 Charge = -1 Multiplicity = 2

                         Standard orientation:
 ---------------------------------------------------------------------
 Center     Atomic      Atomic             Coordinates (Angstroms)
 Number     Number       Type             X           Y           Z
 ---------------------------------------------------------------------
      1          6           0        2.039207   -1.289010    0.094248
      2          6           0        0.568720   -1.019626   -0.239962
      3          7           0        0.124397    0.196518    0.436056
      4          6           0        1.047169    1.262644    0.335211
      5          6           0        2.329490    1.087165   -0.021922
      6          7           0        2.847573   -0.173792   -0.391622
      7          6           0       -1.271082    0.541873    0.354783
      8          6           0       -2.072067    0.494586   -0.980527
      9          8           0       -3.105385   -0.304093   -0.361571
     10          6           0       -2.326451   -0.474558    0.842101
     11          1           0        2.128699   -1.433061    1.183079
     12          1           0        2.362151   -2.210505   -0.402032
     13          1           0        0.467511   -0.939468   -1.333342
     14          1           0       -0.039755   -1.865356    0.093047
     15          1           0        0.662422    2.246541    0.576366
     16          1           0        3.013864    1.925214   -0.078198
     17          1           0        3.827833   -0.277448   -0.152741
     18          1           0       -1.396021    1.507182    0.852530
     19          1           0       -2.458853    1.447754   -1.360522
     20          1           0       -1.571749   -0.041045   -1.797664
     21          1           0       -1.958427   -1.502788    0.954013
     22          1           0       -2.888309   -0.201806    1.743396
 ---------------------------------------------------------------------

 SCF Done:  E(UB3LYP) =  -458.764869013     A.U. after   32 cycles

 The electronic state is 2-A.
 Alpha  occ. eigenvalues --  -19.02306 -14.21637 -14.20056 -10.11808 -10.11641
 Alpha  occ. eigenvalues --  -10.11027 -10.09448 -10.08949 -10.07335 -10.07240
 Alpha  occ. eigenvalues --   -0.94780  -0.84787  -0.79613  -0.65683  -0.64723
 Alpha  occ. eigenvalues --   -0.59720  -0.56626  -0.53739  -0.46718  -0.43278
 Alpha  occ. eigenvalues --   -0.42395  -0.40697  -0.39298  -0.36138  -0.35907
 Alpha  occ. eigenvalues --   -0.34033  -0.31250  -0.30866  -0.30116  -0.29001
 Alpha  occ. eigenvalues --   -0.26733  -0.25516  -0.24573  -0.22022  -0.20849
 Alpha  occ. eigenvalues --   -0.16069  -0.15442  -0.06252   0.04666
 Alpha virt. eigenvalues --    0.06809   0.07514   0.08295   0.09492   0.09546
 Alpha virt. eigenvalues --    0.10202   0.11048   0.11984   0.12247   0.12825
 Alpha virt. eigenvalues --    0.14226   0.15088   0.15691   0.16067   0.17033

  Beta  occ. eigenvalues --  -19.02304 -14.21638 -14.20027 -10.11788 -10.11628
  Beta  occ. eigenvalues --  -10.11013 -10.09427 -10.08915 -10.07320 -10.07224
  Beta  occ. eigenvalues --   -0.94771  -0.84761  -0.79566  -0.65634  -0.64689
  Beta  occ. eigenvalues --   -0.59681  -0.56580  -0.53670  -0.46667  -0.43204
  Beta  occ. eigenvalues --   -0.42337  -0.40654  -0.39248  -0.36107  -0.35875
  Beta  occ. eigenvalues --   -0.34001  -0.31222  -0.30817  -0.30073  -0.28968
  Beta  occ. eigenvalues --   -0.26696  -0.25469  -0.24518  -0.22001  -0.20815
  Beta  occ. eigenvalues --   -0.16054  -0.15417  -0.06230
  Beta virt. eigenvalues --    0.07099   0.08106   0.08397   0.08692   0.10168
  Beta virt. eigenvalues --    0.10371   0.10819   0.11292   0.12429   0.12909
  Beta virt. eigenvalues --    0.13446   0.14207   0.15270   0.16050   0.16195

 Mulliken charges and spin densities:
               1          2
     1  C    2.864684  -3.347040
     2  C   -0.986360   0.667005
     3  N    0.267152   0.021795
     4  C    0.722196  -0.749265
     5  C   -0.478507   0.022298
     6  N   -0.356908   0.296604
     7  C   -1.532614   1.207961
     8  C    0.748644  -0.946621
     9  O   -0.208880   0.010241
    10  C    1.142523  -1.284926
    11  H   -0.416850   0.585385
    12  H   -0.425439   0.601100
    13  H   -0.112471   0.264295
    14  H    0.195743  -0.084324
    15  H   -0.219423   0.344462
    16  H   -0.637506   0.784569
    17  H   -0.341844   0.601926
    18  H   -0.637562   0.825382
    19  H   -0.228034   0.375212
    20  H    0.073510   0.072663
    21  H   -0.201389   0.347754
    22  H   -0.230664   0.383526
 Sum of Mulliken charges =  -1.00000   1.00000

 Dipole moment (field-independent basis, Debye):
    X=             -4.1259    Y=             -0.5666    Z=             -1.2325  Tot=              4.3432
 Quadrupole moment (field-independent basis, Debye-Ang):
   XX=           -131.8919   YY=           -100.5149   ZZ=            -89.8020
   XY=              3.8097   XZ=              0.8003   YZ=             -0.6889

 Summary of Natural Population Analysis:

                                       Natural Population
                Natural  -----------------------------------------------
    Atom  No    Charge         Core      Valence    Rydberg      Total
 -----------------------------------------------------------------------
      C    1   -0.08813      0.99962     2.07644    0.01207     3.08813
      C    2   -0.08788      0.99961     2.07699    0.01128     3.08788
      N    3   -0.26698      0.99967     2.75391    0.01340     3.76698
      C    4   -0.04042      0.99951     2.02769    0.01323     3.04042
      C    5   -0.03050      0.99953     2.01721    0.01377     3.03050
      N    6   -0.33035      0.99972     2.81643    0.01419     3.83035
      C    7   -0.01965      0.99958     2.00641    0.01366     3.01965
      C    8   -0.01412      0.99962     2.00230    0.01220     3.01412
      O    9   -0.30800      0.99991     3.29960    0.00849     4.30800
      C   10   -0.00655      0.99963     1.99376    0.01316     3.00655
      H   11    0.08753      0.00000     0.41025    0.00222     0.41247
      H   12    0.09778      0.00000     0.40019    0.00203     0.40222
      H   13    0.08718      0.00000     0.41117    0.00164     0.41282
      H   14    0.09848      0.00000     0.39980    0.00171     0.40152
      H   15    0.09960      0.00000     0.39870    0.00170     0.40040
      H   16    0.09945      0.00000     0.39897    0.00157     0.40055
      H   17    0.18704      0.00000     0.30546    0.00750     0.31296
      H   18    0.10194      0.00000     0.39598    0.00209     0.39806
      H   19    0.08417      0.00000     0.41425    0.00157     0.41583
      H   20    0.08212      0.00000     0.41634    0.00154     0.41788
      H   21    0.08272      0.00000     0.41548    0.00180     0.41728
      H   22    0.08458      0.00000     0.41368    0.00174     0.41542
 =======================================================================
   * Total *   -0.00000      9.99640    27.85103    0.15257    38.00000

 Normal termination of Gaussian 16 at Tue Dec  8 14:01:49 2020.
