 Gaussian 16, Revision A.03,

 -----------------------------------------------------------
 # opt freq B3LYP/6-31G(d) empiricaldispersion=gd3bj scf=xqc
 -----------------------------------------------------------

 -------------------------------
 CID_149190830_JID_3401_neutraal
 -------------------------------
 Symbolic Z-matrix:
 Charge =  0 Multiplicity = 1

 SCF Done:  E(RB3LYP) =  -538.309588011     A.U. after   14 cycles
 SCF Done:  E(RB3LYP) =  -538.314572182     A.U. after   12 cycles
 SCF Done:  E(RB3LYP) =  -538.315132244     A.U. after   11 cycles
 SCF Done:  E(RB3LYP) =  -538.315206200     A.U. after   10 cycles
 SCF Done:  E(RB3LYP) =  -538.315224785     A.U. after   10 cycles
 SCF Done:  E(RB3LYP) =  -538.315233542     A.U. after   10 cycles
 SCF Done:  E(RB3LYP) =  -538.315237118     A.U. after    9 cycles
 SCF Done:  E(RB3LYP) =  -538.315241791     A.U. after   10 cycles
 SCF Done:  E(RB3LYP) =  -538.315249685     A.U. after   10 cycles
 SCF Done:  E(RB3LYP) =  -538.315252286     A.U. after   10 cycles
 SCF Done:  E(RB3LYP) =  -538.315252535     A.U. after    8 cycles
 Optimization completed.
    -- Stationary point found.
 Normal termination of Gaussian 16 at Wed Dec  9 23:06:16 2020.

 --------------------------------------------------------------------
 #N Geom=AllCheck Guess=TCheck SCRF=Check GenChk RB3LYP/6-31G(d) Freq
 --------------------------------------------------------------------

 Structure from the checkpoint file:  "JID_3401.chk"
 -------------------------------
 CID_149190830_JID_3401_neutraal
 -------------------------------
 Charge =  0 Multiplicity = 1

 SCF Done:  E(RB3LYP) =  -538.315252535     A.U. after    1 cycles

  Exact polarizability: 148.229   3.426 125.559   0.293   3.871  96.666
 Approx polarizability: 191.914   7.076 203.143  -2.201   2.111 155.317

                      1                      2                      3
                      A                      A                      A
 Frequencies --     26.9958                48.3414               102.2615
 Red. masses --      3.0323                 3.7106                 4.4728
 Frc consts  --      0.0013                 0.0051                 0.0276
 IR Inten    --      0.4236                 0.5776                 2.9013

                      4                      5                      6
                      A                      A                      A
 Frequencies --    137.3117               200.5874               214.3939
 Red. masses --      3.4064                 2.4257                 2.3486
 Frc consts  --      0.0378                 0.0575                 0.0636
 IR Inten    --      1.5853                 0.4281                 1.1949

                      7                      8                      9
                      A                      A                      A
 Frequencies --    233.0328               250.0235               284.3346
 Red. masses --      1.9805                 1.5049                 2.3599
 Frc consts  --      0.0634                 0.0554                 0.1124
 IR Inten    --      0.1886                 0.5136                 1.5954

                     10                     11                     12
                      A                      A                      A
 Frequencies --    334.6402               347.0996               403.3358
 Red. masses --      3.0602                 3.1967                 3.4837
 Frc consts  --      0.2019                 0.2269                 0.3339
 IR Inten    --      1.4848                 1.2336                 5.2985

                     13                     14                     15
                      A                      A                      A
 Frequencies --    431.2816               483.0007               518.4112
 Red. masses --      2.4546                 2.3919                 1.7126
 Frc consts  --      0.2690                 0.3288                 0.2712
 IR Inten    --      9.2397                 9.2529                55.5568

                     16                     17                     18
                      A                      A                      A
 Frequencies --    553.8448               610.3800               642.1883
 Red. masses --      2.2546                 2.3382                 2.8777
 Frc consts  --      0.4075                 0.5132                 0.6992
 IR Inten    --    104.9125                21.7917                 8.1982

                     19                     20                     21
                      A                      A                      A
 Frequencies --    717.4427               757.4835               790.1127
 Red. masses --      3.4479                 2.5045                 3.1785
 Frc consts  --      1.0456                 0.8467                 1.1691
 IR Inten    --     18.0585                 2.3991                11.9161

                     22                     23                     24
                      A                      A                      A
 Frequencies --    797.7474               840.9957               880.1331
 Red. masses --      1.8613                 1.6071                 2.8803
 Frc consts  --      0.6979                 0.6697                 1.3146
 IR Inten    --     11.0487                12.3746                 2.5553

                     25                     26                     27
                      A                      A                      A
 Frequencies --    890.5266               895.5769               920.9238
 Red. masses --      2.5175                 2.7250                 2.4568
 Frc consts  --      1.1763                 1.2877                 1.2276
 IR Inten    --      0.6491                10.5538                12.0179

                     28                     29                     30
                      A                      A                      A
 Frequencies --    940.1998               959.0125               973.4439
 Red. masses --      1.6517                 2.1494                 2.4960
 Frc consts  --      0.8602                 1.1647                 1.3935
 IR Inten    --      3.5200                 5.7601                11.2338

                     31                     32                     33
                      A                      A                      A
 Frequencies --    985.1659              1013.0533              1016.8806
 Red. masses --      1.9321                 1.6298                 1.4572
 Frc consts  --      1.1048                 0.9855                 0.8878
 IR Inten    --      6.6940                 5.4245                 6.8772

                     34                     35                     36
                      A                      A                      A
 Frequencies --   1035.0038              1056.0169              1066.7688
 Red. masses --      2.2857                 2.6069                 2.4578
 Frc consts  --      1.4426                 1.7128                 1.6479
 IR Inten    --      0.5942                 3.1394                 2.1009

                     37                     38                     39
                      A                      A                      A
 Frequencies --   1113.5837              1118.7782              1126.9455
 Red. masses --      2.0786                 2.5860                 2.1690
 Frc consts  --      1.5187                 1.9070                 1.6230
 IR Inten    --      1.3831                 0.6295                61.9561

                     40                     41                     42
                      A                      A                      A
 Frequencies --   1165.4224              1182.5294              1231.6130
 Red. masses --      1.4013                 1.9930                 1.4768
 Frc consts  --      1.1213                 1.6420                 1.3198
 IR Inten    --      5.1322                 1.7279                 1.8737

                     43                     44                     45
                      A                      A                      A
 Frequencies --   1238.9153              1279.6081              1283.4880
 Red. masses --      1.2134                 1.2248                 1.1894
 Frc consts  --      1.0973                 1.1816                 1.1544
 IR Inten    --      3.2695                19.1252                 3.2947

                     46                     47                     48
                      A                      A                      A
 Frequencies --   1317.8785              1332.0588              1335.8017
 Red. masses --      1.1380                 1.2785                 1.2515
 Frc consts  --      1.1646                 1.3366                 1.3157
 IR Inten    --      0.6790                 5.7455                 5.7490

                     49                     50                     51
                      A                      A                      A
 Frequencies --   1346.0959              1360.6752              1374.5515
 Red. masses --      1.3087                 1.4260                 1.4688
 Frc consts  --      1.3972                 1.5555                 1.6351
 IR Inten    --      4.2805                 1.1358                 3.7814

                     52                     53                     54
                      A                      A                      A
 Frequencies --   1392.7580              1414.9884              1423.5042
 Red. masses --      1.4011                 1.5418                 1.3700
 Frc consts  --      1.6013                 1.8187                 1.6356
 IR Inten    --      3.1390                 6.3670                 8.8227

                     55                     56                     57
                      A                      A                      A
 Frequencies --   1435.7454              1440.1925              1490.0954
 Red. masses --      1.3373                 1.5409                 1.4601
 Frc consts  --      1.6242                 1.8831                 1.9101
 IR Inten    --     24.0897                73.8483                 0.8967

                     58                     59                     60
                      A                      A                      A
 Frequencies --   1507.8105              1519.2383              1522.8771
 Red. masses --      1.0929                 1.1007                 1.0991
 Frc consts  --      1.4640                 1.4968                 1.5018
 IR Inten    --      2.7136                 1.6340                 0.2797

                     61                     62                     63
                      A                      A                      A
 Frequencies --   1528.6258              1532.4547              1698.4466
 Red. masses --      1.0480                 1.0678                 8.2765
 Frc consts  --      1.4429                 1.4774                14.0670
 IR Inten    --      6.0065                 3.2758                13.5973

                     64                     65                     66
                      A                      A                      A
 Frequencies --   1703.6812              1733.8210              2978.4118
 Red. masses --      6.3568                 6.1055                 1.0815
 Frc consts  --     10.8709                10.8139                 5.6528
 IR Inten    --    106.7179                 2.4338                19.0388

                     67                     68                     69
                      A                      A                      A
 Frequencies --   3011.7774              3040.5730              3047.5490
 Red. masses --      1.0701                 1.0569                 1.0385
 Frc consts  --      5.7191                 5.7570                 5.6830
 IR Inten    --     29.3642                14.9063                50.2966

                     70                     71                     72
                      A                      A                      A
 Frequencies --   3054.9466              3076.8649              3080.4610
 Red. masses --      1.0651                 1.0921                 1.0847
 Frc consts  --      5.8565                 6.0917                 6.0642
 IR Inten    --     34.8813                40.4600                22.8075

                     73                     74                     75
                      A                      A                      A
 Frequencies --   3082.3142              3099.1364              3115.8620
 Red. masses --      1.1027                 1.1042                 1.1024
 Frc consts  --      6.1724                 6.2483                 6.3060
 IR Inten    --     37.1978                32.0098                25.8884

                     76                     77                     78
                      A                      A                      A
 Frequencies --   3117.8152              3132.5942              3152.3651
 Red. masses --      1.1029                 1.0855                 1.0886
 Frc consts  --      6.3166                 6.2761                 6.3734
 IR Inten    --     37.2923                21.3231                27.0717

                     79                     80                     81
                      A                      A                      A
 Frequencies --   3170.4743              3193.7026              3577.4224
 Red. masses --      1.0896                 1.0945                 1.0772
 Frc consts  --      6.4529                 6.5772                 8.1226
 IR Inten    --     15.8609                27.4932                 9.4450

 - Thermochemistry -
 -------------------
 Temperature   298.150 Kelvin.  Pressure   1.00000 Atm.
 Atom     1 has atomic number  6 and mass  12.00000

 Molecular mass:   176.13135 amu.
 Principal axes and moments of inertia in atomic units:
                           1         2         3
     Eigenvalues --  1108.381973845.125084408.42829
           X            0.99993  -0.01168   0.00315
           Y            0.01165   0.99987   0.01104
           Z           -0.00328  -0.01100   0.99993
 This molecule is an asymmetric top.
 Rotational symmetry number  1.
 Warning -- assumption of classical behavior for rotation
           may cause significant error
 Rotational temperatures (Kelvin)      0.07814     0.02253     0.01965
 Rotational constants (GHZ):           1.62827     0.46936     0.40938
 Zero-point vibrational energy     672554.9 (Joules/Mol)
                                  160.74449 (Kcal/Mol)
 Warning -- explicit consideration of  17 degrees of freedom as
           vibrations may cause significant error
 Vibrational temperatures:     38.84    69.55   147.13   197.56   288.60
          (Kelvin)            308.46   335.28   359.73   409.09   481.47
                              499.40   580.31   620.52   694.93   745.88
                              796.86   878.20   923.97  1032.24  1089.85
                             1136.80  1147.78  1210.01  1266.32  1281.27
                             1288.54  1325.00  1352.74  1379.81  1400.57
                             1417.43  1457.56  1463.06  1489.14  1519.37
                             1534.84  1602.20  1609.67  1621.42  1676.78
                             1701.40  1772.02  1782.52  1841.07  1846.65
                             1896.13  1916.54  1921.92  1936.73  1957.71
                             1977.67  2003.87  2035.85  2048.10  2065.72
                             2072.12  2143.91  2169.40  2185.85  2191.08
                             2199.35  2204.86  2443.69  2451.22  2494.58
                             4285.27  4333.28  4374.71  4384.74  4395.39
                             4426.92  4432.10  4434.76  4458.97  4483.03
                             4485.84  4507.10  4535.55  4561.61  4595.03
                             5147.11

 Zero-point correction=                           0.256163 (Hartree/Particle)
 Thermal correction to Energy=                    0.268163
 Thermal correction to Enthalpy=                  0.269107
 Thermal correction to Gibbs Free Energy=         0.217207
 Sum of electronic and zero-point Energies=           -538.059090
 Sum of electronic and thermal Energies=              -538.047090
 Sum of electronic and thermal Enthalpies=            -538.046146
 Sum of electronic and thermal Free Energies=         -538.098045

                     E (Thermal)             CV                S
                      KCal/Mol        Cal/Mol-Kelvin    Cal/Mol-Kelvin
 Total                  168.275             46.854            109.232
 Electronic               0.000              0.000              0.000
 Translational            0.889              2.981             41.405
 Rotational               0.889              2.981             31.308
 Vibrational            166.497             40.893             36.519
 Vibration     1          0.593              1.984              6.039
 Vibration     2          0.595              1.978              4.884
 Vibration     3          0.604              1.947              3.411
 Vibration     4          0.614              1.916              2.841
 Vibration     5          0.638              1.839              2.128
 Vibration     6          0.644              1.819              2.006
 Vibration     7          0.654              1.790              1.855
 Vibration     8          0.663              1.763              1.730
 Vibration     9          0.683              1.703              1.507
 Vibration    10          0.716              1.606              1.238
 Vibration    11          0.725              1.581              1.179
 Vibration    12          0.769              1.463              0.950
 Vibration    13          0.792              1.402              0.854
 Vibration    14          0.839              1.288              0.702
 Vibration    15          0.873              1.209              0.614
 Vibration    16          0.909              1.131              0.536
 Vibration    17          0.969              1.010              0.432

                           ! Non-Optimized Parameters !
 Normal termination of Gaussian 16 at Wed Dec  9 23:13:28 2020.

 ----------------------------------------------------------------------
 # B3LYP/6-311++G(d,p) empiricaldispersion=gd3bj scf=xqc pop=npa geom=c
 heck
 ----------------------------------------------------------------------

 ---------------------------------------
 CID_149190830_JID_3401_Energie_neutraal
 ---------------------------------------
 Structure from the checkpoint file:  "JID_3401.chk"
 Charge =  0 Multiplicity = 1

 SCF Done:  E(RB3LYP) =  -538.462538022     A.U. after   15 cycles
 Normal termination of Gaussian 16 at Wed Dec  9 23:16:16 2020.

 ----------------------------------------------------------------------
 # B3LYP/6-311++G(d,p) empiricaldispersion=gd3bj scf=xqc pop=npa geom=c
 heck
 ----------------------------------------------------------------------

 -------------------------------------
 CID_149190830_JID_3401_Energie_kation
 -------------------------------------
 Structure from the checkpoint file:  "JID_3401.chk"
 Charge =  1 Multiplicity = 2

 SCF Done:  E(UB3LYP) =  -538.172584626     A.U. after   25 cycles
 Normal termination of Gaussian 16 at Wed Dec  9 23:22:20 2020.
 Gaussian 16:  ES64L-G16RevA.03 25-Dec-2016

 ----------------------------------------------------------------------
 # B3LYP/6-311++G(d,p) empiricaldispersion=gd3bj scf=xqc pop=npa geom=c
 heck
 ----------------------------------------------------------------------

 ------------------------------------
 CID_149190830_JID_3401_Energie_anion
 ------------------------------------
 Structure from the checkpoint file:  "JID_3401.chk"
 Charge = -1 Multiplicity = 2

                         Standard orientation:
 ---------------------------------------------------------------------
 Center     Atomic      Atomic             Coordinates (Angstroms)
 Number     Number       Type             X           Y           Z
 ---------------------------------------------------------------------
      1          6           0        3.561437   -1.633343    0.364027
      2          6           0        2.687837   -0.585529   -0.352925
      3          6           0        2.707988    0.735607    0.422750
      4          6           0        1.881068    1.867124   -0.211683
      5          6           0        0.406668    1.779511    0.067368
      6          6           0       -0.357389    0.674318   -0.010593
      7          6           0        0.088713   -0.657773   -0.445099
      8          6           0        1.321888   -1.168108   -0.611929
      9          6           0       -1.835865    0.790579    0.318337
     10          6           0       -2.380358   -0.297454    1.305782
     11          7           0       -3.201894   -1.231810    0.511897
     12          6           0       -3.300597   -0.704701   -0.649284
     13          7           0       -2.704493    0.532174   -0.853502
     14          1           0        4.584777   -1.264613    0.495332
     15          1           0        3.609088   -2.568288   -0.205235
     16          1           0        3.152183   -1.864239    1.354417
     17          1           0        3.151982   -0.403661   -1.336915
     18          1           0        2.351580    0.562132    1.445918
     19          1           0        3.753251    1.058511    0.505821
     20          1           0        2.248739    2.831814    0.156025
     21          1           0        2.055968    1.874726   -1.298906
     22          1           0       -0.080135    2.702916    0.379039
     23          1           0       -0.729078   -1.341194   -0.665464
     24          1           0        1.358198   -2.196282   -0.974577
     25          1           0       -2.031295    1.797408    0.698686
     26          1           0       -1.571806   -0.837103    1.810008
     27          1           0       -3.006957    0.159322    2.081139
     28          1           0       -3.861797   -1.158679   -1.463738
     29          1           0       -2.328322    0.743296   -1.770821
 ---------------------------------------------------------------------

 SCF Done:  E(UB3LYP) =  -538.454770481     A.U. after   33 cycles
 SCF Done:  E(UB3LYP) =  -538.454770481     a.u. after    1 cycles

 The electronic state is 2-A.
 Alpha  occ. eigenvalues --  -14.21914 -14.18011 -10.12580 -10.09593 -10.08404
 Alpha  occ. eigenvalues --  -10.05138 -10.04436 -10.04023 -10.03959 -10.03920
 Alpha  occ. eigenvalues --  -10.03150 -10.02997 -10.02968  -0.87310  -0.75132
 Alpha  occ. eigenvalues --   -0.70926  -0.67182  -0.63868  -0.62000  -0.57524
 Alpha  occ. eigenvalues --   -0.52547  -0.50038  -0.48898  -0.47358  -0.43292
 Alpha  occ. eigenvalues --   -0.43037  -0.37442  -0.37024  -0.34983  -0.32341
 Alpha  occ. eigenvalues --   -0.31785  -0.30707  -0.30091  -0.29529  -0.27986
 Alpha  occ. eigenvalues --   -0.27670  -0.26502  -0.25113  -0.24920  -0.23776
 Alpha  occ. eigenvalues --   -0.22037  -0.21757  -0.19579  -0.18692  -0.17687
 Alpha  occ. eigenvalues --   -0.15817  -0.11961  -0.09472   0.04914
 Alpha virt. eigenvalues --    0.07221   0.08245   0.08450   0.08977   0.09776
 Alpha virt. eigenvalues --    0.10295   0.10550   0.10836   0.11656   0.12158
 Alpha virt. eigenvalues --    0.12623   0.12848   0.13255   0.14128   0.14831

  Beta  occ. eigenvalues --  -14.21893 -14.17992 -10.12561 -10.09593 -10.08402
  Beta  occ. eigenvalues --  -10.05151 -10.04443 -10.03978 -10.03894 -10.03874
  Beta  occ. eigenvalues --  -10.03100 -10.02769 -10.02753  -0.87275  -0.75077
  Beta  occ. eigenvalues --   -0.70707  -0.67036  -0.63631  -0.61869  -0.57378
  Beta  occ. eigenvalues --   -0.52397  -0.49739  -0.48840  -0.47292  -0.43221
  Beta  occ. eigenvalues --   -0.42867  -0.37346  -0.36825  -0.34836  -0.32240
  Beta  occ. eigenvalues --   -0.31680  -0.30655  -0.29982  -0.29455  -0.27900
  Beta  occ. eigenvalues --   -0.27614  -0.26434  -0.24986  -0.24796  -0.23598
  Beta  occ. eigenvalues --   -0.21921  -0.21580  -0.19529  -0.18525  -0.17333
  Beta  occ. eigenvalues --   -0.15463  -0.11886  -0.08394
  Beta virt. eigenvalues --    0.07248   0.08091   0.08405   0.09157   0.09720
  Beta virt. eigenvalues --    0.10152   0.10625   0.10819   0.10992   0.11846
  Beta virt. eigenvalues --    0.12300   0.12793   0.12985   0.13449   0.14108

 Mulliken charges and spin densities:
               1          2
     1  C    0.676071  -1.394646
     2  C   -0.652602   0.814339
     3  C    0.353164  -0.470540
     4  C   -0.040564  -0.458965
     5  C   -0.495829   0.538231
     6  C    0.381722  -0.370264
     7  C   -0.473711   0.169943
     8  C   -0.168551  -0.074492
     9  C    0.523200  -0.139152
    10  C   -0.564146  -0.251183
    11  N   -0.141833   0.016516
    12  C    0.049679  -0.109206
    13  N   -0.070303  -0.071043
    14  H   -0.431691   0.573198
    15  H   -0.099680   0.220441
    16  H    0.063445   0.068394
    17  H   -0.144113   0.301128
    18  H    0.038318   0.064560
    19  H   -0.275206   0.425652
    20  H   -0.202322   0.340634
    21  H   -0.018567   0.160686
    22  H    0.003069   0.092827
    23  H    0.090480   0.041414
    24  H    0.124623   0.021035
    25  H    0.118350   0.131703
    26  H    0.183605   0.002199
    27  H    0.099626   0.039261
    28  H   -0.091863   0.230199
    29  H    0.165630   0.087131
 Sum of Mulliken charges =  -1.00000   1.00000

 Dipole moment (field-independent basis, Debye):
    X=             -5.2376    Y=              0.7665    Z=             -0.4546  Tot=              5.3128
 Quadrupole moment (field-independent basis, Debye-Ang):
   XX=           -154.9845   YY=           -108.8093   ZZ=            -98.1918
   XY=             -5.3288   XZ=              3.1282   YZ=              2.2667

 Summary of Natural Population Analysis:

                                       Natural Population
                Natural  -----------------------------------------------
    Atom  No    Charge         Core      Valence    Rydberg      Total
 -----------------------------------------------------------------------
      C    1   -0.27703      0.99965     2.27082    0.00656     3.27703
      C    2   -0.13168      0.99958     2.12117    0.01093     3.13168
      C    3   -0.18194      0.99961     2.17285    0.00948     3.18194
      C    4   -0.21052      0.99962     2.20123    0.00967     3.21052
      C    5   -0.03339      0.99948     2.02503    0.00888     3.03339
      C    6   -0.03995      0.99945     2.03060    0.00990     3.03995
      C    7   -0.12222      0.99951     2.11322    0.00949     3.12222
      C    8   -0.03497      0.99954     2.02596    0.00947     3.03497
      C    9   -0.01835      0.99957     2.00626    0.01252     3.01835
      C   10   -0.10456      0.99961     2.09415    0.01080     3.10456
      N   11   -0.26756      0.99972     2.75538    0.01246     3.76756
      C   12    0.13857      0.99965     1.84452    0.01726     2.86143
      N   13   -0.33017      0.99971     2.81941    0.01105     3.83017
      H   14    0.09917      0.00000     0.39917    0.00166     0.40083
      H   15    0.09451      0.00000     0.40457    0.00092     0.40549
      H   16    0.09554      0.00000     0.40347    0.00099     0.40446
      H   17    0.10127      0.00000     0.39633    0.00240     0.39873
      H   18    0.09533      0.00000     0.40327    0.00140     0.40467
      H   19    0.09832      0.00000     0.39976    0.00192     0.40168
      H   20    0.09717      0.00000     0.40190    0.00093     0.40283
      H   21    0.10458      0.00000     0.39368    0.00174     0.39542
      H   22    0.08476      0.00000     0.41394    0.00130     0.41524
      H   23    0.09414      0.00000     0.40369    0.00217     0.40586
      H   24    0.08449      0.00000     0.41409    0.00142     0.41551
      H   25    0.09444      0.00000     0.40375    0.00182     0.40556
      H   26    0.10111      0.00000     0.39743    0.00147     0.39889
      H   27    0.09031      0.00000     0.40824    0.00145     0.40969
      H   28    0.08501      0.00000     0.41374    0.00125     0.41499
      H   29    0.19362      0.00000     0.30447    0.00190     0.30638
 =======================================================================
   * Total *    0.00000     12.99471    34.84209    0.16320    48.00000

 Normal termination of Gaussian 16 at Wed Dec  9 23:30:22 2020.
