 Gaussian 16, Revision A.03,

 -----------------------------------------------------------
 # opt freq B3LYP/6-31G(d) empiricaldispersion=gd3bj scf=xqc
 -----------------------------------------------------------

 -------------------------------
 CID_147030668_JID_2708_neutraal
 -------------------------------
 Symbolic Z-matrix:
 Charge =  0 Multiplicity = 1

 SCF Done:  E(RB3LYP) =  -555.938359919     A.U. after   14 cycles
 SCF Done:  E(RB3LYP) =  -555.944235969     A.U. after   13 cycles
 SCF Done:  E(RB3LYP) =  -555.948153333     A.U. after   13 cycles
 SCF Done:  E(RB3LYP) =  -555.954245273     A.U. after   15 cycles
 SCF Done:  E(RB3LYP) =  -555.956878178     A.U. after   14 cycles
 SCF Done:  E(RB3LYP) =  -555.957786645     A.U. after   12 cycles
 SCF Done:  E(RB3LYP) =  -555.958276059     A.U. after   12 cycles
 SCF Done:  E(RB3LYP) =  -555.958473693     A.U. after   11 cycles
 SCF Done:  E(RB3LYP) =  -555.958634328     A.U. after   12 cycles
 SCF Done:  E(RB3LYP) =  -555.958681616     A.U. after   11 cycles
 SCF Done:  E(RB3LYP) =  -555.958730473     A.U. after   10 cycles
 SCF Done:  E(RB3LYP) =  -555.958745902     A.U. after   10 cycles
 SCF Done:  E(RB3LYP) =  -555.958759035     A.U. after   10 cycles
 SCF Done:  E(RB3LYP) =  -555.958764760     A.U. after   10 cycles
 SCF Done:  E(RB3LYP) =  -555.958765812     A.U. after    8 cycles
 SCF Done:  E(RB3LYP) =  -555.958765840     A.U. after    7 cycles
 Optimization completed.
    -- Stationary point found.
 Normal termination of Gaussian 16 at Wed Dec  9 17:52:54 2020.

 --------------------------------------------------------------------
 #N Geom=AllCheck Guess=TCheck SCRF=Check GenChk RB3LYP/6-31G(d) Freq
 --------------------------------------------------------------------

 Structure from the checkpoint file:  "JID_2708.chk"
 -------------------------------
 CID_147030668_JID_2708_neutraal
 -------------------------------
 Charge =  0 Multiplicity = 1

 SCF Done:  E(RB3LYP) =  -555.958765840     A.U. after    1 cycles

  Exact polarizability: 151.847  16.506 111.575   1.545  -4.713  62.910
 Approx polarizability: 208.199  38.202 179.970   0.288  -9.560  93.115

                      1                      2                      3
                      A                      A                      A
 Frequencies --     24.0783                45.7562                59.6911
 Red. masses --      3.1790                 3.7455                 2.9327
 Frc consts  --      0.0011                 0.0046                 0.0062
 IR Inten    --      0.8748                 0.5060                 1.5906

                      4                      5                      6
                      A                      A                      A
 Frequencies --     87.8194               113.1264               173.4301
 Red. masses --      2.2473                 2.0969                 1.8494
 Frc consts  --      0.0102                 0.0158                 0.0328
 IR Inten    --      0.2335                 1.3283                 1.2357

                      7                      8                      9
                      A                      A                      A
 Frequencies --    233.5617               245.8665               267.9683
 Red. masses --      2.7962                 2.5580                 3.5302
 Frc consts  --      0.0899                 0.0911                 0.1494
 IR Inten    --      8.4816                 1.6984                 1.2044

                     10                     11                     12
                      A                      A                      A
 Frequencies --    324.7892               346.3437               376.1065
 Red. masses --      4.1693                 4.2776                 2.5019
 Frc consts  --      0.2591                 0.3023                 0.2085
 IR Inten    --      9.5101                10.9026                 4.7786

                     13                     14                     15
                      A                      A                      A
 Frequencies --    421.2306               471.3598               508.5944
 Red. masses --      2.7303                 3.1499                 4.0247
 Frc consts  --      0.2854                 0.4123                 0.6134
 IR Inten    --      4.3469                 2.1099                 3.0695

                     16                     17                     18
                      A                      A                      A
 Frequencies --    573.0068               614.8684               638.2302
 Red. masses --      4.5551                 2.2543                 2.3392
 Frc consts  --      0.8812                 0.5021                 0.5614
 IR Inten    --      2.3789                 3.5492                 1.5168

                     19                     20                     21
                      A                      A                      A
 Frequencies --    744.9920               761.8960               798.8299
 Red. masses --      2.2951                 2.7076                 2.7281
 Frc consts  --      0.7505                 0.9260                 1.0257
 IR Inten    --     10.4910                 9.5909                 8.8629

                     22                     23                     24
                      A                      A                      A
 Frequencies --    821.0895               835.1121               907.7535
 Red. masses --      1.7758                 1.5233                 1.3535
 Frc consts  --      0.7054                 0.6259                 0.6571
 IR Inten    --      6.6789                20.8927                41.2322

                     25                     26                     27
                      A                      A                      A
 Frequencies --    952.0834               963.4565               976.7286
 Red. masses --      3.4992                 3.9345                 1.5755
 Frc consts  --      1.8688                 2.1518                 0.8855
 IR Inten    --      9.7011                30.9534                 1.9819

                     28                     29                     30
                      A                      A                      A
 Frequencies --    996.6565              1003.8306              1047.4952
 Red. masses --      1.2899                 2.0258                 7.1965
 Frc consts  --      0.7549                 1.2027                 4.6524
 IR Inten    --      2.2422                 4.1537                70.8433

                     31                     32                     33
                      A                      A                      A
 Frequencies --   1066.2069              1115.2919              1136.0660
 Red. masses --      3.9340                 2.5822                 2.5738
 Frc consts  --      2.6349                 1.8924                 1.9572
 IR Inten    --      2.8109                 7.8661                87.4498

                     34                     35                     36
                      A                      A                      A
 Frequencies --   1177.5533              1187.5712              1206.9725
 Red. masses --      1.2704                 1.4132                 2.2045
 Frc consts  --      1.0379                 1.1743                 1.8921
 IR Inten    --     25.1409                10.5152                44.3495

                     37                     38                     39
                      A                      A                      A
 Frequencies --   1242.2960              1268.2333              1287.6769
 Red. masses --      1.6770                 1.2917                 1.7461
 Frc consts  --      1.5248                 1.2241                 1.7058
 IR Inten    --     42.1850                99.9572               143.2930

                     40                     41                     42
                      A                      A                      A
 Frequencies --   1320.1432              1336.5500              1347.7706
 Red. masses --      1.4604                 2.6604                 1.0852
 Frc consts  --      1.4996                 2.8001                 1.1614
 IR Inten    --     64.5211                34.6789                 1.7040

                     43                     44                     45
                      A                      A                      A
 Frequencies --   1360.8829              1377.3337              1431.2071
 Red. masses --      1.2888                 1.3276                 1.7005
 Frc consts  --      1.4063                 1.4838                 2.0522
 IR Inten    --     26.3449                24.4920                66.4373

                     46                     47                     48
                      A                      A                      A
 Frequencies --   1452.1770              1487.6217              1500.4766
 Red. masses --      1.3901                 1.4021                 1.0992
 Frc consts  --      1.7272                 1.8282                 1.4581
 IR Inten    --     20.6642                 7.6815                 0.4945

                     49                     50                     51
                      A                      A                      A
 Frequencies --   1502.1851              1511.7805              1521.5785
 Red. masses --      1.1266                 1.1003                 1.0772
 Frc consts  --      1.4978                 1.4816                 1.4693
 IR Inten    --      2.1512                 5.9954                 7.3962

                     52                     53                     54
                      A                      A                      A
 Frequencies --   1532.3728              1540.5413              1662.2586
 Red. masses --      1.0683                 1.0858                 6.6340
 Frc consts  --      1.4780                 1.5183                10.8000
 IR Inten    --      9.4585                 5.9184                27.5117

                     55                     56                     57
                      A                      A                      A
 Frequencies --   1701.5788              1734.6782              2988.8922
 Red. masses --      5.3402                 7.5354                 1.0738
 Frc consts  --      9.1099                13.3597                 5.6517
 IR Inten    --     27.3221               136.7057                28.9881

                     58                     59                     60
                      A                      A                      A
 Frequencies --   3005.0979              3044.1761              3056.4546
 Red. masses --      1.0377                 1.0618                 1.1011
 Frc consts  --      5.5214                 5.7975                 6.0604
 IR Inten    --     45.6344                38.1921                44.2934

                     61                     62                     63
                      A                      A                      A
 Frequencies --   3077.0394              3098.3041              3104.0253
 Red. masses --      1.0885                 1.0567                 1.1040
 Frc consts  --      6.0724                 5.9766                 6.2673
 IR Inten    --     24.3335                44.0305                22.2091

                     64                     65                     66
                      A                      A                      A
 Frequencies --   3137.0091              3156.4605              3161.4562
 Red. masses --      1.0987                 1.1110                 1.0590
 Frc consts  --      6.3701                 6.5217                 6.2362
 IR Inten    --     41.1946                29.2320                 7.4927

                     67                     68                     69
                      A                      A                      A
 Frequencies --   3186.5259              3229.0809              3241.1159
 Red. masses --      1.0893                 1.0953                 1.1166
 Frc consts  --      6.5165                 6.7289                 6.9112
 IR Inten    --      8.8461                 6.8966                12.5191

 - Thermochemistry -
 -------------------
 Temperature   298.150 Kelvin.  Pressure   1.00000 Atm.
 Atom     1 has atomic number  6 and mass  12.00000

 Molecular mass:   167.09463 amu.
 Principal axes and moments of inertia in atomic units:
                           1         2         3
     Eigenvalues --   826.767104058.155974710.33706
           X            0.99999  -0.00501   0.00185
           Y            0.00503   0.99995  -0.00861
           Z           -0.00181   0.00862   0.99996
 This molecule is an asymmetric top.
 Rotational symmetry number  1.
 Warning -- assumption of classical behavior for rotation
           may cause significant error
 Rotational temperatures (Kelvin)      0.10476     0.02134     0.01839
 Rotational constants (GHZ):           2.18289     0.44472     0.38314
 Zero-point vibrational energy     555249.1 (Joules/Mol)
                                  132.70771 (Kcal/Mol)
 Warning -- explicit consideration of  17 degrees of freedom as
           vibrations may cause significant error
 Vibrational temperatures:     34.64    65.83    85.88   126.35   162.76
          (Kelvin)            249.53   336.04   353.75   385.55   467.30
                              498.31   541.13   606.06   678.18   731.75
                              824.43   884.66   918.27  1071.88  1096.20
                             1149.34  1181.36  1201.54  1306.05  1369.84
                             1386.20  1405.29  1433.97  1444.29  1507.11
                             1534.03  1604.66  1634.55  1694.24  1708.65
                             1736.56  1787.39  1824.70  1852.68  1899.39
                             1923.00  1939.14  1958.01  1981.68  2059.19
                             2089.36  2140.36  2158.85  2161.31  2175.12
                             2189.21  2204.74  2216.50  2391.62  2448.19
                             2495.82  4300.35  4323.67  4379.89  4397.56
                             4427.17  4457.77  4466.00  4513.46  4541.44
                             4548.63  4584.70  4645.93  4663.24

 Zero-point correction=                           0.211483 (Hartree/Particle)
 Thermal correction to Energy=                    0.223662
 Thermal correction to Enthalpy=                  0.224606
 Thermal correction to Gibbs Free Energy=         0.171301
 Sum of electronic and zero-point Energies=           -555.747283
 Sum of electronic and thermal Energies=              -555.735104
 Sum of electronic and thermal Enthalpies=            -555.734160
 Sum of electronic and thermal Free Energies=         -555.787465

                     E (Thermal)             CV                S
                      KCal/Mol        Cal/Mol-Kelvin    Cal/Mol-Kelvin
 Total                  140.350             44.240            112.190
 Electronic               0.000              0.000              0.000
 Translational            0.889              2.981             41.248
 Rotational               0.889              2.981             31.136
 Vibrational            138.572             38.278             39.805
 Vibration     1          0.593              1.985              6.266
 Vibration     2          0.595              1.979              4.993
 Vibration     3          0.597              1.974              4.467
 Vibration     4          0.601              1.958              3.708
 Vibration     5          0.607              1.939              3.215
 Vibration     6          0.627              1.875              2.398
 Vibration     7          0.654              1.790              1.851
 Vibration     8          0.660              1.770              1.760
 Vibration     9          0.673              1.732              1.609
 Vibration    10          0.709              1.626              1.286
 Vibration    11          0.724              1.583              1.183
 Vibration    12          0.747              1.521              1.055
 Vibration    13          0.784              1.424              0.888
 Vibration    14          0.828              1.314              0.734
 Vibration    15          0.864              1.231              0.637
 Vibration    16          0.929              1.090              0.498
 Vibration    17          0.974              1.000              0.425

                           ! Non-Optimized Parameters !
 Normal termination of Gaussian 16 at Wed Dec  9 17:58:22 2020.

 ----------------------------------------------------------------------
 # B3LYP/6-311++G(d,p) empiricaldispersion=gd3bj scf=xqc pop=npa geom=c
 heck
 ----------------------------------------------------------------------

 ---------------------------------------
 CID_147030668_JID_2708_Energie_neutraal
 ---------------------------------------
 Structure from the checkpoint file:  "JID_2708.chk"
 Charge =  0 Multiplicity = 1

 SCF Done:  E(RB3LYP) =  -556.117369734     A.U. after   15 cycles
 Normal termination of Gaussian 16 at Wed Dec  9 18:00:49 2020.

 ----------------------------------------------------------------------
 # B3LYP/6-311++G(d,p) empiricaldispersion=gd3bj scf=xqc pop=npa geom=c
 heck
 ----------------------------------------------------------------------

 -------------------------------------
 CID_147030668_JID_2708_Energie_kation
 -------------------------------------
 Structure from the checkpoint file:  "JID_2708.chk"
 Charge =  1 Multiplicity = 2

 SCF Done:  E(UB3LYP) =  -555.818130957     A.U. after   23 cycles
 Normal termination of Gaussian 16 at Wed Dec  9 18:06:16 2020.
 Gaussian 16:  ES64L-G16RevA.03 25-Dec-2016

 ----------------------------------------------------------------------
 # B3LYP/6-311++G(d,p) empiricaldispersion=gd3bj scf=xqc pop=npa geom=c
 heck
 ----------------------------------------------------------------------

 ------------------------------------
 CID_147030668_JID_2708_Energie_anion
 ------------------------------------
 Structure from the checkpoint file:  "JID_2708.chk"
 Charge = -1 Multiplicity = 2

                         Standard orientation:
 ---------------------------------------------------------------------
 Center     Atomic      Atomic             Coordinates (Angstroms)
 Number     Number       Type             X           Y           Z
 ---------------------------------------------------------------------
      1          6           0       -3.640462    1.569523   -0.085124
      2          8           0       -3.781124    0.201152    0.250349
      3          6           0       -2.555105   -0.421756    0.593243
      4          6           0       -1.821133   -0.907171   -0.658753
      5          8           0       -0.584348   -1.549347   -0.310348
      6          6           0        0.483814   -0.741831   -0.090076
      7          7           0        0.401938    0.528321   -0.187939
      8          6           0        1.601508    1.302643    0.114500
      9          6           0        2.934927    0.572401    0.050029
     10          6           0        4.098935    1.204623   -0.167199
     11          6           0        2.874060   -0.866308    0.275989
     12          6           0        1.693718   -1.510652    0.228779
     13          1           0       -4.638713    1.937532   -0.335973
     14          1           0       -2.976418    1.728010   -0.946679
     15          1           0       -3.245500    2.150261    0.762739
     16          1           0       -1.907024    0.259575    1.160290
     17          1           0       -2.800012   -1.279123    1.228605
     18          1           0       -2.411267   -1.670780   -1.169767
     19          1           0       -1.620515   -0.077218   -1.340025
     20          1           0        1.476326    1.699818    1.135499
     21          1           0        1.620887    2.179111   -0.542656
     22          1           0        5.046325    0.672743   -0.138946
     23          1           0        4.141666    2.270353   -0.375117
     24          1           0        3.803562   -1.408712    0.431854
     25          1           0        1.599322   -2.583079    0.357418
 ---------------------------------------------------------------------

 SCF Done:  E(UB3LYP) =  -556.121725557     A.U. after   29 cycles

 The electronic state is 2-A.
 Alpha  occ. eigenvalues --  -19.02731 -19.00681 -14.11607 -10.11833 -10.10265
 Alpha  occ. eigenvalues --  -10.09534 -10.08662 -10.04027 -10.00629  -9.99096
 Alpha  occ. eigenvalues --   -9.98646  -9.98200  -0.93959  -0.92735  -0.75130
 Alpha  occ. eigenvalues --   -0.64939  -0.63667  -0.60194  -0.57350  -0.52315
 Alpha  occ. eigenvalues --   -0.50586  -0.45361  -0.41518  -0.39158  -0.38634
 Alpha  occ. eigenvalues --   -0.37147  -0.35217  -0.33811  -0.31169  -0.30666
 Alpha  occ. eigenvalues --   -0.29836  -0.28941  -0.27131  -0.25992  -0.24060
 Alpha  occ. eigenvalues --   -0.22969  -0.22762  -0.21580  -0.20212  -0.18898
 Alpha  occ. eigenvalues --   -0.16629  -0.15190  -0.11764  -0.09431  -0.06120
 Alpha  occ. eigenvalues --    0.05927
 Alpha virt. eigenvalues --    0.07713   0.09813   0.10233   0.10621   0.11167
 Alpha virt. eigenvalues --    0.11601   0.12466   0.12817   0.13105   0.13765
 Alpha virt. eigenvalues --    0.14428   0.15419   0.15867   0.16308   0.16975

  Beta  occ. eigenvalues --  -19.02730 -19.00605 -14.11368 -10.11833 -10.10259
  Beta  occ. eigenvalues --  -10.09537 -10.08565 -10.04052 -10.00606  -9.98735
  Beta  occ. eigenvalues --   -9.98384  -9.97847  -0.93939  -0.92587  -0.74735
  Beta  occ. eigenvalues --   -0.64887  -0.63037  -0.59885  -0.57099  -0.51982
  Beta  occ. eigenvalues --   -0.50467  -0.44666  -0.41105  -0.39049  -0.38546
  Beta  occ. eigenvalues --   -0.37004  -0.35162  -0.33671  -0.30964  -0.30403
  Beta  occ. eigenvalues --   -0.29643  -0.28606  -0.27062  -0.25719  -0.23737
  Beta  occ. eigenvalues --   -0.22736  -0.22508  -0.21441  -0.20075  -0.18584
  Beta  occ. eigenvalues --   -0.16359  -0.13452  -0.10704  -0.09045  -0.04080
  Beta virt. eigenvalues --    0.07678   0.09767   0.10143   0.10536   0.11114
  Beta virt. eigenvalues --    0.11551   0.11946   0.12443   0.12911   0.13075
  Beta virt. eigenvalues --    0.14045   0.14387   0.15467   0.15799   0.16524

 Mulliken charges and spin densities:
               1          2
     1  C   -0.259950   0.000269
     2  O   -0.162470   0.000166
     3  C   -0.306644  -0.005646
     4  C   -0.248425  -0.018505
     5  O   -0.058158   0.008255
     6  C   -0.586100  -0.001506
     7  N   -0.072708   0.127892
     8  C   -0.797658  -0.153446
     9  C    1.305132  -0.058411
    10  C   -0.945307   0.560266
    11  C   -0.681132   0.115880
    12  C    0.280210   0.321904
    13  H    0.135983   0.000022
    14  H    0.125801   0.000423
    15  H    0.117384   0.000520
    16  H    0.190390   0.000674
    17  H    0.139864   0.002706
    18  H    0.131603   0.003631
    19  H    0.194114   0.000675
    20  H   -0.015447   0.161208
    21  H    0.161845  -0.006740
    22  H    0.084112  -0.012139
    23  H    0.071412  -0.017810
    24  H    0.072297  -0.017761
    25  H    0.123851  -0.012528
 Sum of Mulliken charges =  -1.00000   1.00000

 Dipole moment (field-independent basis, Debye):
    X=             -7.3295    Y=              0.3075    Z=             -0.3758  Tot=              7.3455
 Quadrupole moment (field-independent basis, Debye-Ang):
   XX=           -123.2096   YY=            -86.0625   ZZ=            -83.1968
   XY=             -9.0396   XZ=              0.5474   YZ=             -1.1449

 Summary of Natural Population Analysis:

                                       Natural Population
                Natural  -----------------------------------------------
    Atom  No    Charge         Core      Valence    Rydberg      Total
 -----------------------------------------------------------------------
      C    1   -0.09809      0.99963     2.08973    0.00874     3.09809
      O    2   -0.30394      0.99989     3.29324    0.01082     4.30394
      C    3   -0.02003      0.99959     2.00992    0.01052     3.02003
      C    4   -0.02543      0.99958     2.01496    0.01090     3.02543
      O    5   -0.27996      0.99986     3.26964    0.01046     4.27996
      C    6    0.29325      0.99948     1.68654    0.02074     2.70675
      N    7   -0.27687      0.99963     2.76515    0.01208     3.77687
      C    8   -0.10029      0.99958     2.08776    0.01294     3.10029
      C    9   -0.03532      0.99951     2.02546    0.01034     3.03532
      C   10   -0.13615      0.99953     2.12667    0.00995     3.13615
      C   11   -0.01784      0.99951     2.00938    0.00895     3.01784
      C   12   -0.10524      0.99950     2.09610    0.00964     3.10524
      H   13    0.08224      0.00000     0.41693    0.00083     0.41776
      H   14    0.08284      0.00000     0.41575    0.00142     0.41716
      H   15    0.07786      0.00000     0.42090    0.00124     0.42214
      H   16    0.09030      0.00000     0.40737    0.00233     0.40970
      H   17    0.08391      0.00000     0.41491    0.00118     0.41609
      H   18    0.08193      0.00000     0.41692    0.00115     0.41807
      H   19    0.09446      0.00000     0.40413    0.00141     0.40554
      H   20    0.09081      0.00000     0.40665    0.00253     0.40919
      H   21    0.08970      0.00000     0.40893    0.00137     0.41030
      H   22    0.08005      0.00000     0.41895    0.00100     0.41995
      H   23    0.07897      0.00000     0.42009    0.00094     0.42103
      H   24    0.08160      0.00000     0.41680    0.00160     0.41840
      H   25    0.09124      0.00000     0.40768    0.00108     0.40876
 =======================================================================
   * Total *    0.00000     11.99529    32.85055    0.15415    45.00000

 Normal termination of Gaussian 16 at Wed Dec  9 18:13:14 2020.
