 Gaussian 16, Revision A.03,

 -----------------------------------------------------------
 # opt freq B3LYP/6-31G(d) empiricaldispersion=gd3bj scf=xqc
 -----------------------------------------------------------

 -------------------------------
 CID_114703312_JID_9051_neutraal
 -------------------------------
 Symbolic Z-matrix:
 Charge =  0 Multiplicity = 1

 SCF Done:  E(RB3LYP) =  -786.667576753     A.U. after   15 cycles
 SCF Done:  E(RB3LYP) =  -786.667498352     A.U. after   13 cycles
 SCF Done:  E(RB3LYP) =  -786.674377060     A.U. after   12 cycles
 SCF Done:  E(RB3LYP) =  -786.677123143     A.U. after   12 cycles
 SCF Done:  E(RB3LYP) =  -786.678372915     A.U. after   12 cycles
 SCF Done:  E(RB3LYP) =  -786.679267798     A.U. after   12 cycles
 SCF Done:  E(RB3LYP) =  -786.679632138     A.U. after   11 cycles
 SCF Done:  E(RB3LYP) =  -786.679837108     A.U. after   11 cycles
 SCF Done:  E(RB3LYP) =  -786.679907178     A.U. after   11 cycles
 SCF Done:  E(RB3LYP) =  -786.679931754     A.U. after   10 cycles
 SCF Done:  E(RB3LYP) =  -786.679946496     A.U. after    6 cycles
 SCF Done:  E(RB3LYP) =  -786.679946516     A.U. after    6 cycles
 SCF Done:  E(RB3LYP) =  -786.679946531     A.U. after    6 cycles
 SCF Done:  E(RB3LYP) =  -786.679946542     A.U. after    6 cycles
 SCF Done:  E(RB3LYP) =  -786.679946547     A.U. after    6 cycles
 Optimization completed.
    -- Stationary point found.
 Normal termination of Gaussian 16 at Sun Dec 13 20:32:18 2020.

 --------------------------------------------------------------------
 #N Geom=AllCheck Guess=TCheck SCRF=Check GenChk RB3LYP/6-31G(d) Freq
 --------------------------------------------------------------------

 Structure from the checkpoint file:  "JID_9051.chk"
 -------------------------------
 CID_114703312_JID_9051_neutraal
 -------------------------------
 Charge =  0 Multiplicity = 1

 SCF Done:  E(RB3LYP) =  -786.679946547     A.U. after    1 cycles

  Exact polarizability: 228.052  -7.724 162.032   0.347  -5.915 140.062
 Approx polarizability: 323.893 -11.258 238.415   2.024 -17.088 238.294

                      1                      2                      3
                      A                      A                      A
 Frequencies --     30.0712                37.6009                40.8648
 Red. masses --      2.6190                 3.6100                 3.8108
 Frc consts  --      0.0014                 0.0030                 0.0037
 IR Inten    --      0.0436                 0.4272                 0.2454

                      4                      5                      6
                      A                      A                      A
 Frequencies --     75.6990                80.8950               104.1843
 Red. masses --      3.7530                 4.2516                 3.4666
 Frc consts  --      0.0127                 0.0164                 0.0222
 IR Inten    --      0.2524                 0.8987                 0.0496

                      7                      8                      9
                      A                      A                      A
 Frequencies --    120.2559               147.6869               195.8022
 Red. masses --      4.2148                 3.5168                 4.0042
 Frc consts  --      0.0359                 0.0452                 0.0904
 IR Inten    --      0.1096                 0.2329                 1.8184

                     10                     11                     12
                      A                      A                      A
 Frequencies --    220.5751               242.6637               252.6831
 Red. masses --      1.2288                 2.4327                 2.8243
 Frc consts  --      0.0352                 0.0844                 0.1062
 IR Inten    --      0.0265                 0.7146                 0.0181

                     13                     14                     15
                      A                      A                      A
 Frequencies --    311.4520               313.2380               342.8378
 Red. masses --      3.8415                 2.5142                 3.4114
 Frc consts  --      0.2196                 0.1453                 0.2362
 IR Inten    --      0.8162                 0.1023                 0.5118

                     16                     17                     18
                      A                      A                      A
 Frequencies --    372.7442               396.0504               427.0076
 Red. masses --      2.8822                 2.0784                 2.9600
 Frc consts  --      0.2359                 0.1921                 0.3180
 IR Inten    --      0.5516                 1.8860                 1.2075

                     19                     20                     21
                      A                      A                      A
 Frequencies --    433.1472               454.3276               497.8921
 Red. masses --      3.5466                 3.6304                 3.9910
 Frc consts  --      0.3920                 0.4415                 0.5829
 IR Inten    --      0.8649                 3.4454                 3.0461

                     22                     23                     24
                      A                      A                      A
 Frequencies --    506.9268               557.0420               603.1635
 Red. masses --      2.4460                 2.7314                 2.5847
 Frc consts  --      0.3703                 0.4994                 0.5540
 IR Inten    --      8.2948                 8.5941                17.6347

                     25                     26                     27
                      A                      A                      A
 Frequencies --    626.0569               648.3150               685.2128
 Red. masses --      3.8367                 5.7022                 4.2523
 Frc consts  --      0.8860                 1.4121                 1.1763
 IR Inten    --      3.5084                 1.1073                10.2359

                     28                     29                     30
                      A                      A                      A
 Frequencies --    690.3399               736.6474               758.1976
 Red. masses --      3.5872                 2.5523                 3.6499
 Frc consts  --      1.0073                 0.8160                 1.2362
 IR Inten    --      3.0841                22.4508                 1.3441

                     31                     32                     33
                      A                      A                      A
 Frequencies --    788.1754               794.8359               802.3382
 Red. masses --      1.5332                 1.3877                 1.1682
 Frc consts  --      0.5612                 0.5165                 0.4431
 IR Inten    --     34.4731                 6.3571                 1.2141

                     34                     35                     36
                      A                      A                      A
 Frequencies --    805.6421               834.4479               837.8523
 Red. masses --      4.1559                 1.4634                 2.0724
 Frc consts  --      1.5893                 0.6004                 0.8572
 IR Inten    --      2.9528                 9.1831                 3.6497

                     37                     38                     39
                      A                      A                      A
 Frequencies --    842.2689               855.0962               873.3938
 Red. masses --      1.6056                 1.6399                 2.0471
 Frc consts  --      0.6711                 0.7065                 0.9201
 IR Inten    --      1.2433                24.4364                21.0522

                     40                     41                     42
                      A                      A                      A
 Frequencies --    904.0357               932.4596               936.3598
 Red. masses --      2.7283                 1.6637                 4.5972
 Frc consts  --      1.3138                 0.8523                 2.3748
 IR Inten    --      3.0281                 3.6059                31.4690

                     43                     44                     45
                      A                      A                      A
 Frequencies --    956.9785               960.5450               981.2339
 Red. masses --      1.3506                 1.3267                 2.3556
 Frc consts  --      0.7288                 0.7212                 1.3363
 IR Inten    --      0.1176                 0.2440                 1.8723

                     46                     47                     48
                      A                      A                      A
 Frequencies --    985.4989              1028.1658              1046.2135
 Red. masses --      1.9587                 5.3472                 2.2928
 Frc consts  --      1.1208                 3.3304                 1.4786
 IR Inten    --      5.7879                 7.8826                10.1042

                     49                     50                     51
                      A                      A                      A
 Frequencies --   1058.3079              1080.1483              1081.8992
 Red. masses --      2.4134                 1.4698                 1.6273
 Frc consts  --      1.5926                 1.0104                 1.1223
 IR Inten    --      2.0835                 2.3292                 3.0762

                     52                     53                     54
                      A                      A                      A
 Frequencies --   1093.0888              1111.0343              1131.7733
 Red. masses --      1.8980                 1.7334                 2.0346
 Frc consts  --      1.3362                 1.2607                 1.5355
 IR Inten    --     13.8386                 3.9833                 3.6845

                     55                     56                     57
                      A                      A                      A
 Frequencies --   1148.8177              1152.4786              1163.9746
 Red. masses --      1.2830                 2.8097                 1.9119
 Frc consts  --      0.9977                 2.1988                 1.5262
 IR Inten    --      3.7092                11.3434                21.2895

                     58                     59                     60
                      A                      A                      A
 Frequencies --   1201.2830              1211.5972              1221.4124
 Red. masses --      1.3311                 1.1458                 1.5137
 Frc consts  --      1.1318                 0.9910                 1.3305
 IR Inten    --      5.4988                 1.8652                16.7061

                     61                     62                     63
                      A                      A                      A
 Frequencies --   1236.1304              1239.9255              1264.8392
 Red. masses --      1.8738                 2.3869                 1.4813
 Frc consts  --      1.6869                 2.1621                 1.3963
 IR Inten    --      4.1992                 0.4420                 4.0094

                     64                     65                     66
                      A                      A                      A
 Frequencies --   1285.3088              1297.3515              1311.5593
 Red. masses --      1.3688                 2.2178                 2.6170
 Frc consts  --      1.3324                 2.1993                 2.6524
 IR Inten    --      0.0247                10.6574                19.5952

                     67                     68                     69
                      A                      A                      A
 Frequencies --   1324.1883              1339.8811              1343.3420
 Red. masses --      1.4159                 1.3168                 1.6245
 Frc consts  --      1.4628                 1.3928                 1.7272
 IR Inten    --      1.2807                 5.1902                 0.0407

                     70                     71                     72
                      A                      A                      A
 Frequencies --   1354.0108              1365.9071              1366.3023
 Red. masses --      2.0042                 1.3811                 2.4654
 Frc consts  --      2.1649                 1.5182                 2.7117
 IR Inten    --      2.7790                 4.8394                 1.5429

                     73                     74                     75
                      A                      A                      A
 Frequencies --   1371.7619              1387.5232              1396.1819
 Red. masses --      1.5670                 1.4650                 1.4011
 Frc consts  --      1.7374                 1.6618                 1.6092
 IR Inten    --      2.8975                 1.8012                32.7631

                     76                     77                     78
                      A                      A                      A
 Frequencies --   1415.5725              1435.1168              1437.1384
 Red. masses --      1.4255                 1.4019                 3.1747
 Frc consts  --      1.6830                 1.7011                 3.8632
 IR Inten    --     22.5038                 1.4669                 8.3543

                     79                     80                     81
                      A                      A                      A
 Frequencies --   1445.6454              1463.8099              1499.0490
 Red. masses --      1.4529                 2.7264                 1.2934
 Frc consts  --      1.7890                 3.4420                 1.7124
 IR Inten    --      4.7188                 4.2453                 3.7193

                     82                     83                     84
                      A                      A                      A
 Frequencies --   1510.5789              1517.8467              1519.2710
 Red. masses --      1.0904                 1.1596                 1.1796
 Frc consts  --      1.4659                 1.5740                 1.6042
 IR Inten    --      4.6617                 9.6564                 7.3532

                     85                     86                     87
                      A                      A                      A
 Frequencies --   1520.4166              1524.4041              1525.6798
 Red. masses --      2.0146                 1.1991                 1.0599
 Frc consts  --      2.7439                 1.6418                 1.4536
 IR Inten    --     32.4208                13.3986                 4.9888

                     88                     89                     90
                      A                      A                      A
 Frequencies --   1537.0028              1538.1897              1571.2526
 Red. masses --      1.1124                 1.0859                 2.7731
 Frc consts  --      1.5484                 1.5138                 4.0338
 IR Inten    --      4.4200                 1.9374                77.3707

                     91                     92                     93
                      A                      A                      A
 Frequencies --   1588.1428              1635.5721              1673.7426
 Red. masses --      5.2200                 6.6417                 5.9327
 Frc consts  --      7.7572                10.4682                 9.7923
 IR Inten    --     21.2356                 0.4855                 1.0039

                     94                     95                     96
                      A                      A                      A
 Frequencies --   2908.8775              2916.9231              3026.9777
 Red. masses --      1.0741                 1.0725                 1.0718
 Frc consts  --      5.3551                 5.3767                 5.7862
 IR Inten    --     48.1558               174.9950                11.3871

                     97                     98                     99
                      A                      A                      A
 Frequencies --   3044.9047              3048.2114              3049.4814
 Red. masses --      1.0793                 1.0504                 1.0437
 Frc consts  --      5.8955                 5.7501                 5.7185
 IR Inten    --     50.5227                26.2428                32.3519

                    100                    101                    102
                      A                      A                      A
 Frequencies --   3059.3306              3080.9487              3083.6034
 Red. masses --      1.0747                 1.0880                 1.1039
 Frc consts  --      5.9261                 6.0846                 6.1843
 IR Inten    --     52.3548                41.1213                 7.5427

                    103                    104                    105
                      A                      A                      A
 Frequencies --   3087.1319              3099.0821              3120.6732
 Red. masses --      1.0972                 1.0887                 1.1030
 Frc consts  --      6.1608                 6.1607                 6.3289
 IR Inten    --     26.9900                25.6059                53.1721

                    106                    107                    108
                      A                      A                      A
 Frequencies --   3123.0120              3179.4239              3182.4614
 Red. masses --      1.1035                 1.0877                 1.0897
 Frc consts  --      6.3412                 6.4783                 6.5023
 IR Inten    --     34.5133                 7.7272                15.9015

                    109                    110                    111
                      A                      A                      A
 Frequencies --   3183.8358              3210.8720              3240.8838
 Red. masses --      1.0887                 1.0939                 1.0957
 Frc consts  --      6.5023                 6.6448                 6.7804
 IR Inten    --     15.7115                 6.0163                13.9311

                    112                    113                    114
                      A                      A                      A
 Frequencies --   3257.9670              3262.7752              3499.3848
 Red. masses --      1.0927                 1.0968                 1.0746
 Frc consts  --      6.8337                 6.8794                 7.7531
 IR Inten    --      2.0259                 0.7316                 0.5973

 - Thermochemistry -
 -------------------
 Temperature   298.150 Kelvin.  Pressure   1.00000 Atm.
 Atom     1 has atomic number  6 and mass  12.00000

 Molecular mass:   255.17355 amu.
 Principal axes and moments of inertia in atomic units:
                           1         2         3
     Eigenvalues --  3041.146055946.788917697.29167
           X            0.99988   0.01522  -0.00118
           Y           -0.01523   0.99988  -0.00170
           Z            0.00116   0.00172   1.00000
 This molecule is an asymmetric top.
 Rotational symmetry number  1.
 Warning -- assumption of classical behavior for rotation
           may cause significant error
 Rotational temperatures (Kelvin)      0.02848     0.01456     0.01125
 Rotational constants (GHZ):           0.59344     0.30348     0.23446
 Zero-point vibrational energy     918973.3 (Joules/Mol)
                                  219.63990 (Kcal/Mol)
 Warning -- explicit consideration of  24 degrees of freedom as
           vibrations may cause significant error
 Vibrational temperatures:     43.27    54.10    58.80   108.91   116.39
          (Kelvin)            149.90   173.02   212.49   281.72   317.36
                              349.14   363.55   448.11   450.68   493.27
                              536.30   569.83   614.37   623.20   653.68
                              716.36   729.35   801.46   867.82   900.76
                              932.78   985.87   993.25  1059.87  1090.88
                             1134.01  1143.59  1154.39  1159.14  1200.58
                             1205.48  1211.84  1230.29  1256.62  1300.71
                             1341.60  1347.21  1376.88  1382.01  1411.78
                             1417.91  1479.30  1505.27  1522.67  1554.09
                             1556.61  1572.71  1598.53  1628.37  1652.89
                             1658.16  1674.70  1728.38  1743.22  1757.34
                             1778.52  1783.98  1819.82  1849.27  1866.60
                             1887.04  1905.21  1927.79  1932.77  1948.12
                             1965.24  1965.80  1973.66  1996.34  2008.79
                             2036.69  2064.81  2067.72  2079.96  2106.10
                             2156.80  2173.39  2183.84  2185.89  2187.54
                             2193.28  2195.11  2211.40  2213.11  2260.68
                             2284.98  2353.22  2408.14  4185.23  4196.80
                             4355.15  4380.94  4385.70  4387.52  4401.69
                             4432.80  4436.62  4441.69  4458.89  4489.95
                             4493.32  4574.48  4578.85  4580.83  4619.73
                             4662.91  4687.49  4694.41  5034.83

 Zero-point correction=                           0.350018 (Hartree/Particle)
 Thermal correction to Energy=                    0.366814
 Thermal correction to Enthalpy=                  0.367758
 Thermal correction to Gibbs Free Energy=         0.304357
 Sum of electronic and zero-point Energies=           -786.329928
 Sum of electronic and thermal Energies=              -786.313133
 Sum of electronic and thermal Enthalpies=            -786.312189
 Sum of electronic and thermal Free Energies=         -786.375590

                     E (Thermal)             CV                S
                      KCal/Mol        Cal/Mol-Kelvin    Cal/Mol-Kelvin
 Total                  230.179             66.191            133.439
 Electronic               0.000              0.000              0.000
 Translational            0.889              2.981             42.510
 Rotational               0.889              2.981             33.298
 Vibrational            228.402             60.229             57.630
 Vibration     1          0.594              1.984              5.825
 Vibration     2          0.594              1.982              5.382
 Vibration     3          0.594              1.981              5.217
 Vibration     4          0.599              1.965              3.999
 Vibration     5          0.600              1.962              3.869
 Vibration     6          0.605              1.946              3.374
 Vibration     7          0.609              1.932              3.096
 Vibration     8          0.617              1.905              2.702
 Vibration     9          0.636              1.846              2.172
 Vibration    10          0.647              1.810              1.954
 Vibration    11          0.659              1.775              1.783
 Vibration    12          0.664              1.758              1.712
 Vibration    13          0.700              1.652              1.355
 Vibration    14          0.701              1.648              1.345
 Vibration    15          0.722              1.590              1.199
 Vibration    16          0.744              1.528              1.068
 Vibration    17          0.763              1.479              0.977
 Vibration    18          0.789              1.411              0.868
 Vibration    19          0.794              1.398              0.848
 Vibration    20          0.813              1.351              0.783
 Vibration    21          0.853              1.255              0.663
 Vibration    22          0.862              1.235              0.641
 Vibration    23          0.913              1.124              0.530
 Vibration    24          0.962              1.025              0.444

 Optimization completed.
    -- Stationary point found.
 Normal termination of Gaussian 16 at Sun Dec 13 20:57:56 2020.

 ----------------------------------------------------------------------
 # B3LYP/6-311++G(d,p) empiricaldispersion=gd3bj scf=xqc pop=npa geom=c
 heck
 ----------------------------------------------------------------------

 ---------------------------------------
 CID_114703312_JID_9051_Energie_neutraal
 ---------------------------------------
 Structure from the checkpoint file:  "JID_9051.chk"
 Charge =  0 Multiplicity = 1

 SCF Done:  E(RB3LYP) =  -786.885759484     A.U. after   15 cycles
 Normal termination of Gaussian 16 at Sun Dec 13 21:09:33 2020.

 ----------------------------------------------------------------------
 # B3LYP/6-311++G(d,p) empiricaldispersion=gd3bj scf=xqc pop=npa geom=c
 heck
 ----------------------------------------------------------------------

 -------------------------------------
 CID_114703312_JID_9051_Energie_kation
 -------------------------------------
 Structure from the checkpoint file:  "JID_9051.chk"
 Charge =  1 Multiplicity = 2

 SCF Done:  E(UB3LYP) =  -786.607955290     A.U. after   22 cycles
 Normal termination of Gaussian 16 at Sun Dec 13 21:32:44 2020.
 Gaussian 16:  ES64L-G16RevA.03 25-Dec-2016

 ----------------------------------------------------------------------
 # B3LYP/6-311++G(d,p) empiricaldispersion=gd3bj scf=xqc pop=npa geom=c
 heck
 ----------------------------------------------------------------------

 ------------------------------------
 CID_114703312_JID_9051_Energie_anion
 ------------------------------------
 Structure from the checkpoint file:  "JID_9051.chk"
 Charge = -1 Multiplicity = 2

                         Standard orientation:
 ---------------------------------------------------------------------
 Center     Atomic      Atomic             Coordinates (Angstroms)
 Number     Number       Type             X           Y           Z
 ---------------------------------------------------------------------
      1          6           0       -4.691243    0.688113    0.338435
      2          6           0       -4.318007   -0.714866   -0.169195
      3          6           0       -2.822204   -0.925623   -0.182600
      4          6           0       -2.054156   -0.522303   -1.282854
      5          6           0       -0.666744   -0.636718   -1.275943
      6          6           0       -0.027580   -1.151593   -0.148695
      7          6           0       -0.774916   -1.589233    0.945330
      8          6           0       -2.163274   -1.470722    0.926048
      9          7           0        1.394071   -1.273145   -0.113256
     10          6           0        2.042811   -2.471546   -0.307702
     11          7           0        3.342742   -2.371181   -0.154161
     12          6           0        3.552472   -1.050116    0.166414
     13          6           0        2.376577   -0.330433    0.204183
     14          6           0        2.261374    1.141804    0.502037
     15          6           0        1.223551    1.598553    1.562832
     16          6           0       -0.171267    1.942883    1.014442
     17          6           0       -0.087988    2.779514   -0.263535
     18          7           0        0.778398    2.108412   -1.234101
     19          6           0        2.152813    2.037566   -0.752528
     20          1           0       -4.320869    0.842849    1.357811
     21          1           0       -5.777506    0.831203    0.341872
     22          1           0       -4.245338    1.461579   -0.296840
     23          1           0       -4.793340   -1.470912    0.467253
     24          1           0       -4.720709   -0.854542   -1.179879
     25          1           0       -2.551904   -0.108058   -2.156311
     26          1           0       -0.070788   -0.293534   -2.110676
     27          1           0       -0.260420   -1.999358    1.808819
     28          1           0       -2.742914   -1.799822    1.784859
     29          1           0        1.489770   -3.366171   -0.560731
     30          1           0        4.547375   -0.669622    0.362138
     31          1           0        3.246373    1.368464    0.929480
     32          1           0        1.146872    0.846818    2.356311
     33          1           0        1.634271    2.504153    2.029922
     34          1           0       -0.739469    1.037989    0.804136
     35          1           0       -0.728608    2.500652    1.777510
     36          1           0       -1.085710    2.890357   -0.702547
     37          1           0        0.282141    3.795346   -0.016651
     38          1           0        0.754841    2.608894   -2.119516
     39          1           0        2.545425    3.038906   -0.481333
     40          1           0        2.790710    1.634537   -1.545011
 ---------------------------------------------------------------------

 SCF Done:  E(UB3LYP) =  -786.877696407     A.U. after   33 cycles
 SCF Done:  E(UB3LYP) =  -786.877696407     a.u. after    1 cycles

 The electronic state is 2-A.
 Alpha  occ. eigenvalues --  -14.27909 -14.20327 -14.20230 -10.12835 -10.12046
 Alpha  occ. eigenvalues --  -10.11194 -10.10157 -10.09775 -10.09358 -10.08987
 Alpha  occ. eigenvalues --  -10.08985 -10.08696 -10.08373 -10.08369 -10.08141
 Alpha  occ. eigenvalues --  -10.07964 -10.07877 -10.06614 -10.06514  -0.92591
 Alpha  occ. eigenvalues --   -0.82053  -0.80626  -0.76216  -0.71380  -0.69311
 Alpha  occ. eigenvalues --   -0.67255  -0.66103  -0.64001  -0.62593  -0.55424
 Alpha  occ. eigenvalues --   -0.54905  -0.53892  -0.52708  -0.50561  -0.50320
 Alpha  occ. eigenvalues --   -0.48200  -0.46433  -0.42387  -0.41657  -0.39476
 Alpha  occ. eigenvalues --   -0.39086  -0.37341  -0.36268  -0.36067  -0.34633
 Alpha  occ. eigenvalues --   -0.34386  -0.33941  -0.33092  -0.32574  -0.32270
 Alpha  occ. eigenvalues --   -0.31435  -0.31081  -0.30828  -0.29303  -0.28863
 Alpha  occ. eigenvalues --   -0.27447  -0.26582  -0.26028  -0.24852  -0.24611
 Alpha  occ. eigenvalues --   -0.23812  -0.22879  -0.22377  -0.18917  -0.18436
 Alpha  occ. eigenvalues --   -0.17094  -0.15705  -0.14064  -0.12758   0.03786
 Alpha virt. eigenvalues --    0.05559   0.06639   0.06953   0.07179   0.07312
 Alpha virt. eigenvalues --    0.07799   0.08214   0.08595   0.09263   0.09560
 Alpha virt. eigenvalues --    0.09709   0.10150   0.10466   0.10786   0.11505

  Beta  occ. eigenvalues --  -14.27912 -14.20310 -14.20230 -10.12830 -10.11983
  Beta  occ. eigenvalues --  -10.11186 -10.10139 -10.09772 -10.09338 -10.08990
  Beta  occ. eigenvalues --  -10.08938 -10.08693 -10.08356 -10.08345 -10.08127
  Beta  occ. eigenvalues --  -10.07951 -10.07867 -10.06571 -10.06507  -0.92575
  Beta  occ. eigenvalues --   -0.82024  -0.80583  -0.76162  -0.71352  -0.69248
  Beta  occ. eigenvalues --   -0.67229  -0.66047  -0.63956  -0.62543  -0.55350
  Beta  occ. eigenvalues --   -0.54858  -0.53860  -0.52669  -0.50511  -0.50296
  Beta  occ. eigenvalues --   -0.48156  -0.46385  -0.42334  -0.41619  -0.39439
  Beta  occ. eigenvalues --   -0.39034  -0.37309  -0.36230  -0.36028  -0.34610
  Beta  occ. eigenvalues --   -0.34338  -0.33914  -0.33065  -0.32535  -0.32231
  Beta  occ. eigenvalues --   -0.31409  -0.31054  -0.30788  -0.29239  -0.28804
  Beta  occ. eigenvalues --   -0.27378  -0.26546  -0.25974  -0.24794  -0.24576
  Beta  occ. eigenvalues --   -0.23773  -0.22852  -0.22349  -0.18869  -0.18435
  Beta  occ. eigenvalues --   -0.16976  -0.15503  -0.14017  -0.12721
  Beta virt. eigenvalues --    0.05880   0.06357   0.07122   0.07222   0.07520
  Beta virt. eigenvalues --    0.07670   0.08211   0.08703   0.08879   0.09270
  Beta virt. eigenvalues --    0.09766   0.10056   0.10358   0.10827   0.10873

 Mulliken charges and spin densities:
               1          2
     1  C    0.790787  -1.339433
     2  C    0.158960  -0.710383
     3  C    0.702951   0.161641
     4  C   -1.258949   0.745593
     5  C    0.040004  -0.078661
     6  C    0.499715  -1.104857
     7  C    0.027381  -0.089766
     8  C   -0.933118   0.458810
     9  N    0.322424   0.000961
    10  C    0.288822  -0.143495
    11  N   -0.116058   0.018871
    12  C    0.010672  -0.433534
    13  C    0.323425   0.034417
    14  C   -0.723592   0.919398
    15  C    0.156661  -0.869059
    16  C   -0.486416   0.565875
    17  C    0.068107  -0.588024
    18  N   -0.363667   0.158510
    19  C    0.557196  -1.163155
    20  H   -0.101241   0.230335
    21  H   -0.476214   0.625079
    22  H   -0.028247   0.168931
    23  H   -0.210881   0.360727
    24  H   -0.117865   0.268182
    25  H   -0.416017   0.609039
    26  H   -0.025456   0.231564
    27  H    0.012660   0.155347
    28  H   -0.262181   0.444460
    29  H    0.127868   0.020200
    30  H    0.060957   0.060521
    31  H    0.078559   0.140377
    32  H    0.028156   0.123589
    33  H   -0.033792   0.196881
    34  H    0.961912  -0.884983
    35  H   -0.112112   0.298914
    36  H   -0.226473   0.388688
    37  H   -0.125484   0.238753
    38  H   -0.037917   0.309643
    39  H   -0.224847   0.345603
    40  H    0.063309   0.124437
 Sum of Mulliken charges =  -1.00000   1.00000

 Dipole moment (field-independent basis, Debye):
    X=              4.1983    Y=             -1.9368    Z=              1.3490  Tot=              4.8163
 Quadrupole moment (field-independent basis, Debye-Ang):
   XX=           -210.4070   YY=           -169.2502   ZZ=           -149.7499
   XY=              9.1247   XZ=              1.8377   YZ=              2.5241

 Summary of Natural Population Analysis:

                                       Natural Population
                Natural  -----------------------------------------------
    Atom  No    Charge         Core      Valence    Rydberg      Total
 -----------------------------------------------------------------------
      C    1   -0.27862      0.99966     2.27430    0.00467     3.27862
      C    2   -0.19887      0.99961     2.18997    0.00930     3.19887
      C    3   -0.00076      0.99951     1.99113    0.01013     3.00076
      C    4   -0.09958      0.99950     2.09054    0.00954     3.09958
      C    5   -0.08398      0.99951     2.07474    0.00973     3.08398
      C    6    0.07053      0.99945     1.91814    0.01189     2.92947
      C    7   -0.10125      0.99951     2.09265    0.00908     3.10125
      C    8   -0.10035      0.99951     2.09158    0.00926     3.10035
      N    9   -0.21151      0.99960     2.70080    0.01111     3.71151
      C   10    0.10650      0.99964     1.87858    0.01528     2.89350
      N   11   -0.25816      0.99973     2.74640    0.01203     3.75816
      C   12   -0.03734      0.99951     2.02467    0.01315     3.03734
      C   13    0.07243      0.99947     1.91524    0.01286     2.92757
      C   14   -0.12834      0.99955     2.11764    0.01115     3.12834
      C   15   -0.18499      0.99961     2.17701    0.00837     3.18499
      C   16   -0.19878      0.99961     2.19075    0.00843     3.19878
      C   17   -0.08488      0.99962     2.07380    0.01145     3.08488
      N   18   -0.34274      0.99974     2.82958    0.01342     3.84274
      C   19   -0.07977      0.99960     2.06804    0.01213     3.07977
      H   20    0.09694      0.00000     0.40180    0.00126     0.40306
      H   21    0.09968      0.00000     0.39864    0.00168     0.40032
      H   22    0.09867      0.00000     0.39989    0.00144     0.40133
      H   23    0.09945      0.00000     0.39916    0.00139     0.40055
      H   24    0.10073      0.00000     0.39787    0.00140     0.39927
      H   25    0.10306      0.00000     0.39572    0.00122     0.39694
      H   26    0.11364      0.00000     0.38454    0.00182     0.38636
      H   27    0.10463      0.00000     0.39435    0.00102     0.39537
      H   28    0.10163      0.00000     0.39739    0.00098     0.39837
      H   29    0.09319      0.00000     0.40557    0.00124     0.40681
      H   30    0.09406      0.00000     0.40458    0.00136     0.40594
      H   31    0.10635      0.00000     0.39200    0.00165     0.39365
      H   32    0.10120      0.00000     0.39778    0.00102     0.39880
      H   33    0.09693      0.00000     0.40187    0.00120     0.40307
      H   34    0.10457      0.00000     0.39200    0.00343     0.39543
      H   35    0.09779      0.00000     0.40115    0.00106     0.40221
      H   36    0.09838      0.00000     0.40018    0.00144     0.40162
      H   37    0.07588      0.00000     0.42240    0.00172     0.42412
      H   38    0.17662      0.00000     0.32013    0.00325     0.32338
      H   39    0.07874      0.00000     0.41951    0.00174     0.42126
      H   40    0.09833      0.00000     0.40052    0.00115     0.40167
 =======================================================================
   * Total *    0.00000     18.99192    49.77259    0.23548    69.00000

 Normal termination of Gaussian 16 at Sun Dec 13 22:07:22 2020.
