 Gaussian 16, Revision A.03,

 -----------------------------------------------------------
 # opt freq B3LYP/6-31G(d) empiricaldispersion=gd3bj scf=xqc
 -----------------------------------------------------------

 -------------------------------
 CID_130131104_JID_3402_neutraal
 -------------------------------
 Symbolic Z-matrix:
 Charge =  0 Multiplicity = 1

 SCF Done:  E(RB3LYP) =  -592.868989559     A.U. after   14 cycles
 SCF Done:  E(RB3LYP) =  -592.889088019     A.U. after   12 cycles
 SCF Done:  E(RB3LYP) =  -592.891426181     A.U. after   12 cycles
 SCF Done:  E(RB3LYP) =  -592.891533967     A.U. after   11 cycles
 SCF Done:  E(RB3LYP) =  -592.891552762     A.U. after   10 cycles
 SCF Done:  E(RB3LYP) =  -592.891559735     A.U. after    9 cycles
 SCF Done:  E(RB3LYP) =  -592.891563788     A.U. after    9 cycles
 SCF Done:  E(RB3LYP) =  -592.891566453     A.U. after    9 cycles
 SCF Done:  E(RB3LYP) =  -592.891568502     A.U. after    9 cycles
 SCF Done:  E(RB3LYP) =  -592.891569570     A.U. after    8 cycles
 SCF Done:  E(RB3LYP) =  -592.891569752     A.U. after    8 cycles
 Optimization completed.
    -- Stationary point found.
 Normal termination of Gaussian 16 at Wed Dec  9 23:06:29 2020.

 --------------------------------------------------------------------
 #N Geom=AllCheck Guess=TCheck SCRF=Check GenChk RB3LYP/6-31G(d) Freq
 --------------------------------------------------------------------

 Structure from the checkpoint file:  "JID_3402.chk"
 -------------------------------
 CID_130131104_JID_3402_neutraal
 -------------------------------
 Charge =  0 Multiplicity = 1

 SCF Done:  E(RB3LYP) =  -592.891569752     A.U. after    1 cycles

  Exact polarizability: 181.649  -7.246 124.809   3.144   2.924  56.789
 Approx polarizability: 271.706 -12.079 225.488   6.533   5.780  85.620

                      1                      2                      3
                      A                      A                      A
 Frequencies --     46.0183                60.3529               100.5380
 Red. masses --      3.8260                 3.6769                 4.4464
 Frc consts  --      0.0048                 0.0079                 0.0265
 IR Inten    --      0.9152                 9.3365                 0.6968

                      4                      5                      6
                      A                      A                      A
 Frequencies --    158.2898               189.5463               221.9105
 Red. masses --      4.2808                 3.1438                 2.6184
 Frc consts  --      0.0632                 0.0665                 0.0760
 IR Inten    --      1.0899                 0.6337                 5.0969

                      7                      8                      9
                      A                      A                      A
 Frequencies --    261.5537               277.2448               326.1347
 Red. masses --      1.8398                 1.9586                 4.2295
 Frc consts  --      0.0742                 0.0887                 0.2651
 IR Inten    --      2.6909                 2.4780                 6.6933

                     10                     11                     12
                      A                      A                      A
 Frequencies --    373.8105               388.2166               411.1510
 Red. masses --      5.1011                 4.4392                 1.2733
 Frc consts  --      0.4200                 0.3942                 0.1268
 IR Inten    --      3.8694                 7.7563               153.5683

                     13                     14                     15
                      A                      A                      A
 Frequencies --    436.7036               518.7842               549.3786
 Red. masses --      2.6942                 4.2136                 5.2160
 Frc consts  --      0.3027                 0.6681                 0.9275
 IR Inten    --     14.5402                 2.0344                12.7126

                     16                     17                     18
                      A                      A                      A
 Frequencies --    597.7903               618.4952               624.8516
 Red. masses --      3.3783                 1.9187                 4.0010
 Frc consts  --      0.7113                 0.4325                 0.9204
 IR Inten    --     36.4650                14.1027                 7.5488

                     19                     20                     21
                      A                      A                      A
 Frequencies --    655.9443               672.4807               720.2520
 Red. masses --      2.2571                 1.0828                 5.0644
 Frc consts  --      0.5722                 0.2885                 1.5479
 IR Inten    --     31.6071                22.3768                 4.6268

                     22                     23                     24
                      A                      A                      A
 Frequencies --    757.2714               787.0899               804.3061
 Red. masses --      3.3295                 4.1057                 1.9614
 Frc consts  --      1.1249                 1.4986                 0.7476
 IR Inten    --      4.9018                 3.3963                20.3987

                     25                     26                     27
                      A                      A                      A
 Frequencies --    822.3054               862.8923               934.2027
 Red. masses --      5.5369                 1.5388                 1.2573
 Frc consts  --      2.2059                 0.6751                 0.6465
 IR Inten    --     14.3180                23.1077                 0.2177

                     28                     29                     30
                      A                      A                      A
 Frequencies --    952.1628               977.4783              1016.9674
 Red. masses --      3.1503                 1.5794                 6.1562
 Frc consts  --      1.6828                 0.8891                 3.7513
 IR Inten    --      1.2860                20.2957               139.4501

                     31                     32                     33
                      A                      A                      A
 Frequencies --   1076.1927              1084.0007              1132.1290
 Red. masses --      3.4177                 2.9195                 1.5785
 Frc consts  --      2.3322                 2.0212                 1.1921
 IR Inten    --     21.0278                15.9242                38.6262

                     34                     35                     36
                      A                      A                      A
 Frequencies --   1185.3867              1194.9823              1201.6805
 Red. masses --      1.2675                 1.3537                 1.6966
 Frc consts  --      1.0493                 1.1389                 1.4435
 IR Inten    --      0.6539                 4.8871               128.3855

                     37                     38                     39
                      A                      A                      A
 Frequencies --   1211.6264              1230.0686              1267.2591
 Red. masses --      1.2212                 1.4886                 2.1230
 Frc consts  --      1.0563                 1.3270                 2.0088
 IR Inten    --      6.8550                25.7795                 9.2015

                     40                     41                     42
                      A                      A                      A
 Frequencies --   1294.1645              1342.4000              1370.0509
 Red. masses --      2.6318                 2.5432                 1.4402
 Frc consts  --      2.5970                 2.7002                 1.5928
 IR Inten    --    278.6056                44.2493                 3.2671

                     43                     44                     45
                      A                      A                      A
 Frequencies --   1386.8231              1405.1656              1428.8022
 Red. masses --      2.5783                 4.3514                 1.3885
 Frc consts  --      2.9216                 5.0621                 1.6700
 IR Inten    --     18.2371                 8.1478               172.5402

                     46                     47                     48
                      A                      A                      A
 Frequencies --   1469.1816              1496.3808              1518.3800
 Red. masses --      2.9010                 1.4890                 2.3158
 Frc consts  --      3.6894                 1.9644                 3.1457
 IR Inten    --      7.3128                20.9997                 4.4577

                     49                     50                     51
                      A                      A                      A
 Frequencies --   1522.5973              1529.8813              1534.8784
 Red. masses --      1.0488                 1.8140                 1.1857
 Frc consts  --      1.4325                 2.5015                 1.6459
 IR Inten    --      4.3188                 9.2943                10.2500

                     52                     53                     54
                      A                      A                      A
 Frequencies --   1540.2112              1586.6923              1604.6978
 Red. masses --      1.3001                 5.8936                 4.5606
 Frc consts  --      1.8172                 8.7421                 6.9192
 IR Inten    --     21.4567                15.9151                60.8669

                     55                     56                     57
                      A                      A                      A
 Frequencies --   1701.5746              3017.5597              3020.8531
 Red. masses --      6.7983                 1.0355                 1.0629
 Frc consts  --     11.5971                 5.5551                 5.7149
 IR Inten    --     72.1208                68.5027                56.6141

                     58                     59                     60
                      A                      A                      A
 Frequencies --   3062.9421              3073.1633              3149.3963
 Red. masses --      1.1008                 1.1064                 1.0987
 Frc consts  --      6.0847                 6.1565                 6.4210
 IR Inten    --     45.9771                51.9676                35.2531

                     61                     62                     63
                      A                      A                      A
 Frequencies --   3184.4093              3210.5345              3229.2383
 Red. masses --      1.0889                 1.0907                 1.0910
 Frc consts  --      6.5055                 6.6240                 6.7030
 IR Inten    --     12.3959                 8.5346                14.7701

                     64                     65                     66
                      A                      A                      A
 Frequencies --   3286.2460              3640.7456              3721.3465
 Red. masses --      1.0960                 1.0797                 1.0659
 Frc consts  --      6.9739                 8.4324                 8.6970
 IR Inten    --      1.3574               106.9519                 9.8253

 - Thermochemistry -
 -------------------
 Temperature   298.150 Kelvin.  Pressure   1.00000 Atm.
 Atom     1 has atomic number  6 and mass  12.00000

 Molecular mass:   177.07898 amu.
 Principal axes and moments of inertia in atomic units:
                           1         2         3
     Eigenvalues --   796.473724350.537045058.35113
           X            0.99996  -0.00895   0.00088
           Y            0.00894   0.99995   0.00533
           Z           -0.00092  -0.00532   0.99999
 This molecule is an asymmetric top.
 Rotational symmetry number  1.
 Warning -- assumption of classical behavior for rotation
           may cause significant error
 Rotational temperatures (Kelvin)      0.10875     0.01991     0.01712
 Rotational constants (GHZ):           2.26591     0.41483     0.35678
 Zero-point vibrational energy     514608.2 (Joules/Mol)
                                  122.99430 (Kcal/Mol)
 Warning -- explicit consideration of  17 degrees of freedom as
           vibrations may cause significant error
 Vibrational temperatures:     66.21    86.83   144.65   227.74   272.71
          (Kelvin)            319.28   376.32   398.89   469.24   537.83
                              558.56   591.55   628.32   746.41   790.43
                              860.09   889.88   899.02   943.76   967.55
                             1036.28  1089.54  1132.45  1157.22  1183.11
                             1241.51  1344.11  1369.95  1406.37  1463.19
                             1548.40  1559.64  1628.88  1705.51  1719.31
                             1728.95  1743.26  1769.79  1823.30  1862.01
                             1931.41  1971.20  1995.33  2021.72  2055.73
                             2113.82  2152.96  2184.61  2190.68  2201.16
                             2208.35  2216.02  2282.90  2308.80  2448.19
                             4341.60  4346.33  4406.89  4421.60  4531.28
                             4581.65  4619.24  4646.15  4728.18  5238.22
                             5354.19

 Zero-point correction=                           0.196004 (Hartree/Particle)
 Thermal correction to Energy=                    0.207533
 Thermal correction to Enthalpy=                  0.208478
 Thermal correction to Gibbs Free Energy=         0.158064
 Sum of electronic and zero-point Energies=           -592.695566
 Sum of electronic and thermal Energies=              -592.684036
 Sum of electronic and thermal Enthalpies=            -592.683092
 Sum of electronic and thermal Free Energies=         -592.733506

                     E (Thermal)             CV                S
                      KCal/Mol        Cal/Mol-Kelvin    Cal/Mol-Kelvin
 Total                  130.229             44.534            106.104
 Electronic               0.000              0.000              0.000
 Translational            0.889              2.981             41.421
 Rotational               0.889              2.981             31.239
 Vibrational            128.452             38.572             33.444
 Vibration     1          0.595              1.979              4.982
 Vibration     2          0.597              1.973              4.446
 Vibration     3          0.604              1.949              3.444
 Vibration     4          0.621              1.893              2.570
 Vibration     5          0.633              1.854              2.232
 Vibration     6          0.648              1.808              1.943
 Vibration     7          0.669              1.743              1.651
 Vibration     8          0.678              1.716              1.551
 Vibration     9          0.710              1.623              1.279
 Vibration    10          0.745              1.526              1.064
 Vibration    11          0.756              1.495              1.007
 Vibration    12          0.775              1.446              0.923
 Vibration    13          0.797              1.390              0.837
 Vibration    14          0.874              1.208              0.613
 Vibration    15          0.905              1.141              0.545
 Vibration    16          0.956              1.036              0.453
 Vibration    17          0.978              0.993              0.419

                           ! Non-Optimized Parameters !
 Normal termination of Gaussian 16 at Wed Dec  9 23:12:06 2020.

 ----------------------------------------------------------------------
 # B3LYP/6-311++G(d,p) empiricaldispersion=gd3bj scf=xqc pop=npa geom=c
 heck
 ----------------------------------------------------------------------

 ---------------------------------------
 CID_130131104_JID_3402_Energie_neutraal
 ---------------------------------------
 Structure from the checkpoint file:  "JID_3402.chk"
 Charge =  0 Multiplicity = 1

 SCF Done:  E(RB3LYP) =  -593.064879679     A.U. after   15 cycles
 Normal termination of Gaussian 16 at Wed Dec  9 23:14:41 2020.

 ----------------------------------------------------------------------
 # B3LYP/6-311++G(d,p) empiricaldispersion=gd3bj scf=xqc pop=npa geom=c
 heck
 ----------------------------------------------------------------------

 -------------------------------------
 CID_130131104_JID_3402_Energie_kation
 -------------------------------------
 Structure from the checkpoint file:  "JID_3402.chk"
 Charge =  1 Multiplicity = 2

 SCF Done:  E(UB3LYP) =  -592.818851374     A.U. after   20 cycles
 Normal termination of Gaussian 16 at Wed Dec  9 23:19:32 2020.
 Gaussian 16:  ES64L-G16RevA.03 25-Dec-2016

 ----------------------------------------------------------------------
 # B3LYP/6-311++G(d,p) empiricaldispersion=gd3bj scf=xqc pop=npa geom=c
 heck
 ----------------------------------------------------------------------

 ------------------------------------
 CID_130131104_JID_3402_Energie_anion
 ------------------------------------
 Structure from the checkpoint file:  "JID_3402.chk"
 Charge = -1 Multiplicity = 2

                         Standard orientation:
 ---------------------------------------------------------------------
 Center     Atomic      Atomic             Coordinates (Angstroms)
 Number     Number       Type             X           Y           Z
 ---------------------------------------------------------------------
      1          6           0        4.414101   -0.688566    0.098573
      2          8           0        3.524513    0.410833    0.109232
      3          6           0        2.175246    0.166041    0.032692
      4          6           0        1.356328    1.273602    0.040882
      5          6           0       -0.046523    1.089784   -0.035270
      6          6           0       -1.125420    1.975472   -0.043643
      7          7           0       -2.264159    1.218102   -0.135869
      8          6           0       -1.994373   -0.124187   -0.176071
      9          6           0       -0.600386   -0.249532   -0.120145
     10          6           0        0.275853   -1.362191   -0.129694
     11          6           0        1.633232   -1.156415   -0.051757
     12          6           0       -3.099606   -1.115834   -0.307452
     13          8           0       -4.221273   -0.782873    0.519781
     14          1           0        5.417037   -0.261827    0.164101
     15          1           0        4.333176   -1.272780   -0.828350
     16          1           0        4.252119   -1.355848    0.956269
     17          1           0        1.800930    2.261518    0.104522
     18          1           0       -1.167002    3.051490    0.027445
     19          1           0       -3.209613    1.574805   -0.115881
     20          1           0       -0.114670   -2.374143   -0.198908
     21          1           0        2.297921   -2.011821   -0.057196
     22          1           0       -3.513901   -1.142762   -1.323258
     23          1           0       -2.713251   -2.122580   -0.090553
     24          1           0       -3.890269   -0.745481    1.432114
 ---------------------------------------------------------------------

 SCF Done:  E(UB3LYP) =  -593.053653260     A.U. after   33 cycles
 SCF Done:  E(UB3LYP) =  -593.053653260     a.u. after    1 cycles

 The electronic state is 2-A.
 Alpha  occ. eigenvalues --  -19.04062 -19.01643 -14.24613 -10.12053 -10.11628
 Alpha  occ. eigenvalues --  -10.11255 -10.07902 -10.07349 -10.05814 -10.05528
 Alpha  occ. eigenvalues --  -10.05428 -10.05275 -10.04627  -0.95569  -0.91725
 Alpha  occ. eigenvalues --   -0.86623  -0.73022  -0.65901  -0.64817  -0.62972
 Alpha  occ. eigenvalues --   -0.58690  -0.55477  -0.52813  -0.47191  -0.45506
 Alpha  occ. eigenvalues --   -0.42991  -0.41407  -0.38501  -0.37522  -0.36374
 Alpha  occ. eigenvalues --   -0.35567  -0.33974  -0.32659  -0.31514  -0.30852
 Alpha  occ. eigenvalues --   -0.29802  -0.29449  -0.27384  -0.25611  -0.25146
 Alpha  occ. eigenvalues --   -0.23141  -0.21348  -0.20179  -0.18069  -0.15345
 Alpha  occ. eigenvalues --   -0.11692  -0.06820   0.04581
 Alpha virt. eigenvalues --    0.06057   0.07368   0.07801   0.08624   0.09139
 Alpha virt. eigenvalues --    0.09638   0.10387   0.11044   0.11615   0.12937
 Alpha virt. eigenvalues --    0.13315   0.13495   0.14260   0.14678   0.15295

  Beta  occ. eigenvalues --  -19.04062 -19.01586 -14.24458 -10.12022 -10.11604
  Beta  occ. eigenvalues --  -10.11264 -10.07862 -10.07282 -10.05726 -10.05548
  Beta  occ. eigenvalues --  -10.05379 -10.05292 -10.04549  -0.95562  -0.91590
  Beta  occ. eigenvalues --   -0.86413  -0.72914  -0.65782  -0.64705  -0.62841
  Beta  occ. eigenvalues --   -0.58595  -0.55336  -0.52638  -0.47145  -0.45408
  Beta  occ. eigenvalues --   -0.42880  -0.41356  -0.38398  -0.37448  -0.36342
  Beta  occ. eigenvalues --   -0.35499  -0.33787  -0.32590  -0.31440  -0.30788
  Beta  occ. eigenvalues --   -0.29695  -0.29220  -0.27320  -0.25417  -0.25102
  Beta  occ. eigenvalues --   -0.23091  -0.21312  -0.19912  -0.17979  -0.14997
  Beta  occ. eigenvalues --   -0.11425  -0.06347
  Beta virt. eigenvalues --    0.06691   0.07385   0.08145   0.08281   0.09185
  Beta virt. eigenvalues --    0.09618   0.09965   0.10729   0.11281   0.11945
  Beta virt. eigenvalues --    0.13197   0.13541   0.13601   0.14401   0.14801

 Mulliken charges and spin densities:
               1          2
     1  C    0.476952  -0.792578
     2  O   -0.199518   0.032656
     3  C   -0.753130   0.009064
     4  C   -1.130703   0.092863
     5  C    1.369836  -0.303570
     6  C   -0.641829   0.694184
     7  N   -0.047213   0.108041
     8  C   -1.441918   1.002376
     9  C    1.832626  -0.451131
    10  C   -1.404734  -0.078509
    11  C    0.849771  -0.481451
    12  C    1.835809  -2.193765
    13  O   -0.253036   0.000479
    14  H   -0.253981   0.418190
    15  H   -0.007093   0.141259
    16  H   -0.197445   0.343358
    17  H    0.130246  -0.002464
    18  H   -0.274928   0.415670
    19  H   -0.177095   0.491496
    20  H   -0.126942   0.217117
    21  H   -0.043385   0.214245
    22  H   -0.155586   0.316462
    23  H   -0.225673   0.405525
    24  H   -0.161030   0.400483
 Sum of Mulliken charges =  -1.00000   1.00000

 Dipole moment (field-independent basis, Debye):
    X=              2.5070    Y=              0.6748    Z=             -1.3327  Tot=              2.9183
 Quadrupole moment (field-independent basis, Debye-Ang):
   XX=           -162.6630   YY=           -102.4072   ZZ=            -99.3365
   XY=              1.6405   XZ=              1.1428   YZ=              1.3733

 Summary of Natural Population Analysis:

                                       Natural Population
                Natural  -----------------------------------------------
    Atom  No    Charge         Core      Valence    Rydberg      Total
 -----------------------------------------------------------------------
      C    1   -0.10009      0.99960     2.09093    0.00956     3.10009
      O    2   -0.28141      0.99986     3.27168    0.00987     4.28141
      C    3    0.14673      0.99939     1.84168    0.01220     2.85327
      C    4   -0.10894      0.99949     2.10111    0.00834     3.10894
      C    5   -0.05271      0.99952     2.04304    0.01015     3.05271
      C    6   -0.02177      0.99955     2.00834    0.01389     3.02177
      N    7   -0.22597      0.99966     2.71672    0.00958     3.72597
      C    8    0.05520      0.99951     1.93105    0.01424     2.94480
      C    9   -0.06160      0.99947     2.05236    0.00976     3.06160
      C   10   -0.07090      0.99954     2.06300    0.00836     3.07090
      C   11   -0.14154      0.99953     2.13328    0.00873     3.14154
      C   12   -0.01954      0.99956     2.00832    0.01166     3.01954
      O   13   -0.37095      0.99991     3.36393    0.00711     4.37095
      H   14    0.09030      0.00000     0.40860    0.00109     0.40970
      H   15    0.08077      0.00000     0.41791    0.00132     0.41923
      H   16    0.08399      0.00000     0.41432    0.00169     0.41601
      H   17    0.09973      0.00000     0.39874    0.00153     0.40027
      H   18    0.09636      0.00000     0.40276    0.00089     0.40364
      H   19    0.20449      0.00000     0.29122    0.00429     0.29551
      H   20    0.09525      0.00000     0.40284    0.00191     0.40475
      H   21    0.10002      0.00000     0.39864    0.00134     0.39998
      H   22    0.08886      0.00000     0.40918    0.00196     0.41114
      H   23    0.08333      0.00000     0.41489    0.00178     0.41667
      H   24    0.23038      0.00000     0.26171    0.00791     0.26962
 =======================================================================
   * Total *    0.00000     12.99459    33.84626    0.15915    47.00000

 Normal termination of Gaussian 16 at Wed Dec  9 23:27:37 2020.
