 Gaussian 16, Revision A.03,

 -----------------------------------------------------------
 # opt freq B3LYP/6-31G(d) empiricaldispersion=gd3bj scf=xqc
 -----------------------------------------------------------

 -------------------------------
 CID_110268268_JID_6621_neutraal
 -------------------------------
 Symbolic Z-matrix:
 Charge =  0 Multiplicity = 1

 SCF Done:  E(RB3LYP) =  -723.105405784     A.U. after   15 cycles
 SCF Done:  E(RB3LYP) =  -723.110963240     A.U. after   12 cycles
 SCF Done:  E(RB3LYP) =  -723.111747846     A.U. after   12 cycles
 SCF Done:  E(RB3LYP) =  -723.112724092     A.U. after   12 cycles
 SCF Done:  E(RB3LYP) =  -723.113442308     A.U. after   12 cycles
 SCF Done:  E(RB3LYP) =  -723.113897866     A.U. after   11 cycles
 SCF Done:  E(RB3LYP) =  -723.114184942     A.U. after   12 cycles
 SCF Done:  E(RB3LYP) =  -723.114290601     A.U. after   11 cycles
 SCF Done:  E(RB3LYP) =  -723.114358233     A.U. after   10 cycles
 SCF Done:  E(RB3LYP) =  -723.114399457     A.U. after   10 cycles
 SCF Done:  E(RB3LYP) =  -723.115149209     A.U. after    9 cycles
 SCF Done:  E(RB3LYP) =  -723.115152233     A.U. after    9 cycles
 SCF Done:  E(RB3LYP) =  -723.115152783     A.U. after    9 cycles
 SCF Done:  E(RB3LYP) =  -723.115153131     A.U. after    7 cycles
 SCF Done:  E(RB3LYP) =  -723.115153171     A.U. after    6 cycles
 Optimization completed.
    -- Stationary point found.
 Normal termination of Gaussian 16 at Fri Dec 11 00:18:55 2020.

 --------------------------------------------------------------------
 #N Geom=AllCheck Guess=TCheck SCRF=Check GenChk RB3LYP/6-31G(d) Freq
 --------------------------------------------------------------------

 Structure from the checkpoint file:  "JID_6621.chk"
 -------------------------------
 CID_110268268_JID_6621_neutraal
 -------------------------------
 Charge =  0 Multiplicity = 1

 SCF Done:  E(RB3LYP) =  -723.115153171     A.U. after    1 cycles

  Exact polarizability: 193.733  -7.229 129.783  12.287   4.381 103.218
 Approx polarizability: 261.082 -16.897 203.833  25.235  12.338 160.060

                      1                      2                      3
                      A                      A                      A
 Frequencies --     23.5420                46.2269                70.7166
 Red. masses --      4.6878                 4.0030                 5.9782
 Frc consts  --      0.0015                 0.0050                 0.0176
 IR Inten    --      1.3323                 1.8700                 1.9540

                      4                      5                      6
                      A                      A                      A
 Frequencies --     80.2326                93.0522               113.6104
 Red. masses --      1.4720                 1.8853                 2.7682
 Frc consts  --      0.0056                 0.0096                 0.0211
 IR Inten    --      2.8658                 2.1430                 2.0005

                      7                      8                      9
                      A                      A                      A
 Frequencies --    130.5399               175.3946               190.8017
 Red. masses --      2.7992                 1.8208                 2.0721
 Frc consts  --      0.0281                 0.0330                 0.0444
 IR Inten    --      0.6784                 2.7547                 1.6212

                     10                     11                     12
                      A                      A                      A
 Frequencies --    208.6099               227.2741               249.0213
 Red. masses --      3.1380                 4.4967                 3.3213
 Frc consts  --      0.0805                 0.1369                 0.1213
 IR Inten    --      4.9647                 4.8255                10.2047

                     13                     14                     15
                      A                      A                      A
 Frequencies --    262.5308               296.5709               348.0592
 Red. masses --      3.2132                 2.3304                 3.0240
 Frc consts  --      0.1305                 0.1208                 0.2158
 IR Inten    --      0.9424                 0.2152                 0.9589

                     16                     17                     18
                      A                      A                      A
 Frequencies --    375.1735               435.3941               456.7198
 Red. masses --      3.7318                 5.5132                 2.5639
 Frc consts  --      0.3095                 0.6158                 0.3151
 IR Inten    --      4.1679                 7.3477                 5.2677

                     19                     20                     21
                      A                      A                      A
 Frequencies --    504.6829               552.8954               597.9842
 Red. masses --      4.1918                 5.6858                 1.5647
 Frc consts  --      0.6291                 1.0241                 0.3297
 IR Inten    --      3.8261                 7.7882                60.2434

                     22                     23                     24
                      A                      A                      A
 Frequencies --    621.9681               627.6122               649.1459
 Red. masses --      3.2046                 3.4681                 2.2186
 Frc consts  --      0.7304                 0.8049                 0.5508
 IR Inten    --      8.9391                11.9919                20.9237

                     25                     26                     27
                      A                      A                      A
 Frequencies --    716.7726               742.3979               779.4313
 Red. masses --      4.9139                 4.1779                 3.5988
 Frc consts  --      1.4874                 1.3567                 1.2881
 IR Inten    --      1.4272                19.0717                 9.8436

                     28                     29                     30
                      A                      A                      A
 Frequencies --    788.4523               812.7605               843.0702
 Red. masses --      3.3967                 4.0888                 1.6349
 Frc consts  --      1.2441                 1.5914                 0.6846
 IR Inten    --      8.5267                 4.9900                20.7426

                     31                     32                     33
                      A                      A                      A
 Frequencies --    893.1126               902.9581               953.8199
 Red. masses --      2.4760                 2.7139                 2.2551
 Frc consts  --      1.1636                 1.3037                 1.2088
 IR Inten    --      5.2899                 1.5689                11.3399

                     34                     35                     36
                      A                      A                      A
 Frequencies --    991.7854               994.6644               996.4489
 Red. masses --      1.4492                 1.6877                 5.0392
 Frc consts  --      0.8399                 0.9838                 2.9479
 IR Inten    --      0.6302                 8.7658                29.7095

                     37                     38                     39
                      A                      A                      A
 Frequencies --   1011.0739              1023.7596              1067.4426
 Red. masses --      1.9834                 1.8870                 2.0037
 Frc consts  --      1.1946                 1.1653                 1.3452
 IR Inten    --      0.0885                 1.7649                27.7997

                     40                     41                     42
                      A                      A                      A
 Frequencies --   1070.3922              1075.7220              1107.7203
 Red. masses --      2.2873                 1.6109                 2.4955
 Frc consts  --      1.5440                 1.0983                 1.8041
 IR Inten    --     43.7887                 6.0742                 5.8961

                     43                     44                     45
                      A                      A                      A
 Frequencies --   1127.4906              1155.4068              1192.5830
 Red. masses --      1.9315                 1.2986                 2.0616
 Frc consts  --      1.4467                 1.0214                 1.7276
 IR Inten    --      6.5793                10.7784                12.7076

                     46                     47                     48
                      A                      A                      A
 Frequencies --   1200.3391              1217.1041              1228.7546
 Red. masses --      2.4579                 1.3866                 1.8372
 Frc consts  --      2.0865                 1.2102                 1.6343
 IR Inten    --     25.9073                68.6915                34.0435

                     49                     50                     51
                      A                      A                      A
 Frequencies --   1244.3766              1267.3607              1288.9129
 Red. masses --      1.4992                 1.6695                 3.4585
 Frc consts  --      1.3678                 1.5799                 3.3852
 IR Inten    --     10.7061                12.0376                 2.3098

                     52                     53                     54
                      A                      A                      A
 Frequencies --   1323.4784              1333.1800              1346.6722
 Red. masses --      1.3204                 2.2962                 1.2411
 Frc consts  --      1.3627                 2.4045                 1.3261
 IR Inten    --      1.9993                 6.5490                 3.6340

                     55                     56                     57
                      A                      A                      A
 Frequencies --   1356.6179              1376.9072              1384.6982
 Red. masses --      1.4729                 1.6736                 1.9449
 Frc consts  --      1.5971                 1.8694                 2.1972
 IR Inten    --     15.8696                36.4166                73.7322

                     58                     59                     60
                      A                      A                      A
 Frequencies --   1388.2262              1410.4714              1435.2750
 Red. masses --      1.6791                 1.7190                 1.2622
 Frc consts  --      1.9065                 2.0149                 1.5319
 IR Inten    --     57.8429                36.6833                 8.3856

                     61                     62                     63
                      A                      A                      A
 Frequencies --   1492.0682              1493.8853              1503.2353
 Red. masses --      1.9502                 1.8896                 1.0453
 Frc consts  --      2.5581                 2.4846                 1.3918
 IR Inten    --     34.8890                42.8932                 5.0878

                     64                     65                     66
                      A                      A                      A
 Frequencies --   1506.1027              1513.0149              1523.5635
 Red. masses --      1.2302                 1.3783                 1.0943
 Frc consts  --      1.6441                 1.8590                 1.4966
 IR Inten    --     12.1811                42.9852                49.3141

                     67                     68                     69
                      A                      A                      A
 Frequencies --   1534.4287              1543.0994              1550.0548
 Red. masses --      1.1262                 1.6618                 1.4875
 Frc consts  --      1.5623                 2.3314                 2.1058
 IR Inten    --     40.7460               147.5947               101.8874

                     70                     71                     72
                      A                      A                      A
 Frequencies --   1558.1872              1565.1925              1587.0430
 Red. masses --      1.1638                 1.0844                 6.7798
 Frc consts  --      1.6648                 1.5652                10.0611
 IR Inten    --     25.9539                11.9164                92.4082

                     73                     74                     75
                      A                      A                      A
 Frequencies --   1650.8341              1783.5733              2996.5669
 Red. masses --      5.7956                 7.4368                 1.0726
 Frc consts  --      9.3059                13.9385                 5.6744
 IR Inten    --    662.2168               346.7075                56.0954

                     76                     77                     78
                      A                      A                      A
 Frequencies --   3035.6672              3048.3085              3058.4199
 Red. masses --      1.0476                 1.0748                 1.0357
 Frc consts  --      5.6881                 5.8844                 5.7078
 IR Inten    --     43.6103                32.5687                14.8260

                     79                     80                     81
                      A                      A                      A
 Frequencies --   3089.7847              3100.0732              3104.7295
 Red. masses --      1.0669                 1.0952                 1.0861
 Frc consts  --      6.0012                 6.2013                 6.1686
 IR Inten    --     11.4926                28.4336                29.6025

                     82                     83                     84
                      A                      A                      A
 Frequencies --   3119.7794              3121.8230              3139.8943
 Red. masses --      1.1005                 1.0896                 1.0976
 Frc consts  --      6.3108                 6.2567                 6.3758
 IR Inten    --     10.2323                 3.7973                11.1874

                     85                     86                     87
                      A                      A                      A
 Frequencies --   3140.6117              3143.5593              3173.1322
 Red. masses --      1.1037                 1.0950                 1.0903
 Frc consts  --      6.4140                 6.3753                 6.4682
 IR Inten    --     17.5146                31.6425                43.7356

                     88                     89                     90
                      A                      A                      A
 Frequencies --   3175.7754              3226.7062              3591.2003
 Red. masses --      1.0973                 1.0909                 1.0754
 Frc consts  --      6.5206                 6.6919                 8.1717
 IR Inten    --      1.6338                 8.8302                21.1926

 - Thermochemistry -
 -------------------
 Temperature   298.150 Kelvin.  Pressure   1.00000 Atm.
 Atom     1 has atomic number  6 and mass  12.00000

 Molecular mass:   220.13241 amu.
 Principal axes and moments of inertia in atomic units:
                           1         2         3
     Eigenvalues --  1376.069346953.018657408.33075
           X            0.99996   0.00931  -0.00059
           Y           -0.00931   0.99988  -0.01221
           Z            0.00048   0.01221   0.99993
 This molecule is an asymmetric top.
 Rotational symmetry number  1.
 Warning -- assumption of classical behavior for rotation
           may cause significant error
 Rotational temperatures (Kelvin)      0.06294     0.01246     0.01169
 Rotational constants (GHZ):           1.31152     0.25956     0.24361
 Zero-point vibrational energy     714515.8 (Joules/Mol)
                                  170.77337 (Kcal/Mol)
 Warning -- explicit consideration of  21 degrees of freedom as
           vibrations may cause significant error
 Vibrational temperatures:     33.87    66.51   101.75   115.44   133.88
          (Kelvin)            163.46   187.82   252.35   274.52   300.14
                              327.00   358.29   377.72   426.70   500.78
                              539.79   626.44   657.12   726.13   795.49
                              860.37   894.87   902.99   933.98  1031.28
                             1068.15  1121.43  1134.41  1169.38  1212.99
                             1284.99  1299.16  1372.33  1426.96  1431.10
                             1433.67  1454.71  1472.96  1535.81  1540.06
                             1547.72  1593.76  1622.21  1662.37  1715.86
                             1727.02  1751.14  1767.90  1790.38  1823.45
                             1854.46  1904.19  1918.15  1937.56  1951.87
                             1981.06  1992.27  1997.35  2029.35  2065.04
                             2146.75  2149.37  2162.82  2166.95  2176.89
                             2192.07  2207.70  2220.18  2230.18  2241.88
                             2251.96  2283.40  2375.18  2566.16  4311.39
                             4367.65  4385.84  4400.38  4445.51  4460.31
                             4467.01  4488.67  4491.61  4517.61  4518.64
                             4522.88  4565.43  4569.23  4642.51  5166.94

 Zero-point correction=                           0.272145 (Hartree/Particle)
 Thermal correction to Energy=                    0.287497
 Thermal correction to Enthalpy=                  0.288441
 Thermal correction to Gibbs Free Energy=         0.228122
 Sum of electronic and zero-point Energies=           -722.843008
 Sum of electronic and thermal Energies=              -722.827657
 Sum of electronic and thermal Enthalpies=            -722.826712
 Sum of electronic and thermal Free Energies=         -722.887031

                     E (Thermal)             CV                S
                      KCal/Mol        Cal/Mol-Kelvin    Cal/Mol-Kelvin
 Total                  180.407             56.677            126.952
 Electronic               0.000              0.000              0.000
 Translational            0.889              2.981             42.070
 Rotational               0.889              2.981             32.627
 Vibrational            178.629             50.715             52.254
 Vibration     1          0.593              1.985              6.310
 Vibration     2          0.595              1.979              4.973
 Vibration     3          0.598              1.968              4.133
 Vibration     4          0.600              1.963              3.885
 Vibration     5          0.602              1.954              3.595
 Vibration     6          0.607              1.938              3.206
 Vibration     7          0.612              1.923              2.938
 Vibration     8          0.627              1.873              2.377
 Vibration     9          0.634              1.853              2.220
 Vibration    10          0.642              1.828              2.056
 Vibration    11          0.651              1.799              1.900
 Vibration    12          0.662              1.764              1.737
 Vibration    13          0.670              1.741              1.645
 Vibration    14          0.690              1.680              1.436
 Vibration    15          0.726              1.579              1.175
 Vibration    16          0.746              1.523              1.059
 Vibration    17          0.796              1.393              0.841
 Vibration    18          0.815              1.346              0.776
 Vibration    19          0.860              1.240              0.647
 Vibration    20          0.908              1.133              0.538
 Vibration    21          0.956              1.036              0.453

 Optimization completed.
    -- Stationary point found.
 Normal termination of Gaussian 16 at Fri Dec 11 00:29:39 2020.

 ----------------------------------------------------------------------
 # B3LYP/6-311++G(d,p) empiricaldispersion=gd3bj scf=xqc pop=npa geom=c
 heck
 ----------------------------------------------------------------------

 ---------------------------------------
 CID_110268268_JID_6621_Energie_neutraal
 ---------------------------------------
 Structure from the checkpoint file:  "JID_6621.chk"
 Charge =  0 Multiplicity = 1

 SCF Done:  E(RB3LYP) =  -723.315407413     A.U. after   15 cycles
 Normal termination of Gaussian 16 at Fri Dec 11 00:34:00 2020.

 ----------------------------------------------------------------------
 # B3LYP/6-311++G(d,p) empiricaldispersion=gd3bj scf=xqc pop=npa geom=c
 heck
 ----------------------------------------------------------------------

 -------------------------------------
 CID_110268268_JID_6621_Energie_kation
 -------------------------------------
 Structure from the checkpoint file:  "JID_6621.chk"
 Charge =  1 Multiplicity = 2

 SCF Done:  E(UB3LYP) =  -723.018275435     A.U. after   30 cycles
 Normal termination of Gaussian 16 at Fri Dec 11 00:45:48 2020.
 Gaussian 16:  ES64L-G16RevA.03 25-Dec-2016

 ----------------------------------------------------------------------
 # B3LYP/6-311++G(d,p) empiricaldispersion=gd3bj scf=xqc pop=npa geom=c
 heck
 ----------------------------------------------------------------------

 ------------------------------------
 CID_110268268_JID_6621_Energie_anion
 ------------------------------------
 Structure from the checkpoint file:  "JID_6621.chk"
 Charge = -1 Multiplicity = 2

                         Standard orientation:
 ---------------------------------------------------------------------
 Center     Atomic      Atomic             Coordinates (Angstroms)
 Number     Number       Type             X           Y           Z
 ---------------------------------------------------------------------
      1          6           0        4.852683    0.881122    0.707715
      2          6           0        3.627429    0.159211    0.218297
      3          6           0        2.377066    0.760048    0.218240
      4          6           0        1.288125   -0.002146   -0.260105
      5          7           0        1.472950   -1.257858   -0.717990
      6          6           0        2.721760   -1.723377   -0.666409
      7          7           0        3.815101   -1.104085   -0.225871
      8          7           0        0.006202    0.465821   -0.273329
      9          6           0       -0.367176    1.844365    0.013389
     10          6           0       -1.888539    1.765466    0.186227
     11          6           0       -2.333171    0.592472   -0.731907
     12          6           0       -1.049266   -0.230534   -1.011846
     13          6           0       -3.516410   -0.193814   -0.166277
     14          8           0       -4.611950   -0.150498   -0.714086
     15          7           0       -3.350606   -0.902638    0.997505
     16          6           0       -2.141618   -1.255200    1.724154
     17          1           0        5.305554    0.328830    1.538499
     18          1           0        5.602897    0.928543   -0.089114
     19          1           0        4.623220    1.897337    1.040818
     20          1           0        2.254545    1.778775    0.565179
     21          1           0        2.860380   -2.738771   -1.035638
     22          1           0       -0.087455    2.515801   -0.814433
     23          1           0        0.132928    2.201231    0.918100
     24          1           0       -2.136084    1.553484    1.230051
     25          1           0       -2.386857    2.699615   -0.083186
     26          1           0       -2.713380    0.992957   -1.672472
     27          1           0       -1.105443   -1.270631   -0.688683
     28          1           0       -0.823925   -0.249005   -2.085678
     29          1           0       -4.197883   -1.393781    1.255961
     30          1           0       -2.356366   -1.267132    2.797687
     31          1           0       -1.754964   -2.242612    1.437478
     32          1           0       -1.352391   -0.525014    1.547046
 ---------------------------------------------------------------------

 SCF Done:  E(UB3LYP) =  -723.309247687     A.U. after   33 cycles
 SCF Done:  E(UB3LYP) =  -723.309247687     a.u. after    1 cycles

 The electronic state is 2-A.
 Alpha  occ. eigenvalues --  -18.99494 -14.25041 -14.24539 -14.21233 -14.20708
 Alpha  occ. eigenvalues --  -10.18137 -10.16060 -10.14114 -10.13163 -10.11679
 Alpha  occ. eigenvalues --  -10.11514 -10.11124 -10.09831 -10.08796 -10.08335
 Alpha  occ. eigenvalues --  -10.08154  -0.94659  -0.90389  -0.86411  -0.82780
 Alpha  occ. eigenvalues --   -0.78918  -0.72281  -0.68726  -0.66029  -0.63262
 Alpha  occ. eigenvalues --   -0.61711  -0.57617  -0.55535  -0.52261  -0.49410
 Alpha  occ. eigenvalues --   -0.48447  -0.44902  -0.42972  -0.40815  -0.39849
 Alpha  occ. eigenvalues --   -0.38190  -0.37192  -0.36371  -0.36062  -0.35253
 Alpha  occ. eigenvalues --   -0.34435  -0.33061  -0.31995  -0.31713  -0.31066
 Alpha  occ. eigenvalues --   -0.30663  -0.29972  -0.29779  -0.29654  -0.27862
 Alpha  occ. eigenvalues --   -0.25681  -0.24472  -0.23022  -0.20363  -0.19066
 Alpha  occ. eigenvalues --   -0.16802  -0.16349  -0.16162  -0.13288   0.03776
 Alpha virt. eigenvalues --    0.05887   0.06187   0.06755   0.07304   0.07802
 Alpha virt. eigenvalues --    0.08337   0.09037   0.09430   0.09807   0.09979
 Alpha virt. eigenvalues --    0.10297   0.10785   0.10934   0.12028   0.12595

  Beta  occ. eigenvalues --  -18.99491 -14.25048 -14.24525 -14.21236 -14.20681
  Beta  occ. eigenvalues --  -10.18137 -10.16025 -10.14104 -10.13161 -10.11663
  Beta  occ. eigenvalues --  -10.11467 -10.11076 -10.09824 -10.08770 -10.08317
  Beta  occ. eigenvalues --  -10.08136  -0.94651  -0.90360  -0.86387  -0.82753
  Beta  occ. eigenvalues --   -0.78887  -0.72248  -0.68696  -0.65976  -0.63226
  Beta  occ. eigenvalues --   -0.61638  -0.57570  -0.55501  -0.52201  -0.49351
  Beta  occ. eigenvalues --   -0.48411  -0.44856  -0.42944  -0.40758  -0.39793
  Beta  occ. eigenvalues --   -0.38158  -0.37143  -0.36332  -0.36039  -0.35202
  Beta  occ. eigenvalues --   -0.34400  -0.33026  -0.31962  -0.31679  -0.31016
  Beta  occ. eigenvalues --   -0.30628  -0.29940  -0.29739  -0.29627  -0.27809
  Beta  occ. eigenvalues --   -0.25653  -0.24439  -0.22904  -0.20342  -0.19022
  Beta  occ. eigenvalues --   -0.16788  -0.16328  -0.16145  -0.13243
  Beta virt. eigenvalues --    0.06120   0.06230   0.06815   0.07146   0.07927
  Beta virt. eigenvalues --    0.08042   0.08781   0.09415   0.09870   0.10181
  Beta virt. eigenvalues --    0.10290   0.10535   0.10876   0.11309   0.12096

 Mulliken charges and spin densities:
               1          2
     1  C    0.385646  -0.985038
     2  C   -0.947991  -0.057831
     3  C    0.428437   0.627146
     4  C    0.002905  -0.706538
     5  N   -0.235304   0.084866
     6  C   -0.365104   0.429985
     7  N   -0.109303   0.038599
     8  N    0.155981   0.097764
     9  C    1.641899  -1.675218
    10  C   -0.358409  -0.491495
    11  C    0.289919   0.212104
    12  C    0.434965  -0.885576
    13  C   -0.586210   0.446609
    14  O   -0.359741   0.007308
    15  N   -0.409813   0.166026
    16  C    0.609638  -1.055983
    17  H    0.077133   0.082882
    18  H    0.022844   0.132500
    19  H   -0.199060   0.340469
    20  H   -0.581774   0.788530
    21  H    0.076674   0.112295
    22  H   -0.248157   0.452000
    23  H   -0.400599   0.548680
    24  H   -0.043314   0.238269
    25  H   -0.368814   0.554821
    26  H    0.124945   0.153571
    27  H    0.258289  -0.033661
    28  H    0.046213   0.161498
    29  H    0.046446   0.265139
    30  H   -0.700435   0.869387
    31  H   -0.064772   0.233364
    32  H    0.376868  -0.152472
 Sum of Mulliken charges =  -1.00000   1.00000

 Dipole moment (field-independent basis, Debye):
    X=              2.1727    Y=             -2.7835    Z=             -2.3223  Tot=              4.2263
 Quadrupole moment (field-independent basis, Debye-Ang):
   XX=           -179.2171   YY=           -140.5905   ZZ=           -134.6636
   XY=             -1.0045   XZ=             -0.1470   YZ=              0.1430

 Summary of Natural Population Analysis:

                                       Natural Population
                Natural  -----------------------------------------------
    Atom  No    Charge         Core      Valence    Rydberg      Total
 -----------------------------------------------------------------------
      C    1   -0.30016      0.99963     2.29390    0.00663     3.30016
      C    2    0.12436      0.99955     1.86192    0.01417     2.87564
      C    3   -0.16214      0.99946     2.15476    0.00792     3.16214
      C    4    0.22961      0.99951     1.75583    0.01504     2.77039
      N    5   -0.27606      0.99968     2.76755    0.00883     3.77606
      C    6    0.15310      0.99966     1.82888    0.01837     2.84690
      N    7   -0.27488      0.99968     2.76459    0.01060     3.77488
      N    8   -0.24737      0.99964     2.73617    0.01156     3.74737
      C    9   -0.08217      0.99962     2.07156    0.01100     3.08217
      C   10   -0.18721      0.99962     2.17902    0.00857     3.18721
      C   11   -0.15542      0.99955     2.14426    0.01161     3.15542
      C   12   -0.07929      0.99961     2.07013    0.00956     3.07929
      C   13    0.34826      0.99963     1.62943    0.02268     2.65174
      O   14   -0.32597      0.99988     3.32045    0.00564     4.32597
      N   15   -0.31806      0.99967     2.80837    0.01002     3.81806
      C   16   -0.18362      0.99963     2.17530    0.00869     3.18362
      H   17    0.10800      0.00000     0.39100    0.00100     0.39200
      H   18    0.10773      0.00000     0.39125    0.00103     0.39227
      H   19    0.10338      0.00000     0.39571    0.00092     0.39662
      H   20    0.11202      0.00000     0.38620    0.00178     0.38798
      H   21    0.08030      0.00000     0.41864    0.00106     0.41970
      H   22    0.09415      0.00000     0.40306    0.00279     0.40585
      H   23    0.10637      0.00000     0.39072    0.00291     0.39363
      H   24    0.10356      0.00000     0.39456    0.00188     0.39644
      H   25    0.10839      0.00000     0.39045    0.00116     0.39161
      H   26    0.11498      0.00000     0.38389    0.00113     0.38502
      H   27    0.10823      0.00000     0.38967    0.00210     0.39177
      H   28    0.09917      0.00000     0.39965    0.00118     0.40083
      H   29    0.19268      0.00000     0.30484    0.00247     0.30732
      H   30    0.10088      0.00000     0.39714    0.00198     0.39912
      H   31    0.09241      0.00000     0.40633    0.00125     0.40759
      H   32    0.10476      0.00000     0.39283    0.00241     0.39524
 =======================================================================
   * Total *   -0.00000     15.99403    42.79805    0.20792    59.00000

 Normal termination of Gaussian 16 at Fri Dec 11 00:59:02 2020.
