 Gaussian 16, Revision A.03,

 -----------------------------------------------------------
 # opt freq B3LYP/6-31G(d) empiricaldispersion=gd3bj scf=xqc
 -----------------------------------------------------------

 -------------------------------
 CID_128261722_JID_6257_neutraal
 -------------------------------
 Symbolic Z-matrix:
 Charge =  0 Multiplicity = 1

 SCF Done:  E(RB3LYP) =  -1470.49082824     A.U. after   14 cycles
 SCF Done:  E(RB3LYP) =  -1470.49911932     A.U. after   12 cycles
 SCF Done:  E(RB3LYP) =  -1470.50054041     A.U. after   12 cycles
 SCF Done:  E(RB3LYP) =  -1470.50123953     A.U. after   12 cycles
 SCF Done:  E(RB3LYP) =  -1470.50204214     A.U. after   12 cycles
 SCF Done:  E(RB3LYP) =  -1470.50278633     A.U. after   12 cycles
 SCF Done:  E(RB3LYP) =  -1470.50302286     A.U. after   12 cycles
 SCF Done:  E(RB3LYP) =  -1470.50282536     A.U. after   12 cycles
 SCF Done:  E(RB3LYP) =  -1470.50319715     A.U. after   12 cycles
 SCF Done:  E(RB3LYP) =  -1470.50324557     A.U. after   12 cycles
 SCF Done:  E(RB3LYP) =  -1470.50331877     A.U. after   10 cycles
 SCF Done:  E(RB3LYP) =  -1470.50332740     A.U. after   11 cycles
 SCF Done:  E(RB3LYP) =  -1470.50332811     A.U. after    9 cycles
 SCF Done:  E(RB3LYP) =  -1470.50332838     A.U. after    7 cycles
 SCF Done:  E(RB3LYP) =  -1470.50332832     A.U. after    9 cycles
 SCF Done:  E(RB3LYP) =  -1470.50332843     A.U. after    7 cycles
 Optimization completed.
    -- Stationary point found.
 Normal termination of Gaussian 16 at Thu Dec 10 22:04:40 2020.

 --------------------------------------------------------------------
 #N Geom=AllCheck Guess=TCheck SCRF=Check GenChk RB3LYP/6-31G(d) Freq
 --------------------------------------------------------------------

 Structure from the checkpoint file:  "JID_6257.chk"
 -------------------------------
 CID_128261722_JID_6257_neutraal
 -------------------------------
 Charge =  0 Multiplicity = 1

 SCF Done:  E(RB3LYP) =  -1470.50332843     A.U. after    1 cycles

  Exact polarizability: 175.319   5.346 149.850  -3.320  -2.672 126.672
 Approx polarizability: 215.014   5.909 229.536  -3.630  -6.537 207.520

                      1                      2                      3
                      A                      A                      A
 Frequencies --     14.9721                33.7816                43.7890
 Red. masses --      3.9220                 4.4025                 4.9187
 Frc consts  --      0.0005                 0.0030                 0.0056
 IR Inten    --      0.1616                 0.4178                 0.6364

                      4                      5                      6
                      A                      A                      A
 Frequencies --     68.0371                86.3514                90.8787
 Red. masses --      4.8847                 2.5970                 2.6414
 Frc consts  --      0.0133                 0.0114                 0.0129
 IR Inten    --      0.7472                 1.0567                 1.7724

                      7                      8                      9
                      A                      A                      A
 Frequencies --    134.6457               165.1583               170.6530
 Red. masses --      4.1912                 2.2393                 1.9713
 Frc consts  --      0.0448                 0.0360                 0.0338
 IR Inten    --      2.2725                 0.6025                 0.9121

                     10                     11                     12
                      A                      A                      A
 Frequencies --    196.7061               207.3067               224.2638
 Red. masses --      2.1592                 1.3121                 1.2582
 Frc consts  --      0.0492                 0.0332                 0.0373
 IR Inten    --      2.1985                 3.5370                 0.2154

                     13                     14                     15
                      A                      A                      A
 Frequencies --    231.6107               257.8217               261.8105
 Red. masses --      2.1707                 2.8728                 5.1163
 Frc consts  --      0.0686                 0.1125                 0.2066
 IR Inten    --      3.6617                 1.0139                 1.3577

                     16                     17                     18
                      A                      A                      A
 Frequencies --    294.8230               296.9633               304.5180
 Red. masses --      2.6557                 4.1184                 2.8017
 Frc consts  --      0.1360                 0.2140                 0.1531
 IR Inten    --      2.8660                 1.4825                 0.6550

                     19                     20                     21
                      A                      A                      A
 Frequencies --    322.2140               332.0271               373.8089
 Red. masses --      3.5193                 2.9131                 2.5111
 Frc consts  --      0.2153                 0.1892                 0.2067
 IR Inten    --      0.5020                 2.7927                 3.4235

                     22                     23                     24
                      A                      A                      A
 Frequencies --    401.8792               423.4045               435.0861
 Red. masses --      3.7095                 2.6459                 2.5486
 Frc consts  --      0.3530                 0.2795                 0.2843
 IR Inten    --      3.1826                 4.4638                 2.2303

                     25                     26                     27
                      A                      A                      A
 Frequencies --    459.5906               499.1811               512.6834
 Red. masses --      3.9717                 3.7728                 4.6201
 Frc consts  --      0.4943                 0.5539                 0.7155
 IR Inten    --      5.2596                26.8329                25.1234

                     28                     29                     30
                      A                      A                      A
 Frequencies --    561.1237               577.2378               677.0194
 Red. masses --      3.9487                 4.5071                 3.5851
 Frc consts  --      0.7325                 0.8848                 0.9682
 IR Inten    --      1.4914                81.3146                 2.1980

                     31                     32                     33
                      A                      A                      A
 Frequencies --    688.6616               739.1248               795.1606
 Red. masses --      2.9424                 3.8284                 3.5956
 Frc consts  --      0.8222                 1.2323                 1.3395
 IR Inten    --     57.2283                 2.7951                72.5828

                     34                     35                     36
                      A                      A                      A
 Frequencies --    832.9092               837.6348               846.6624
 Red. masses --      2.6182                 1.5837                 2.7309
 Frc consts  --      1.0702                 0.6547                 1.1534
 IR Inten    --     13.5654                17.2363                32.3087

                     37                     38                     39
                      A                      A                      A
 Frequencies --    864.1405               879.9349               919.3381
 Red. masses --      1.7695                 1.9397                 1.9181
 Frc consts  --      0.7785                 0.8849                 0.9552
 IR Inten    --      0.8448                11.2736                21.8720

                     40                     41                     42
                      A                      A                      A
 Frequencies --    928.9469               961.2933               974.2333
 Red. masses --      2.1133                 1.7309                 1.9241
 Frc consts  --      1.0745                 0.9424                 1.0760
 IR Inten    --     44.8909                 5.9744                20.2460

                     43                     44                     45
                      A                      A                      A
 Frequencies --   1021.8371              1041.6309              1066.7225
 Red. masses --      2.5862                 2.4257                 1.9317
 Frc consts  --      1.5910                 1.5506                 1.2951
 IR Inten    --     39.9699                20.2921                84.0581

                     46                     47                     48
                      A                      A                      A
 Frequencies --   1079.9658              1084.9647              1105.4212
 Red. masses --      2.4022                 1.8544                 1.6339
 Frc consts  --      1.6507                 1.2861                 1.1764
 IR Inten    --     34.7207                18.5950                 5.4038

                     49                     50                     51
                      A                      A                      A
 Frequencies --   1124.1262              1128.3543              1174.6398
 Red. masses --      4.0147                 2.8098                 2.8641
 Frc consts  --      2.9891                 2.1078                 2.3283
 IR Inten    --    117.1976                24.9196               116.8770

                     52                     53                     54
                      A                      A                      A
 Frequencies --   1181.9088              1190.4531              1202.2905
 Red. masses --      1.9770                 1.2930                 1.8498
 Frc consts  --      1.6272                 1.0796                 1.5754
 IR Inten    --      3.1399                 2.3869                34.4082

                     55                     56                     57
                      A                      A                      A
 Frequencies --   1221.9645              1239.3165              1245.6681
 Red. masses --      1.3229                 1.3647                 1.5741
 Frc consts  --      1.1638                 1.2350                 1.4391
 IR Inten    --      7.8995                 1.7849                24.9404

                     58                     59                     60
                      A                      A                      A
 Frequencies --   1250.3814              1290.0918              1293.1905
 Red. masses --      1.8705                 1.2415                 1.6260
 Frc consts  --      1.7230                 1.2174                 1.6021
 IR Inten    --     13.7745                 7.8570                31.0487

                     61                     62                     63
                      A                      A                      A
 Frequencies --   1312.8893              1337.0444              1349.5038
 Red. masses --      1.5539                 3.2995                 1.3035
 Frc consts  --      1.5781                 3.4753                 1.3986
 IR Inten    --     19.6118               124.3637                 1.3741

                     64                     65                     66
                      A                      A                      A
 Frequencies --   1355.6150              1384.3310              1396.8337
 Red. masses --      1.2168                 1.2882                 1.3864
 Frc consts  --      1.3175                 1.4545                 1.5938
 IR Inten    --     39.1113                19.1553                15.9303

                     67                     68                     69
                      A                      A                      A
 Frequencies --   1406.7535              1418.7368              1421.9694
 Red. masses --      1.3254                 1.2372                 1.2162
 Frc consts  --      1.5453                 1.4672                 1.4489
 IR Inten    --     17.5498                 5.2456                11.3042

                     70                     71                     72
                      A                      A                      A
 Frequencies --   1430.0842              1438.8645              1442.2736
 Red. masses --      1.2945                 1.2646                 1.2261
 Frc consts  --      1.5598                 1.5425                 1.5026
 IR Inten    --      6.0965                12.2721                 6.1359

                     73                     74                     75
                      A                      A                      A
 Frequencies --   1480.9166              1491.0000              1498.3698
 Red. masses --      1.0888                 1.0942                 1.0807
 Frc consts  --      1.4068                 1.4332                 1.4295
 IR Inten    --      2.8233                 5.9185                 1.8644

                     76                     77                     78
                      A                      A                      A
 Frequencies --   1501.4001              1502.6755              1518.7051
 Red. masses --      1.1048                 1.1021                 1.0577
 Frc consts  --      1.4673                 1.4663                 1.4373
 IR Inten    --      3.5498                 4.2030                 8.4041

                     79                     80                     81
                      A                      A                      A
 Frequencies --   1519.8621              1522.2138              1529.5376
 Red. masses --      1.0838                 1.0533                 1.0575
 Frc consts  --      1.4751                 1.4380                 1.4577
 IR Inten    --      8.7884                 2.7356                 4.1615

                     82                     83                     84
                      A                      A                      A
 Frequencies --   1529.9755              1537.8966              1540.9895
 Red. masses --      1.0439                 1.0650                 1.0500
 Frc consts  --      1.4397                 1.4841                 1.4691
 IR Inten    --      8.5764                 3.6768                11.0024

                     85                     86                     87
                      A                      A                      A
 Frequencies --   3012.1155              3023.1725              3040.7572
 Red. masses --      1.0375                 1.0709                 1.0394
 Frc consts  --      5.5462                 5.7668                 5.6624
 IR Inten    --     42.7759                21.4666                22.3500

                     88                     89                     90
                      A                      A                      A
 Frequencies --   3044.2012              3050.4609              3060.0528
 Red. masses --      1.0640                 1.0637                 1.0774
 Frc consts  --      5.8097                 5.8319                 5.9438
 IR Inten    --     19.6463                27.4895                17.0771

                     91                     92                     93
                      A                      A                      A
 Frequencies --   3065.2530              3069.3477              3078.8730
 Red. masses --      1.0681                 1.0639                 1.0838
 Frc consts  --      5.9128                 5.9056                 6.0534
 IR Inten    --     43.4291                57.2383                 6.5498

                     94                     95                     96
                      A                      A                      A
 Frequencies --   3084.1617              3097.9823              3099.2171
 Red. masses --      1.0606                 1.0981                 1.0840
 Frc consts  --      5.9441                 6.2096                 6.1343
 IR Inten    --      4.6725                19.4389                 4.2688

                     97                     98                     99
                      A                      A                      A
 Frequencies --   3103.0212              3108.6702              3122.0500
 Red. masses --      1.1011                 1.0993                 1.1022
 Frc consts  --      6.2468                 6.2591                 6.3296
 IR Inten    --      2.1189                35.3492                28.5237

                    100                    101                    102
                      A                      A                      A
 Frequencies --   3131.9752              3138.9841              3141.7685
 Red. masses --      1.1004                 1.0929                 1.0992
 Frc consts  --      6.3599                 6.3444                 6.3924
 IR Inten    --     17.1368                12.1015                24.7797

                    103                    104                    105
                      A                      A                      A
 Frequencies --   3144.2278              3153.7350              3167.5698
 Red. masses --      1.1048                 1.0983                 1.0979
 Frc consts  --      6.4352                 6.4358                 6.4905
 IR Inten    --     14.9600                 2.3531                13.7966

 - Thermochemistry -
 -------------------
 Temperature   298.150 Kelvin.  Pressure   1.00000 Atm.
 Atom     1 has atomic number  6 and mass  12.00000

 Molecular mass:   267.09629 amu.
 Principal axes and moments of inertia in atomic units:
                           1         2         3
     Eigenvalues --  2330.344697057.022077876.23997
           X            0.99975   0.02044  -0.00856
           Y           -0.02063   0.99953  -0.02284
           Z            0.00809   0.02301   0.99970
 This molecule is an asymmetric top.
 Rotational symmetry number  1.
 Warning -- assumption of classical behavior for rotation
           may cause significant error
 Rotational temperatures (Kelvin)      0.03717     0.01227     0.01100
 Rotational constants (GHZ):           0.77445     0.25574     0.22914
 Zero-point vibrational energy     835450.1 (Joules/Mol)
                                  199.67737 (Kcal/Mol)
 Warning -- explicit consideration of  29 degrees of freedom as
           vibrations may cause significant error
 Vibrational temperatures:     21.54    48.60    63.00    97.89   124.24
          (Kelvin)            130.75   193.73   237.63   245.53   283.02
                              298.27   322.67   333.24   370.95   376.69
                              424.18   427.26   438.13   463.59   477.71
                              537.83   578.21   609.18   625.99   661.25
                              718.21   737.64   807.33   830.52   974.08
                              990.83  1063.44  1144.06  1198.37  1205.17
                             1218.16  1243.31  1266.03  1322.72  1336.55
                             1383.09  1401.70  1470.20  1498.67  1534.78
                             1553.83  1561.02  1590.45  1617.37  1623.45
                             1690.04  1700.50  1712.80  1729.83  1758.13
                             1783.10  1792.24  1799.02  1856.15  1860.61
                             1888.95  1923.71  1941.63  1950.43  1991.74
                             2009.73  2024.00  2041.25  2045.90  2057.57
                             2070.21  2075.11  2130.71  2145.22  2155.82
                             2160.18  2162.01  2185.08  2186.74  2190.13
                             2200.66  2201.29  2212.69  2217.14  4333.76
                             4349.67  4374.97  4379.93  4388.93  4402.73
                             4410.22  4416.11  4429.81  4437.42  4457.31
                             4459.08  4464.56  4472.68  4491.93  4506.21
                             4516.30  4520.30  4523.84  4537.52  4557.43

 Zero-point correction=                           0.318206 (Hartree/Particle)
 Thermal correction to Energy=                    0.336709
 Thermal correction to Enthalpy=                  0.337653
 Thermal correction to Gibbs Free Energy=         0.270261
 Sum of electronic and zero-point Energies=          -1470.185122
 Sum of electronic and thermal Energies=             -1470.166619
 Sum of electronic and thermal Enthalpies=           -1470.165675
 Sum of electronic and thermal Free Energies=        -1470.233067

                     E (Thermal)             CV                S
                      KCal/Mol        Cal/Mol-Kelvin    Cal/Mol-Kelvin
 Total                  211.288             68.513            141.839
 Electronic               0.000              0.000              0.000
 Translational            0.889              2.981             42.646
 Rotational               0.889              2.981             33.226
 Vibrational            209.511             62.551             65.966
 Vibration     1          0.593              1.986              7.209
 Vibration     2          0.594              1.983              5.594
 Vibration     3          0.595              1.980              5.080
 Vibration     4          0.598              1.969              4.209
 Vibration     5          0.601              1.959              3.741
 Vibration     6          0.602              1.956              3.641
 Vibration     7          0.613              1.919              2.879
 Vibration     8          0.624              1.885              2.490
 Vibration     9          0.626              1.879              2.428
 Vibration    10          0.636              1.844              2.164
 Vibration    11          0.641              1.829              2.067
 Vibration    12          0.649              1.804              1.924
 Vibration    13          0.653              1.793              1.866
 Vibration    14          0.667              1.750              1.676
 Vibration    15          0.669              1.743              1.650
 Vibration    16          0.689              1.683              1.446
 Vibration    17          0.691              1.679              1.434
 Vibration    18          0.695              1.665              1.392
 Vibration    19          0.707              1.631              1.299
 Vibration    20          0.714              1.612              1.250
 Vibration    21          0.745              1.526              1.064
 Vibration    22          0.767              1.466              0.956
 Vibration    23          0.786              1.419              0.880
 Vibration    24          0.796              1.394              0.842
 Vibration    25          0.818              1.340              0.767
 Vibration    26          0.855              1.252              0.660
 Vibration    27          0.868              1.222              0.627
 Vibration    28          0.917              1.115              0.522
 Vibration    29          0.934              1.080              0.491

                           ! Non-Optimized Parameters !
 Normal termination of Gaussian 16 at Thu Dec 10 22:20:24 2020.

 ----------------------------------------------------------------------
 # B3LYP/6-311++G(d,p) empiricaldispersion=gd3bj scf=xqc pop=npa geom=c
 heck
 ----------------------------------------------------------------------

 ---------------------------------------
 CID_128261722_JID_6257_Energie_neutraal
 ---------------------------------------
 Structure from the checkpoint file:  "JID_6257.chk"
 Charge =  0 Multiplicity = 1

 SCF Done:  E(RB3LYP) =  -1470.75271580     A.U. after   15 cycles
 Normal termination of Gaussian 16 at Thu Dec 10 22:28:54 2020.

 ----------------------------------------------------------------------
 # B3LYP/6-311++G(d,p) empiricaldispersion=gd3bj scf=xqc pop=npa geom=c
 heck
 ----------------------------------------------------------------------

 -------------------------------------
 CID_128261722_JID_6257_Energie_kation
 -------------------------------------
 Structure from the checkpoint file:  "JID_6257.chk"
 Charge =  1 Multiplicity = 2

 SCF Done:  E(UB3LYP) =  -1470.45331353     A.U. after   24 cycles
 Normal termination of Gaussian 16 at Thu Dec 10 22:48:07 2020.
 Gaussian 16:  ES64L-G16RevA.03 25-Dec-2016

 ----------------------------------------------------------------------
 # B3LYP/6-311++G(d,p) empiricaldispersion=gd3bj scf=xqc pop=npa geom=c
 heck
 ----------------------------------------------------------------------

 ------------------------------------
 CID_128261722_JID_6257_Energie_anion
 ------------------------------------
 Structure from the checkpoint file:  "JID_6257.chk"
 Charge = -1 Multiplicity = 2

                         Standard orientation:
 ---------------------------------------------------------------------
 Center     Atomic      Atomic             Coordinates (Angstroms)
 Number     Number       Type             X           Y           Z
 ---------------------------------------------------------------------
      1          6           0       -2.774277   -2.930568    0.291991
      2          6           0       -2.343202   -1.457299    0.316120
      3          6           0       -0.937272   -1.347654   -0.284476
      4          7           0       -0.371153    0.001270   -0.390318
      5          6           0       -0.848434    0.895598   -1.440218
      6          6           0       -1.992306    1.858273   -1.085491
      7         16           0       -3.307883    1.199137    0.005903
      8          6           0       -3.382289   -0.585176   -0.405893
      9         16           0        0.507194    0.637674    0.879466
     10          8           0        0.113609    2.037219    1.067783
     11          8           0        0.447947   -0.340912    1.970411
     12          6           0        2.223838    0.708927    0.289798
     13          6           0        2.913275   -0.651070    0.082790
     14          6           0        2.571399   -1.311452   -1.252551
     15          8           0        4.319357   -0.518633    0.285447
     16          6           0        5.021267    0.261484   -0.665114
     17          1           0       -3.744340   -3.062415    0.782545
     18          1           0       -2.046997   -3.564154    0.812167
     19          1           0       -2.866778   -3.301561   -0.737155
     20          1           0       -2.283641   -1.118146    1.356263
     21          1           0       -0.252316   -1.952227    0.312410
     22          1           0       -0.939201   -1.764126   -1.302059
     23          1           0       -1.154858    0.242273   -2.262910
     24          1           0       -0.009706    1.494094   -1.818339
     25          1           0       -2.429130    2.221097   -2.022899
     26          1           0       -1.594564    2.711314   -0.533635
     27          1           0       -3.349438   -0.734199   -1.492560
     28          1           0       -4.386116   -0.882032   -0.084253
     29          1           0        2.210510    1.329747   -0.610958
     30          1           0        2.741085    1.259046    1.081677
     31          1           0        2.601769   -1.306148    0.901596
     32          1           0        2.776981   -0.648129   -2.099888
     33          1           0        3.163305   -2.223790   -1.374037
     34          1           0        1.512467   -1.573718   -1.291838
     35          1           0        4.994772   -0.177123   -1.672089
     36          1           0        4.646623    1.294219   -0.722604
     37          1           0        6.059370    0.290362   -0.325970
 ---------------------------------------------------------------------

 SCF Done:  E(UB3LYP) =  -1470.74698536     A.U. after   28 cycles

 The electronic state is 2-A.
 Alpha  occ. eigenvalues --  -88.97494 -88.74390 -19.04162 -19.02977 -19.02692
 Alpha  occ. eigenvalues --  -14.25697 -10.14727 -10.12878 -10.12387 -10.12197
 Alpha  occ. eigenvalues --  -10.11841 -10.10891 -10.10562 -10.09263 -10.07944
 Alpha  occ. eigenvalues --  -10.07210  -8.03624  -7.83008  -5.99927  -5.99881
 Alpha  occ. eigenvalues --   -5.99691  -5.79425  -5.79035  -5.78357  -1.03136
 Alpha  occ. eigenvalues --   -0.95326  -0.92250  -0.85607  -0.73536  -0.71699
 Alpha  occ. eigenvalues --   -0.70792  -0.65211  -0.63446  -0.60918  -0.60723
 Alpha  occ. eigenvalues --   -0.58756  -0.53567  -0.50793  -0.48364  -0.47336
 Alpha  occ. eigenvalues --   -0.44035  -0.42540  -0.41464  -0.40268  -0.39212
 Alpha  occ. eigenvalues --   -0.38084  -0.37358  -0.36704  -0.35849  -0.34722
 Alpha  occ. eigenvalues --   -0.34117  -0.33541  -0.33069  -0.32181  -0.31508
 Alpha  occ. eigenvalues --   -0.30879  -0.30274  -0.28958  -0.28809  -0.28031
 Alpha  occ. eigenvalues --   -0.27365  -0.25731  -0.25587  -0.24830  -0.23737
 Alpha  occ. eigenvalues --   -0.22902  -0.22142  -0.21516  -0.21450  -0.17900
 Alpha  occ. eigenvalues --   -0.16537  -0.13156   0.03687
 Alpha virt. eigenvalues --    0.05662   0.06749   0.07408   0.08126   0.08554
 Alpha virt. eigenvalues --    0.08624   0.09277   0.09886   0.10465   0.10770
 Alpha virt. eigenvalues --    0.11016   0.11395   0.11798   0.12197   0.12592

  Beta  occ. eigenvalues --  -88.97492 -88.74388 -19.04157 -19.02973 -19.02689
  Beta  occ. eigenvalues --  -14.25697 -10.14724 -10.12839 -10.12348 -10.12174
  Beta  occ. eigenvalues --  -10.11823 -10.10862 -10.10553 -10.09260 -10.07918
  Beta  occ. eigenvalues --  -10.07173  -8.03622  -7.83006  -5.99923  -5.99880
  Beta  occ. eigenvalues --   -5.99689  -5.79420  -5.79032  -5.78356  -1.03129
  Beta  occ. eigenvalues --   -0.95313  -0.92245  -0.85596  -0.73514  -0.71675
  Beta  occ. eigenvalues --   -0.70758  -0.65175  -0.63401  -0.60873  -0.60661
  Beta  occ. eigenvalues --   -0.58710  -0.53533  -0.50742  -0.48315  -0.47290
  Beta  occ. eigenvalues --   -0.43999  -0.42523  -0.41427  -0.40242  -0.39183
  Beta  occ. eigenvalues --   -0.38053  -0.37333  -0.36674  -0.35811  -0.34690
  Beta  occ. eigenvalues --   -0.34085  -0.33496  -0.33027  -0.32147  -0.31475
  Beta  occ. eigenvalues --   -0.30842  -0.30243  -0.28926  -0.28778  -0.28004
  Beta  occ. eigenvalues --   -0.27332  -0.25717  -0.25554  -0.24801  -0.23723
  Beta  occ. eigenvalues --   -0.22877  -0.22135  -0.21496  -0.21425  -0.17883
  Beta  occ. eigenvalues --   -0.16514  -0.13142
  Beta virt. eigenvalues --    0.06024   0.06489   0.07438   0.07945   0.08518
  Beta virt. eigenvalues --    0.08856   0.09100   0.09429   0.10163   0.10817
  Beta virt. eigenvalues --    0.10960   0.11319   0.11762   0.12185   0.12322

 Mulliken charges and spin densities:
               1          2
     1  C    0.016955  -0.747923
     2  C   -0.860873   1.742117
     3  C    0.112104  -1.320413
     4  N   -0.083778   0.122051
     5  C    0.538756  -0.544156
     6  C   -0.525160  -0.317556
     7  S    0.194872   0.024192
     8  C    0.368151  -0.996451
     9  S    0.457688  -0.439015
    10  O    0.017003   0.019308
    11  O   -0.122912   0.000295
    12  C   -0.017097  -0.671292
    13  C   -1.640774   1.452780
    14  C    1.037132  -1.470604
    15  O   -0.111242   0.022770
    16  C    0.762511  -1.015859
    17  H   -0.045323   0.192295
    18  H   -0.033381   0.172955
    19  H   -0.209299   0.361766
    20  H    0.162620   0.036209
    21  H    0.346732  -0.196482
    22  H   -0.152250   0.363806
    23  H   -0.392239   0.536091
    24  H   -0.560324   0.750852
    25  H   -0.025770   0.248717
    26  H    0.268900  -0.038615
    27  H   -0.056030   0.266995
    28  H    0.073429   0.165220
    29  H    0.308909  -0.013296
    30  H    0.273508   0.017610
    31  H    0.160768   0.104390
    32  H   -0.298044   0.473130
    33  H   -0.135232   0.304003
    34  H   -0.112017   0.247149
    35  H   -0.295281   0.442360
    36  H   -0.394451   0.527613
    37  H   -0.028560   0.176985
 Sum of Mulliken charges =  -1.00000   1.00000

 Dipole moment (field-independent basis, Debye):
    X=             -1.9466    Y=              0.2516    Z=              4.3141  Tot=              4.7397
 Quadrupole moment (field-independent basis, Debye-Ang):
   XX=           -190.5123   YY=           -155.9022   ZZ=           -168.0320
   XY=             -2.3328   XZ=              5.8807   YZ=             -4.5286

 Summary of Natural Population Analysis:

                                       Natural Population
                Natural  -----------------------------------------------
    Atom  No    Charge         Core      Valence    Rydberg      Total
 -----------------------------------------------------------------------
      C    1   -0.28538      0.99965     2.27992    0.00581     3.28538
      C    2   -0.12764      0.99957     2.11812    0.00995     3.12764
      C    3   -0.08439      0.99956     2.07079    0.01404     3.08439
      N    4   -0.38749      0.99971     2.86976    0.01802     3.88749
      C    5   -0.09229      0.99958     2.07788    0.01483     3.09229
      C    6   -0.25646      0.99957     2.24754    0.00935     3.25646
      S    7    0.08965      4.99962     2.89357    0.01715     7.91035
      C    8   -0.25463      0.99956     2.24289    0.01219     3.25463
      S    9    1.11718      4.99918     1.78359    0.10004     6.88282
      O   10   -0.46471      0.99991     3.45919    0.00562     4.46471
      O   11   -0.46701      0.99991     3.46180    0.00531     4.46701
      C   12   -0.30363      0.99954     2.29162    0.01247     3.30363
      C   13    0.05542      0.99954     1.92971    0.01533     2.94458
      C   14   -0.30222      0.99963     2.29628    0.00630     3.30222
      O   15   -0.29945      0.99989     3.28987    0.00969     4.29945
      C   16   -0.10320      0.99960     2.09397    0.00963     3.10320
      H   17    0.10007      0.00000     0.39915    0.00078     0.39993
      H   18    0.10154      0.00000     0.39773    0.00073     0.39846
      H   19    0.10083      0.00000     0.39807    0.00110     0.39917
      H   20    0.10483      0.00000     0.39327    0.00190     0.39517
      H   21    0.11076      0.00000     0.38791    0.00133     0.38924
      H   22    0.09955      0.00000     0.39847    0.00198     0.40045
      H   23    0.10643      0.00000     0.39092    0.00264     0.39357
      H   24    0.10658      0.00000     0.39151    0.00192     0.39342
      H   25    0.10025      0.00000     0.39816    0.00159     0.39975
      H   26    0.11595      0.00000     0.38277    0.00128     0.38405
      H   27    0.10471      0.00000     0.39379    0.00150     0.39529
      H   28    0.10836      0.00000     0.39060    0.00104     0.39164
      H   29    0.11600      0.00000     0.38236    0.00164     0.38400
      H   30    0.12105      0.00000     0.37789    0.00106     0.37895
      H   31    0.10010      0.00000     0.39814    0.00176     0.39990
      H   32    0.10329      0.00000     0.39435    0.00236     0.39671
      H   33    0.10457      0.00000     0.39440    0.00103     0.39543
      H   34    0.10747      0.00000     0.39097    0.00156     0.39253
      H   35    0.08421      0.00000     0.41425    0.00154     0.41579
      H   36    0.07946      0.00000     0.41904    0.00150     0.42054
      H   37    0.09026      0.00000     0.40880    0.00093     0.40974
 =======================================================================
   * Total *   -0.00000     23.99403    47.70906    0.29691    72.00000

 Normal termination of Gaussian 16 at Thu Dec 10 23:10:45 2020.
