 Gaussian 16, Revision A.03,

 -----------------------------------------------------------
 # opt freq B3LYP/6-31G(d) empiricaldispersion=gd3bj scf=xqc
 -----------------------------------------------------------

 -------------------------------
 CID_131194908_JID_3969_neutraal
 -------------------------------
 Symbolic Z-matrix:
 Charge =  0 Multiplicity = 1

 SCF Done:  E(RB3LYP) =  -558.226435394     A.U. after   15 cycles
 SCF Done:  E(RB3LYP) =  -558.230544274     A.U. after   13 cycles
 SCF Done:  E(RB3LYP) =  -558.230452376     A.U. after   13 cycles
 SCF Done:  E(RB3LYP) =  -558.230799381     A.U. after   12 cycles
 SCF Done:  E(RB3LYP) =  -558.231203851     A.U. after   12 cycles
 SCF Done:  E(RB3LYP) =  -558.231263127     A.U. after   12 cycles
 SCF Done:  E(RB3LYP) =  -558.231281074     A.U. after   12 cycles
 SCF Done:  E(RB3LYP) =  -558.231286190     A.U. after    9 cycles
 SCF Done:  E(RB3LYP) =  -558.231290269     A.U. after    9 cycles
 SCF Done:  E(RB3LYP) =  -558.231292260     A.U. after    9 cycles
 SCF Done:  E(RB3LYP) =  -558.231292590     A.U. after    8 cycles
 SCF Done:  E(RB3LYP) =  -558.231292684     A.U. after    7 cycles
 SCF Done:  E(RB3LYP) =  -558.231292705     A.U. after    7 cycles
 Optimization completed.
    -- Stationary point found.
 Normal termination of Gaussian 16 at Mon Dec 14 16:33:07 2020.

 --------------------------------------------------------------------
 #N Geom=AllCheck Guess=TCheck SCRF=Check GenChk RB3LYP/6-31G(d) Freq
 --------------------------------------------------------------------

 Structure from the checkpoint file:  "JID_3969.chk"
 -------------------------------
 CID_131194908_JID_3969_neutraal
 -------------------------------
 Charge =  0 Multiplicity = 1

 SCF Done:  E(RB3LYP) =  -558.231292706     A.U. after    1 cycles

  Exact polarizability: 145.219  -0.741 141.796   5.981   6.817  76.652
 Approx polarizability: 217.689  -3.887 223.599  15.610  20.975 119.252

                      1                      2                      3
                      A                      A                      A
 Frequencies --     46.6183                55.6773                79.2845
 Red. masses --      4.0692                 3.2169                 2.2961
 Frc consts  --      0.0052                 0.0059                 0.0085
 IR Inten    --      2.8509                 0.3022                 0.7117

                      4                      5                      6
                      A                      A                      A
 Frequencies --    101.2116               164.9878               187.2647
 Red. masses --      2.3802                 2.8570                 3.0142
 Frc consts  --      0.0144                 0.0458                 0.0623
 IR Inten    --      2.6290                 0.6838                 1.0887

                      7                      8                      9
                      A                      A                      A
 Frequencies --    205.3426               221.0779               251.7641
 Red. masses --      2.5650                 1.3478                 2.8480
 Frc consts  --      0.0637                 0.0388                 0.1064
 IR Inten    --      2.4260                 0.5761                 2.0291

                     10                     11                     12
                      A                      A                      A
 Frequencies --    265.2620               296.2908               309.9797
 Red. masses --      1.2523                 1.9161                 1.4221
 Frc consts  --      0.0519                 0.0991                 0.0805
 IR Inten    --      8.1276                 8.1010                 2.7798

                     13                     14                     15
                      A                      A                      A
 Frequencies --    354.2119               372.9316               425.7191
 Red. masses --      3.5731                 4.7003                 3.0154
 Frc consts  --      0.2641                 0.3852                 0.3220
 IR Inten    --      1.7185                 4.6399                 3.1965

                     16                     17                     18
                      A                      A                      A
 Frequencies --    462.9729               515.9805               546.0410
 Red. masses --      3.4951                 1.6099                 3.1447
 Frc consts  --      0.4414                 0.2525                 0.5524
 IR Inten    --      5.1684               242.7006                43.3765

                     19                     20                     21
                      A                      A                      A
 Frequencies --    548.3570               579.4785               582.3131
 Red. masses --      4.5947                 3.2420                 3.3462
 Frc consts  --      0.8140                 0.6414                 0.6685
 IR Inten    --     13.9890                23.8501                27.2659

                     22                     23                     24
                      A                      A                      A
 Frequencies --    635.5845               653.5685               749.3446
 Red. masses --      2.6767                 3.6209                 2.5888
 Frc consts  --      0.6371                 0.9113                 0.8565
 IR Inten    --      2.6900                 4.3198                 1.9741

                     25                     26                     27
                      A                      A                      A
 Frequencies --    768.5113               775.5033               805.7143
 Red. masses --      1.3247                 4.0684                 1.4114
 Frc consts  --      0.4610                 1.4416                 0.5398
 IR Inten    --     21.4271                 3.3873                 4.7121

                     28                     29                     30
                      A                      A                      A
 Frequencies --    819.3064               873.5221               935.3675
 Red. masses --      1.7249                 1.3497                 2.9212
 Frc consts  --      0.6822                 0.6068                 1.5058
 IR Inten    --     22.2893                 0.4168                32.7989

                     31                     32                     33
                      A                      A                      A
 Frequencies --    952.9433               963.3177              1026.6446
 Red. masses --      2.1602                 1.2748                 1.6762
 Frc consts  --      1.1558                 0.6970                 1.0409
 IR Inten    --     32.4631                 0.8545                 3.9670

                     34                     35                     36
                      A                      A                      A
 Frequencies --   1043.6765              1076.2013              1091.5595
 Red. masses --      2.8456                 2.2186                 1.8211
 Frc consts  --      1.8263                 1.5140                 1.2784
 IR Inten    --     10.5183                 1.4176                 3.9931

                     37                     38                     39
                      A                      A                      A
 Frequencies --   1106.4038              1117.7317              1133.9658
 Red. masses --      2.2311                 1.5722                 1.9663
 Frc consts  --      1.6092                 1.1573                 1.4897
 IR Inten    --      5.9353                 0.7002                 3.3955

                     40                     41                     42
                      A                      A                      A
 Frequencies --   1157.5241              1210.5803              1252.3713
 Red. masses --      1.4567                 1.1943                 2.4747
 Frc consts  --      1.1500                 1.0312                 2.2868
 IR Inten    --      3.2593                 4.7533                42.9204

                     43                     44                     45
                      A                      A                      A
 Frequencies --   1286.6224              1292.2886              1318.7764
 Red. masses --      2.3677                 1.5299                 1.1828
 Frc consts  --      2.3093                 1.5053                 1.2120
 IR Inten    --     20.0610                27.1729                 1.0694

                     46                     47                     48
                      A                      A                      A
 Frequencies --   1319.7756              1349.6258              1364.0717
 Red. masses --      2.3396                 1.4953                 4.2682
 Frc consts  --      2.4010                 1.6047                 4.6792
 IR Inten    --     14.9643                 1.0728                38.0374

                     49                     50                     51
                      A                      A                      A
 Frequencies --   1395.2251              1440.2018              1445.8457
 Red. masses --      1.6655                 1.2618                 1.2254
 Frc consts  --      1.9102                 1.5420                 1.5093
 IR Inten    --     16.0436                 4.8158                 4.9935

                     52                     53                     54
                      A                      A                      A
 Frequencies --   1497.8400              1504.5822              1506.9368
 Red. masses --      1.2327                 1.1275                 2.4719
 Frc consts  --      1.6295                 1.5038                 3.3073
 IR Inten    --     10.5644                22.8696                 4.7670

                     55                     56                     57
                      A                      A                      A
 Frequencies --   1519.6292              1530.4249              1531.5592
 Red. masses --      1.8682                 1.1003                 1.0454
 Frc consts  --      2.5419                 1.5184                 1.4447
 IR Inten    --     60.6255                10.9905                 6.7740

                     58                     59                     60
                      A                      A                      A
 Frequencies --   1531.7857              1541.8118              1640.9998
 Red. masses --      1.0441                 1.0602                 5.6299
 Frc consts  --      1.4434                 1.4850                 8.9323
 IR Inten    --      5.8337                 3.3395                38.6627

                     61                     62                     63
                      A                      A                      A
 Frequencies --   1655.9706              1697.2458              1772.1112
 Red. masses --      5.1367                 1.1798                11.9324
 Frc consts  --      8.2993                 2.0023                22.0781
 IR Inten    --     56.1583                95.7568               173.0565

                     64                     65                     66
                      A                      A                      A
 Frequencies --   3019.1138              3046.2776              3050.9837
 Red. masses --      1.0725                 1.0701                 1.0361
 Frc consts  --      5.7597                 5.8506                 5.6825
 IR Inten    --     21.4639                15.9910                26.2343

                     67                     68                     69
                      A                      A                      A
 Frequencies --   3062.6382              3092.5849              3097.8384
 Red. masses --      1.0363                 1.0925                 1.0897
 Frc consts  --      5.7273                 6.1564                 6.1616
 IR Inten    --     21.9001                 0.4091                 5.8451

                     70                     71                     72
                      A                      A                      A
 Frequencies --   3119.7322              3121.1768              3126.2057
 Red. masses --      1.1024                 1.1011                 1.1028
 Frc consts  --      6.3215                 6.3200                 6.3503
 IR Inten    --     37.0969                34.8542                28.7725

                     73                     74                     75
                      A                      A                      A
 Frequencies --   3142.7111              3175.3495              3196.2451
 Red. masses --      1.1011                 1.0871                 1.0932
 Frc consts  --      6.4074                 6.4581                 6.5801
 IR Inten    --     25.1888                10.8845                25.3988

                     76                     77                     78
                      A                      A                      A
 Frequencies --   3231.8638              3583.2484              3692.9657
 Red. masses --      1.0913                 1.0494                 1.0962
 Frc consts  --      6.7157                 7.9384                 8.8082
 IR Inten    --     12.1698                15.3324                18.1773

 - Thermochemistry -
 -------------------
 Temperature   298.150 Kelvin.  Pressure   1.00000 Atm.
 Atom     1 has atomic number  6 and mass  12.00000

 Molecular mass:   177.11536 amu.
 Principal axes and moments of inertia in atomic units:
                           1         2         3
     Eigenvalues --  1914.992912395.001883576.65660
           X            0.99861  -0.05135  -0.01147
           Y            0.05112   0.99850  -0.01942
           Z            0.01245   0.01881   0.99975
 This molecule is an asymmetric top.
 Rotational symmetry number  1.
 Warning -- assumption of classical behavior for rotation
           may cause significant error
 Rotational temperatures (Kelvin)      0.04523     0.03616     0.02422
 Rotational constants (GHZ):           0.94243     0.75354     0.50459
 Zero-point vibrational energy     631774.1 (Joules/Mol)
                                  150.99762 (Kcal/Mol)
 Warning -- explicit consideration of  21 degrees of freedom as
           vibrations may cause significant error
 Vibrational temperatures:     67.07    80.11   114.07   145.62   237.38
          (Kelvin)            269.43   295.44   318.08   362.23   381.65
                              426.30   445.99   509.63   536.57   612.51
                              666.11   742.38   785.63   788.96   833.74
                              837.82   914.46   940.34  1078.14  1105.72
                             1115.78  1159.24  1178.80  1256.80  1345.79
                             1371.07  1386.00  1477.11  1501.62  1548.41
                             1570.51  1591.87  1608.17  1631.52  1665.42
                             1741.76  1801.88  1851.16  1859.32  1897.43
                             1898.86  1941.81  1962.59  2007.42  2072.13
                             2080.25  2155.06  2164.76  2168.15  2186.41
                             2201.94  2203.57  2203.90  2218.32  2361.03
                             2382.57  2441.96  2549.67  4343.83  4382.91
                             4389.68  4406.45  4449.54  4457.10  4488.60
                             4490.68  4497.91  4521.66  4568.62  4598.68
                             4649.93  5155.50  5313.35

 Zero-point correction=                           0.240630 (Hartree/Particle)
 Thermal correction to Energy=                    0.254114
 Thermal correction to Enthalpy=                  0.255058
 Thermal correction to Gibbs Free Energy=         0.200789
 Sum of electronic and zero-point Energies=           -557.990663
 Sum of electronic and thermal Energies=              -557.977179
 Sum of electronic and thermal Enthalpies=            -557.976235
 Sum of electronic and thermal Free Energies=         -558.030503

                     E (Thermal)             CV                S
                      KCal/Mol        Cal/Mol-Kelvin    Cal/Mol-Kelvin
 Total                  159.459             51.149            114.218
 Electronic               0.000              0.000              0.000
 Translational            0.889              2.981             41.422
 Rotational               0.889              2.981             31.173
 Vibrational            157.681             45.187             41.623
 Vibration     1          0.595              1.979              4.956
 Vibration     2          0.596              1.975              4.605
 Vibration     3          0.600              1.963              3.909
 Vibration     4          0.604              1.948              3.431
 Vibration     5          0.623              1.885              2.492
 Vibration     6          0.632              1.857              2.255
 Vibration     7          0.640              1.832              2.085
 Vibration     8          0.648              1.809              1.950
 Vibration     9          0.664              1.760              1.718
 Vibration    10          0.671              1.737              1.627
 Vibration    11          0.690              1.681              1.438
 Vibration    12          0.699              1.655              1.362
 Vibration    13          0.730              1.567              1.147
 Vibration    14          0.744              1.528              1.068
 Vibration    15          0.788              1.414              0.873
 Vibration    16          0.821              1.332              0.758
 Vibration    17          0.871              1.215              0.619
 Vibration    18          0.901              1.148              0.552
 Vibration    19          0.904              1.143              0.548
 Vibration    20          0.936              1.076              0.486
 Vibration    21          0.939              1.070              0.481

                           ! Non-Optimized Parameters !
 Normal termination of Gaussian 16 at Mon Dec 14 16:40:42 2020.

 ----------------------------------------------------------------------
 # B3LYP/6-311++G(d,p) empiricaldispersion=gd3bj scf=xqc pop=npa geom=c
 heck
 ----------------------------------------------------------------------

 ---------------------------------------
 CID_131194908_JID_3969_Energie_neutraal
 ---------------------------------------
 Structure from the checkpoint file:  "JID_3969.chk"
 Charge =  0 Multiplicity = 1

 SCF Done:  E(RB3LYP) =  -558.391296703     A.U. after   16 cycles
 Normal termination of Gaussian 16 at Mon Dec 14 16:44:09 2020.

 ----------------------------------------------------------------------
 # B3LYP/6-311++G(d,p) empiricaldispersion=gd3bj scf=xqc pop=npa geom=c
 heck
 ----------------------------------------------------------------------

 -------------------------------------
 CID_131194908_JID_3969_Energie_kation
 -------------------------------------
 Structure from the checkpoint file:  "JID_3969.chk"
 Charge =  1 Multiplicity = 2

 SCF Done:  E(UB3LYP) =  -558.104101039     A.U. after   25 cycles
 Normal termination of Gaussian 16 at Mon Dec 14 16:52:12 2020.
 Gaussian 16:  ES64L-G16RevA.03 25-Dec-2016

 ----------------------------------------------------------------------
 # B3LYP/6-311++G(d,p) empiricaldispersion=gd3bj scf=xqc pop=npa geom=c
 heck
 ----------------------------------------------------------------------

 ------------------------------------
 CID_131194908_JID_3969_Energie_anion
 ------------------------------------
 Structure from the checkpoint file:  "JID_3969.chk"
 Charge = -1 Multiplicity = 2

                         Standard orientation:
 ---------------------------------------------------------------------
 Center     Atomic      Atomic             Coordinates (Angstroms)
 Number     Number       Type             X           Y           Z
 ---------------------------------------------------------------------
      1          6           0        3.345425   -1.335995    0.368974
      2          6           0        1.894243   -1.326514   -0.113592
      3          6           0        1.191690    0.022648   -0.080430
      4          6           0       -0.204529    0.108962   -0.313222
      5          6           0       -0.847540    1.367305   -0.299547
      6          6           0       -0.097538    2.522892   -0.021246
      7          6           0        1.259247    2.426981    0.235058
      8          6           0        1.903060    1.187774    0.205852
      9          7           0       -2.191703    1.522548   -0.639870
     10          6           0       -0.974423   -1.154217   -0.576198
     11          8           0       -0.616589   -1.951240   -1.428502
     12          6           0       -2.184567   -1.507617    0.303083
     13          6           0       -2.138211   -0.970774    1.736698
     14          1           0        3.991175   -0.721089   -0.267432
     15          1           0        3.737708   -2.357923    0.343643
     16          1           0        3.435635   -0.967022    1.397029
     17          1           0        1.844597   -1.716544   -1.135345
     18          1           0        1.318101   -2.043756    0.485134
     19          1           0       -0.594618    3.489934   -0.022622
     20          1           0        1.828068    3.325985    0.456653
     21          1           0        2.965635    1.138361    0.409497
     22          1           0       -2.635440    2.350306   -0.264876
     23          1           0       -2.784798    0.709217   -0.577242
     24          1           0       -3.107631   -1.186983   -0.203777
     25          1           0       -2.229274   -2.601562    0.293778
     26          1           0       -2.176480    0.121569    1.764962
     27          1           0       -2.983376   -1.356490    2.316442
     28          1           0       -1.215809   -1.280601    2.238692
 ---------------------------------------------------------------------

 SCF Done:  E(UB3LYP) =  -558.388516263     A.U. after   33 cycles
 SCF Done:  E(UB3LYP) =  -558.388516263     a.u. after    1 cycles

 The electronic state is 2-A.
 Alpha  occ. eigenvalues --  -18.94476 -14.19452 -10.08933 -10.08587 -10.05780
 Alpha  occ. eigenvalues --  -10.05367 -10.05008 -10.04455 -10.04212 -10.04034
 Alpha  occ. eigenvalues --  -10.03812 -10.03734 -10.03670  -0.88433  -0.79748
 Alpha  occ. eigenvalues --   -0.71926  -0.66374  -0.64924  -0.61527  -0.59633
 Alpha  occ. eigenvalues --   -0.52975  -0.51553  -0.49096  -0.45562  -0.42172
 Alpha  occ. eigenvalues --   -0.39209  -0.37388  -0.34639  -0.33650  -0.33034
 Alpha  occ. eigenvalues --   -0.32235  -0.31326  -0.30889  -0.29833  -0.26567
 Alpha  occ. eigenvalues --   -0.26387  -0.26089  -0.25279  -0.24505  -0.24103
 Alpha  occ. eigenvalues --   -0.23494  -0.22128  -0.21853  -0.20009  -0.18648
 Alpha  occ. eigenvalues --   -0.11982  -0.09912  -0.08583   0.04883
 Alpha virt. eigenvalues --    0.07539   0.07886   0.08556   0.09420   0.10193
 Alpha virt. eigenvalues --    0.10800   0.11277   0.11672   0.12009   0.12634
 Alpha virt. eigenvalues --    0.12862   0.14134   0.14344   0.14577   0.15243

  Beta  occ. eigenvalues --  -18.94089 -14.19420 -10.08635 -10.08498 -10.05780
  Beta  occ. eigenvalues --  -10.05268 -10.05012 -10.04319 -10.04226 -10.04037
  Beta  occ. eigenvalues --  -10.03766 -10.03709 -10.03707  -0.87710  -0.79642
  Beta  occ. eigenvalues --   -0.71787  -0.66287  -0.64717  -0.61360  -0.59534
  Beta  occ. eigenvalues --   -0.52784  -0.51367  -0.48859  -0.45465  -0.41849
  Beta  occ. eigenvalues --   -0.39119  -0.37194  -0.34462  -0.33577  -0.32970
  Beta  occ. eigenvalues --   -0.32051  -0.31204  -0.30671  -0.29531  -0.26458
  Beta  occ. eigenvalues --   -0.26137  -0.25940  -0.24952  -0.24276  -0.23913
  Beta  occ. eigenvalues --   -0.23374  -0.22050  -0.21535  -0.18800  -0.18346
  Beta  occ. eigenvalues --   -0.11450  -0.09574  -0.08259
  Beta virt. eigenvalues --    0.07604   0.08165   0.08732   0.09585   0.10173
  Beta virt. eigenvalues --    0.10521   0.10863   0.11443   0.11978   0.12130
  Beta virt. eigenvalues --    0.12775   0.13192   0.14216   0.14699   0.15184

 Mulliken charges and spin densities:
               1          2
     1  C   -0.792158   0.027046
     2  C   -0.652542   0.057484
     3  C    0.883366   0.222637
     4  C    1.579593  -0.045225
     5  C   -0.513982  -0.325372
     6  C   -0.636225   0.528653
     7  C    0.069008  -0.365442
     8  C   -0.914610   0.216727
     9  N   -0.364901   0.098767
    10  C    0.305413  -0.756388
    11  O   -0.312300   0.134547
    12  C   -0.251431   0.127433
    13  C    0.196854  -0.839377
    14  H    0.132911   0.002032
    15  H    0.118177   0.007125
    16  H    0.129454   0.005783
    17  H    0.222458  -0.002423
    18  H    0.160392   0.003270
    19  H   -0.115294   0.229998
    20  H    0.124950  -0.006951
    21  H    0.080162   0.001069
    22  H   -0.138968   0.373076
    23  H    0.257345  -0.010069
    24  H   -0.386351   0.571260
    25  H    0.183193  -0.027058
    26  H   -0.035901   0.186117
    27  H   -0.363821   0.493980
    28  H    0.035208   0.091302
 Sum of Mulliken charges =  -1.00000   1.00000

 Dipole moment (field-independent basis, Debye):
    X=              6.1214    Y=              0.6928    Z=              1.2311  Tot=              6.2823
 Quadrupole moment (field-independent basis, Debye-Ang):
   XX=           -121.7248   YY=           -107.7547   ZZ=           -104.8128
   XY=             -2.0950   XZ=              3.8778   YZ=             -3.5489

 Summary of Natural Population Analysis:

                                       Natural Population
                Natural  -----------------------------------------------
    Atom  No    Charge         Core      Valence    Rydberg      Total
 -----------------------------------------------------------------------
      C    1   -0.28548      0.99968     2.28207    0.00374     3.28548
      C    2   -0.20215      0.99961     2.19577    0.00678     3.20215
      C    3    0.02497      0.99949     1.96503    0.01051     2.97503
      C    4   -0.07783      0.99940     2.06757    0.01086     3.07783
      C    5    0.10734      0.99946     1.88186    0.01134     2.89266
      C    6   -0.13686      0.99952     2.12707    0.01027     3.13686
      C    7   -0.06839      0.99957     2.05937    0.00945     3.06839
      C    8   -0.14340      0.99952     2.13581    0.00807     3.14340
      N    9   -0.39717      0.99971     2.88752    0.00994     3.89717
      C   10    0.31621      0.99963     1.66194    0.02222     2.68379
      O   11   -0.26210      0.99988     3.25597    0.00626     4.26210
      C   12   -0.23905      0.99961     2.22932    0.01012     3.23905
      C   13   -0.28723      0.99966     2.28190    0.00566     3.28723
      H   14    0.09337      0.00000     0.40556    0.00107     0.40663
      H   15    0.09452      0.00000     0.40469    0.00080     0.40548
      H   16    0.09438      0.00000     0.40462    0.00099     0.40562
      H   17    0.11411      0.00000     0.38471    0.00117     0.38589
      H   18    0.10244      0.00000     0.39594    0.00162     0.39756
      H   19    0.09230      0.00000     0.40626    0.00143     0.40770
      H   20    0.09080      0.00000     0.40840    0.00080     0.40920
      H   21    0.09419      0.00000     0.40465    0.00117     0.40581
      H   22    0.18332      0.00000     0.31473    0.00195     0.31668
      H   23    0.19107      0.00000     0.30659    0.00234     0.30893
      H   24    0.10232      0.00000     0.39462    0.00306     0.39768
      H   25    0.10503      0.00000     0.39383    0.00114     0.39497
      H   26    0.10035      0.00000     0.39837    0.00128     0.39965
      H   27    0.09720      0.00000     0.40138    0.00142     0.40280
      H   28    0.09575      0.00000     0.40328    0.00097     0.40425
 =======================================================================
   * Total *    0.00000     12.99474    34.85884    0.14643    48.00000

 Normal termination of Gaussian 16 at Mon Dec 14 17:02:32 2020.
