 Gaussian 16, Revision A.03,

 -----------------------------------------------------------
 # opt freq B3LYP/6-31G(d) empiricaldispersion=gd3bj scf=xqc
 -----------------------------------------------------------

 ------------------------------
 CID_88961777_JID_1023_neutraal
 ------------------------------
 Symbolic Z-matrix:
 Charge =  0 Multiplicity = 1

 SCF Done:  E(RB3LYP) =  -465.892804823     A.U. after   13 cycles
 SCF Done:  E(RB3LYP) =  -465.896543480     A.U. after   12 cycles
 SCF Done:  E(RB3LYP) =  -465.897405043     A.U. after   11 cycles
 SCF Done:  E(RB3LYP) =  -465.898056016     A.U. after   12 cycles
 SCF Done:  E(RB3LYP) =  -465.898271520     A.U. after   11 cycles
 SCF Done:  E(RB3LYP) =  -465.898361242     A.U. after   11 cycles
 SCF Done:  E(RB3LYP) =  -465.898376768     A.U. after   10 cycles
 SCF Done:  E(RB3LYP) =  -465.898388179     A.U. after   10 cycles
 SCF Done:  E(RB3LYP) =  -465.898390567     A.U. after    8 cycles
 SCF Done:  E(RB3LYP) =  -465.898392170     A.U. after    8 cycles
 SCF Done:  E(RB3LYP) =  -465.898394398     A.U. after    8 cycles
 SCF Done:  E(RB3LYP) =  -465.898394863     A.U. after    8 cycles
 SCF Done:  E(RB3LYP) =  -465.898395007     A.U. after    8 cycles
 SCF Done:  E(RB3LYP) =  -465.898395045     A.U. after    7 cycles
 Optimization completed.
    -- Stationary point found.
 Normal termination of Gaussian 16 at Tue Dec  8 19:12:45 2020.

 --------------------------------------------------------------------
 #N Geom=AllCheck Guess=TCheck SCRF=Check GenChk RB3LYP/6-31G(d) Freq
 --------------------------------------------------------------------

 Structure from the checkpoint file:  "JID_1023.chk"
 ------------------------------
 CID_88961777_JID_1023_neutraal
 ------------------------------
 Charge =  0 Multiplicity = 1

 SCF Done:  E(RB3LYP) =  -465.898395045     A.U. after    1 cycles

  Exact polarizability: 128.801  -2.270 115.093  -4.373   2.417  88.841
 Approx polarizability: 174.994  -1.154 176.008  -5.672   6.596 134.313

                      1                      2                      3
                      A                      A                      A
 Frequencies --     42.8419                52.3796                87.2696
 Red. masses --      3.2561                 4.2926                 2.2106
 Frc consts  --      0.0035                 0.0069                 0.0099
 IR Inten    --      0.2331                 2.0433                 0.4490

                      4                      5                      6
                      A                      A                      A
 Frequencies --    106.6983               121.7186               161.9869
 Red. masses --      3.7413                 2.5964                 3.1165
 Frc consts  --      0.0251                 0.0227                 0.0482
 IR Inten    --      3.0394                 0.4088                 0.3556

                      7                      8                      9
                      A                      A                      A
 Frequencies --    184.6576               187.6052               215.4799
 Red. masses --      1.9381                 1.2362                 1.1232
 Frc consts  --      0.0389                 0.0256                 0.0307
 IR Inten    --      0.6554                 0.6854                 1.7433

                     10                     11                     12
                      A                      A                      A
 Frequencies --    246.5888               286.6184               307.1849
 Red. masses --      2.3944                 2.4224                 2.8387
 Frc consts  --      0.0858                 0.1172                 0.1578
 IR Inten    --      2.6460                 0.4103                 1.9019

                     13                     14                     15
                      A                      A                      A
 Frequencies --    323.4141               403.3523               418.8925
 Red. masses --      2.4392                 2.6841                 1.7687
 Frc consts  --      0.1503                 0.2573                 0.1829
 IR Inten    --      3.7087                 5.8194                58.5882

                     16                     17                     18
                      A                      A                      A
 Frequencies --    432.4682               461.2453               542.9482
 Red. masses --      1.5581                 1.9673                 3.1256
 Frc consts  --      0.1717                 0.2466                 0.5429
 IR Inten    --     60.2508                79.6880                 9.1881

                     19                     20                     21
                      A                      A                      A
 Frequencies --    575.3157               665.6415               716.7663
 Red. masses --      2.5782                 2.8034                 2.0948
 Frc consts  --      0.5028                 0.7318                 0.6341
 IR Inten    --      3.8967                 2.4668                 2.6024

                     22                     23                     24
                      A                      A                      A
 Frequencies --    811.4477               849.4309               852.2642
 Red. masses --      2.0578                 1.4396                 2.4930
 Frc consts  --      0.7983                 0.6120                 1.0669
 IR Inten    --      3.4032                13.2686                 0.7372

                     25                     26                     27
                      A                      A                      A
 Frequencies --    884.9052               907.7890               936.8668
 Red. masses --      1.9104                 1.4618                 1.6709
 Frc consts  --      0.8814                 0.7098                 0.8641
 IR Inten    --      0.9565                 7.2015                 6.5293

                     28                     29                     30
                      A                      A                      A
 Frequencies --    940.4258              1004.6026              1031.5944
 Red. masses --      1.4493                 1.6370                 1.1625
 Frc consts  --      0.7552                 0.9734                 0.7289
 IR Inten    --     42.1463                 5.2843                12.4705

                     31                     32                     33
                      A                      A                      A
 Frequencies --   1043.4673              1071.8417              1074.0274
 Red. masses --      1.5370                 1.9176                 1.7614
 Frc consts  --      0.9860                 1.2980                 1.1972
 IR Inten    --     16.9048                36.2621                26.9817

                     34                     35                     36
                      A                      A                      A
 Frequencies --   1077.0397              1088.5569              1101.9426
 Red. masses --      1.7180                 1.9303                 2.2363
 Frc consts  --      1.1742                 1.3477                 1.5999
 IR Inten    --     24.8015                21.8748                 2.2053

                     37                     38                     39
                      A                      A                      A
 Frequencies --   1123.9479              1187.1455              1203.6631
 Red. masses --      2.1133                 2.3102                 1.8096
 Frc consts  --      1.5729                 1.9183                 1.5447
 IR Inten    --      2.2083                 4.7446                 4.3498

                     40                     41                     42
                      A                      A                      A
 Frequencies --   1217.2473              1249.3268              1349.6666
 Red. masses --      1.4173                 1.2695                 1.2712
 Frc consts  --      1.2373                 1.1674                 1.3643
 IR Inten    --     11.4383                 2.6720                 1.4104

                     43                     44                     45
                      A                      A                      A
 Frequencies --   1369.0722              1389.5696              1407.8153
 Red. masses --      1.3800                 1.2706                 1.2647
 Frc consts  --      1.5240                 1.4455                 1.4768
 IR Inten    --      1.9165                 2.7507                 2.7845

                     46                     47                     48
                      A                      A                      A
 Frequencies --   1417.3457              1432.6655              1440.7862
 Red. masses --      1.4363                 1.2445                 1.2420
 Frc consts  --      1.6999                 1.5050                 1.5191
 IR Inten    --      2.7123                53.6541                 0.1183

                     49                     50                     51
                      A                      A                      A
 Frequencies --   1443.6862              1480.0243              1508.3046
 Red. masses --      1.3377                 1.2848                 1.0481
 Frc consts  --      1.6427                 1.6581                 1.4049
 IR Inten    --      1.0523                 6.3686                 6.1160

                     52                     53                     54
                      A                      A                      A
 Frequencies --   1509.2077              1511.2525              1515.2324
 Red. masses --      1.0618                 1.0808                 1.0561
 Frc consts  --      1.4250                 1.4544                 1.4285
 IR Inten    --     11.0645                 4.8588                 5.2388

                     55                     56                     57
                      A                      A                      A
 Frequencies --   1524.0386              1531.4972              1697.7187
 Red. masses --      1.0694                 1.0935                 7.0581
 Frc consts  --      1.4634                 1.5111                11.9858
 IR Inten    --      7.3114                 0.9196                 3.1358

                     58                     59                     60
                      A                      A                      A
 Frequencies --   1717.8594              1722.4521              3002.5740
 Red. masses --      5.2849                 5.2681                 1.0703
 Frc consts  --      9.1889                 9.2087                 5.6853
 IR Inten    --      1.6226                 2.1252                49.5592

                     61                     62                     63
                      A                      A                      A
 Frequencies --   3031.6658              3032.5123              3048.6937
 Red. masses --      1.0398                 1.0398                 1.0616
 Frc consts  --      5.6307                 5.6340                 5.8133
 IR Inten    --     36.7687                30.2107                21.3501

                     64                     65                     66
                      A                      A                      A
 Frequencies --   3079.1088              3082.2179              3093.9149
 Red. masses --      1.0995                 1.0967                 1.0988
 Frc consts  --      6.1416                 6.1388                 6.1970
 IR Inten    --     20.1790                27.7794                27.2378

                     67                     68                     69
                      A                      A                      A
 Frequencies --   3104.9313              3123.6264              3126.2921
 Red. masses --      1.0985                 1.0917                 1.0905
 Frc consts  --      6.2398                 6.2759                 6.2798
 IR Inten    --     54.0628                 4.4440                 4.5721

                     70                     71                     72
                      A                      A                      A
 Frequencies --   3130.2427              3133.7946              3139.3227
 Red. masses --      1.0868                 1.0943                 1.0944
 Frc consts  --      6.2739                 6.3318                 6.3545
 IR Inten    --     26.1641                28.9020                36.1333

                     73                     74                     75
                      A                      A                      A
 Frequencies --   3172.0690              3254.3817              3730.9338
 Red. masses --      1.0621                 1.1163                 1.0657
 Frc consts  --      6.2964                 6.9656                 8.7402
 IR Inten    --      7.3812                13.1577                11.6664

 - Thermochemistry -
 -------------------
 Temperature   298.150 Kelvin.  Pressure   1.00000 Atm.
 Atom     1 has atomic number  6 and mass  12.00000

 Molecular mass:   152.12012 amu.
 Principal axes and moments of inertia in atomic units:
                           1         2         3
     Eigenvalues --  1234.744102582.875523105.62927
           X            0.99973  -0.01929  -0.01308
           Y            0.01925   0.99981  -0.00381
           Z            0.01315   0.00356   0.99991
 This molecule is an asymmetric top.
 Rotational symmetry number  1.
 Warning -- assumption of classical behavior for rotation
           may cause significant error
 Rotational temperatures (Kelvin)      0.07015     0.03353     0.02789
 Rotational constants (GHZ):           1.46163     0.69873     0.58112
 Zero-point vibrational energy     624768.2 (Joules/Mol)
                                  149.32318 (Kcal/Mol)
 Warning -- explicit consideration of  19 degrees of freedom as
           vibrations may cause significant error
 Vibrational temperatures:     61.64    75.36   125.56   153.52   175.13
          (Kelvin)            233.06   265.68   269.92   310.03   354.79
                              412.38   441.97   465.32   580.33   602.69
                              622.23   663.63   781.18   827.75   957.71
                             1031.27  1167.49  1222.14  1226.22  1273.18
                             1306.11  1347.94  1353.06  1445.40  1484.23
                             1501.32  1542.14  1545.29  1549.62  1566.19
                             1585.45  1617.11  1708.04  1731.80  1751.35
                             1797.50  1941.87  1969.79  1999.28  2025.53
                             2039.24  2061.29  2072.97  2077.14  2129.42
                             2170.11  2171.41  2174.36  2180.08  2192.75
                             2203.48  2442.64  2471.62  2478.22  4320.03
                             4361.89  4363.11  4386.39  4430.15  4434.62
                             4451.45  4467.30  4494.20  4498.04  4503.72
                             4508.83  4516.79  4563.90  4682.33  5367.98

 Zero-point correction=                           0.237962 (Hartree/Particle)
 Thermal correction to Energy=                    0.251263
 Thermal correction to Enthalpy=                  0.252207
 Thermal correction to Gibbs Free Energy=         0.198124
 Sum of electronic and zero-point Energies=           -465.660433
 Sum of electronic and thermal Energies=              -465.647132
 Sum of electronic and thermal Enthalpies=            -465.646188
 Sum of electronic and thermal Free Energies=         -465.700271

                     E (Thermal)             CV                S
                      KCal/Mol        Cal/Mol-Kelvin    Cal/Mol-Kelvin
 Total                  157.670             48.189            113.829
 Electronic               0.000              0.000              0.000
 Translational            0.889              2.981             40.968
 Rotational               0.889              2.981             30.672
 Vibrational            155.893             42.227             42.188
 Vibration     1          0.595              1.980              5.123
 Vibration     2          0.596              1.977              4.725
 Vibration     3          0.601              1.958              3.720
 Vibration     4          0.606              1.944              3.328
 Vibration     5          0.609              1.931              3.073
 Vibration     6          0.622              1.889              2.526
 Vibration     7          0.631              1.861              2.281
 Vibration     8          0.632              1.857              2.251
 Vibration     9          0.645              1.817              1.997
 Vibration    10          0.661              1.768              1.755
 Vibration    11          0.684              1.699              1.494
 Vibration    12          0.697              1.660              1.377
 Vibration    13          0.708              1.629              1.293
 Vibration    14          0.769              1.463              0.950
 Vibration    15          0.782              1.429              0.896
 Vibration    16          0.793              1.399              0.851
 Vibration    17          0.819              1.336              0.762
 Vibration    18          0.898              1.155              0.559
 Vibration    19          0.932              1.085              0.494

 Optimization completed.
    -- Stationary point found.
 Normal termination of Gaussian 16 at Tue Dec  8 19:18:18 2020.

 ----------------------------------------------------------------------
 # B3LYP/6-311++G(d,p) empiricaldispersion=gd3bj scf=xqc pop=npa geom=c
 heck
 ----------------------------------------------------------------------

 --------------------------------------
 CID_88961777_JID_1023_Energie_neutraal
 --------------------------------------
 Structure from the checkpoint file:  "JID_1023.chk"
 Charge =  0 Multiplicity = 1

 SCF Done:  E(RB3LYP) =  -466.039704582     A.U. after   15 cycles
 Normal termination of Gaussian 16 at Tue Dec  8 19:20:31 2020.

 ----------------------------------------------------------------------
 # B3LYP/6-311++G(d,p) empiricaldispersion=gd3bj scf=xqc pop=npa geom=c
 heck
 ----------------------------------------------------------------------

 ------------------------------------
 CID_88961777_JID_1023_Energie_kation
 ------------------------------------
 Structure from the checkpoint file:  "JID_1023.chk"
 Charge =  1 Multiplicity = 2

 SCF Done:  E(UB3LYP) =  -465.752979878     A.U. after   23 cycles
 Normal termination of Gaussian 16 at Tue Dec  8 19:25:01 2020.
 Gaussian 16:  ES64L-G16RevA.03 25-Dec-2016

 ----------------------------------------------------------------------
 # B3LYP/6-311++G(d,p) empiricaldispersion=gd3bj scf=xqc pop=npa geom=c
 heck
 ----------------------------------------------------------------------

 -----------------------------------
 CID_88961777_JID_1023_Energie_anion
 -----------------------------------
 Structure from the checkpoint file:  "JID_1023.chk"
 Charge = -1 Multiplicity = 2

                         Standard orientation:
 ---------------------------------------------------------------------
 Center     Atomic      Atomic             Coordinates (Angstroms)
 Number     Number       Type             X           Y           Z
 ---------------------------------------------------------------------
      1          6           0        0.523581    2.006661   -1.423134
      2          6           0       -0.493663    1.610347   -0.399565
      3          6           0       -0.621448    0.414875    0.206416
      4          6           0       -1.800894    0.162318    1.139334
      5          6           0       -3.090239   -0.142929    0.360691
      6          8           0       -2.938074   -1.208647   -0.569929
      7          6           0        0.212678   -0.771493   -0.063876
      8          6           0        1.555767   -0.907871   -0.075315
      9          6           0        2.176755   -2.234943   -0.451570
     10          6           0        2.538138    0.130433    0.291442
     11          6           0        2.430007    1.010971    1.291428
     12          1           0        0.988334    1.132761   -1.888244
     13          1           0        1.331345    2.597321   -0.968906
     14          1           0        0.067130    2.625046   -2.205740
     15          1           0       -1.203522    2.388584   -0.113818
     16          1           0       -1.576384   -0.678370    1.805094
     17          1           0       -1.978213    1.041287    1.772302
     18          1           0       -3.884347   -0.455238    1.046543
     19          1           0       -3.427648    0.772730   -0.150076
     20          1           0       -2.321311   -0.892728   -1.249622
     21          1           0       -0.368972   -1.678509   -0.237915
     22          1           0        2.845085   -2.121371   -1.316217
     23          1           0        2.790026   -2.632292    0.367733
     24          1           0        1.417083   -2.979502   -0.705994
     25          1           0        3.469552    0.104834   -0.277431
     26          1           0        3.229734    1.712223    1.512208
     27          1           0        1.542610    1.062179    1.914413
 ---------------------------------------------------------------------

 SCF Done:  E(UB3LYP) =  -466.030224155     A.U. after   33 cycles
 SCF Done:  E(UB3LYP) =  -466.030224154     a.u. after    1 cycles

 The electronic state is 2-A.
 Alpha  occ. eigenvalues --  -19.00736 -10.10290 -10.04991 -10.04279 -10.04128
 Alpha  occ. eigenvalues --  -10.03666 -10.03253 -10.03036 -10.02880 -10.02228
 Alpha  occ. eigenvalues --  -10.02092  -0.90888  -0.69992  -0.66757  -0.62283
 Alpha  occ. eigenvalues --   -0.60806  -0.57649  -0.53350  -0.49371  -0.47249
 Alpha  occ. eigenvalues --   -0.41968  -0.39382  -0.36817  -0.34559  -0.33074
 Alpha  occ. eigenvalues --   -0.32470  -0.31733  -0.29604  -0.28867  -0.27910
 Alpha  occ. eigenvalues --   -0.27591  -0.27266  -0.25290  -0.24507  -0.23865
 Alpha  occ. eigenvalues --   -0.21759  -0.20908  -0.19434  -0.17098  -0.15990
 Alpha  occ. eigenvalues --   -0.12868  -0.08326   0.05258
 Alpha virt. eigenvalues --    0.07878   0.08345   0.08898   0.09308   0.10258
 Alpha virt. eigenvalues --    0.10642   0.10931   0.11616   0.12133   0.12878
 Alpha virt. eigenvalues --    0.13364   0.13629   0.13993   0.14154   0.14973

  Beta  occ. eigenvalues --  -19.00712 -10.10280 -10.04973 -10.04274 -10.04150
  Beta  occ. eigenvalues --  -10.03499 -10.03204 -10.03025 -10.02720 -10.02102
  Beta  occ. eigenvalues --  -10.01896  -0.90833  -0.69745  -0.66510  -0.62151
  Beta  occ. eigenvalues --   -0.60539  -0.57504  -0.53228  -0.49271  -0.46787
  Beta  occ. eigenvalues --   -0.41758  -0.39318  -0.36631  -0.34474  -0.32965
  Beta  occ. eigenvalues --   -0.32330  -0.31620  -0.29467  -0.28744  -0.27755
  Beta  occ. eigenvalues --   -0.27495  -0.27188  -0.25188  -0.24400  -0.23800
  Beta  occ. eigenvalues --   -0.21673  -0.20801  -0.19311  -0.16931  -0.15204
  Beta  occ. eigenvalues --   -0.12225  -0.07470
  Beta virt. eigenvalues --    0.07825   0.08371   0.09070   0.09497   0.09919
  Beta virt. eigenvalues --    0.10555   0.10823   0.11022   0.11833   0.12315
  Beta virt. eigenvalues --    0.12982   0.13581   0.13853   0.14238   0.14346

 Mulliken charges and spin densities:
               1          2
     1  C    0.987410  -1.684931
     2  C   -0.993045   0.960430
     3  C    0.929804  -0.050028
     4  C   -0.131034  -0.141905
     5  C    0.226734  -0.692055
     6  O   -0.240588  -0.008924
     7  C   -1.337248   0.324302
     8  C    0.470516   0.030335
     9  C   -0.071577  -0.542445
    10  C   -0.394360   0.523382
    11  C   -0.186213  -0.305024
    12  H    0.075123   0.072701
    13  H    0.015875   0.140360
    14  H   -0.224472   0.358861
    15  H   -0.569681   0.716815
    16  H    0.159410  -0.001763
    17  H   -0.023737   0.170150
    18  H    0.053335   0.083760
    19  H   -0.041573   0.190885
    20  H    0.098231   0.159120
    21  H    0.147847   0.000513
    22  H   -0.149967   0.282483
    23  H    0.150678  -0.026848
    24  H   -0.017497   0.149995
    25  H   -0.003525   0.156602
    26  H   -0.051826   0.133849
    27  H    0.121381  -0.000619
 Sum of Mulliken charges =  -1.00000   1.00000

 Dipole moment (field-independent basis, Debye):
    X=             -0.6497    Y=             -1.8775    Z=              1.7723  Tot=              2.6624
 Quadrupole moment (field-independent basis, Debye-Ang):
   XX=           -112.6848   YY=           -105.5713   ZZ=            -91.3393
   XY=             -0.8101   XZ=             -3.0104   YZ=             -2.3793

 Summary of Natural Population Analysis:

                                       Natural Population
                Natural  -----------------------------------------------
    Atom  No    Charge         Core      Valence    Rydberg      Total
 -----------------------------------------------------------------------
      C    1   -0.30430      0.99965     2.29851    0.00614     3.30430
      C    2   -0.05598      0.99946     2.04679    0.00974     3.05598
      C    3   -0.04596      0.99947     2.03271    0.01378     3.04596
      C    4   -0.20645      0.99959     2.19693    0.00994     3.20645
      C    5   -0.00550      0.99960     1.99280    0.01310     3.00550
      O    6   -0.37415      0.99990     3.36767    0.00658     4.37415
      C    7   -0.09534      0.99944     2.08510    0.01081     3.09534
      C    8    0.00099      0.99949     1.98963    0.00989     2.99901
      C    9   -0.28923      0.99964     2.28392    0.00567     3.28923
      C   10   -0.10545      0.99954     2.09401    0.01190     3.10545
      C   11   -0.14544      0.99957     2.13847    0.00739     3.14544
      H   12    0.10565      0.00000     0.39297    0.00138     0.39435
      H   13    0.10683      0.00000     0.39196    0.00121     0.39317
      H   14    0.09576      0.00000     0.40317    0.00107     0.40424
      H   15    0.08468      0.00000     0.41346    0.00186     0.41532
      H   16    0.09716      0.00000     0.40173    0.00111     0.40284
      H   17    0.10090      0.00000     0.39800    0.00110     0.39910
      H   18    0.07922      0.00000     0.41970    0.00108     0.42078
      H   19    0.07473      0.00000     0.42368    0.00159     0.42527
      H   20    0.23310      0.00000     0.26378    0.00313     0.26690
      H   21    0.09381      0.00000     0.40480    0.00139     0.40619
      H   22    0.09903      0.00000     0.39968    0.00129     0.40097
      H   23    0.09563      0.00000     0.40348    0.00089     0.40437
      H   24    0.09757      0.00000     0.40165    0.00078     0.40243
      H   25    0.08805      0.00000     0.41069    0.00126     0.41195
      H   26    0.08419      0.00000     0.41487    0.00094     0.41581
      H   27    0.09051      0.00000     0.40851    0.00098     0.40949
 =======================================================================
   * Total *    0.00000     10.99534    30.87869    0.12598    42.00000

 Normal termination of Gaussian 16 at Tue Dec  8 19:31:34 2020.
