 Gaussian 16, Revision A.03,

 -----------------------------------------------------------
 # opt freq B3LYP/6-31G(d) empiricaldispersion=gd3bj scf=xqc
 -----------------------------------------------------------

 ------------------------------
 CID_63314309_JID_4721_neutraal
 ------------------------------
 Symbolic Z-matrix:
 Charge =  0 Multiplicity = 1

 SCF Done:  E(RB3LYP) =  -1006.92097126     A.U. after   14 cycles
 SCF Done:  E(RB3LYP) =  -1006.92132160     A.U. after   13 cycles
 SCF Done:  E(RB3LYP) =  -1006.92592981     A.U. after   14 cycles
 SCF Done:  E(RB3LYP) =  -1006.91926377     A.U. after   15 cycles
 SCF Done:  E(RB3LYP) =  -1006.92892021     A.U. after   13 cycles
 SCF Done:  E(RB3LYP) =  -1006.93174090     A.U. after   13 cycles
 SCF Done:  E(RB3LYP) =  -1006.93243067     A.U. after   12 cycles
 SCF Done:  E(RB3LYP) =  -1006.93308402     A.U. after   12 cycles
 SCF Done:  E(RB3LYP) =  -1006.93356263     A.U. after   12 cycles
 SCF Done:  E(RB3LYP) =  -1006.93371793     A.U. after   12 cycles
 SCF Done:  E(RB3LYP) =  -1006.93377869     A.U. after   10 cycles
 SCF Done:  E(RB3LYP) =  -1006.93378263     A.U. after    9 cycles
 SCF Done:  E(RB3LYP) =  -1006.93378457     A.U. after    8 cycles
 SCF Done:  E(RB3LYP) =  -1006.93378516     A.U. after    8 cycles
 SCF Done:  E(RB3LYP) =  -1006.93378532     A.U. after    8 cycles
 Optimization completed.
    -- Stationary point found.
 Normal termination of Gaussian 16 at Thu Dec 10 10:03:42 2020.

 --------------------------------------------------------------------
 #N Geom=AllCheck Guess=TCheck SCRF=Check GenChk RB3LYP/6-31G(d) Freq
 --------------------------------------------------------------------

 Structure from the checkpoint file:  "JID_4721.chk"
 ------------------------------
 CID_63314309_JID_4721_neutraal
 ------------------------------
 Charge =  0 Multiplicity = 1

 SCF Done:  E(RB3LYP) =  -1006.93378532     A.U. after    1 cycles

  Exact polarizability: 171.587  -7.541 130.045   2.532   2.839  92.643
 Approx polarizability: 224.727  -7.652 204.476   7.810  12.008 142.609

                      1                      2                      3
                      A                      A                      A
 Frequencies --     25.8038                48.7189                57.5140
 Red. masses --      6.2692                 3.4455                 3.0824
 Frc consts  --      0.0025                 0.0048                 0.0060
 IR Inten    --      0.2084                 0.9154                 2.9172

                      4                      5                      6
                      A                      A                      A
 Frequencies --     75.1534                93.5867               107.1756
 Red. masses --      3.0963                 4.2815                 4.1318
 Frc consts  --      0.0103                 0.0221                 0.0280
 IR Inten    --      3.9833                 1.1449                 1.3738

                      7                      8                      9
                      A                      A                      A
 Frequencies --    149.3228               168.2822               198.4317
 Red. masses --      3.6287                 2.3437                 3.5086
 Frc consts  --      0.0477                 0.0391                 0.0814
 IR Inten    --      3.7757                 1.7281                 0.3802

                     10                     11                     12
                      A                      A                      A
 Frequencies --    206.5440               238.5662               247.4120
 Red. masses --      4.3561                 1.7469                 2.0518
 Frc consts  --      0.1095                 0.0586                 0.0740
 IR Inten    --      1.2477                 0.1704                20.2333

                     13                     14                     15
                      A                      A                      A
 Frequencies --    282.4948               302.0564               328.3582
 Red. masses --      1.7721                 1.6048                 2.7081
 Frc consts  --      0.0833                 0.0863                 0.1720
 IR Inten    --      0.2339                30.1769                11.1689

                     16                     17                     18
                      A                      A                      A
 Frequencies --    350.3975               404.6854               447.8552
 Red. masses --      2.5968                 3.9798                 2.3669
 Frc consts  --      0.1879                 0.3840                 0.2797
 IR Inten    --      0.5317                 2.6691                 2.1593

                     19                     20                     21
                      A                      A                      A
 Frequencies --    477.5613               494.0038               503.8833
 Red. masses --      3.3687                 4.8704                 3.8636
 Frc consts  --      0.4527                 0.7003                 0.5780
 IR Inten    --      0.5255                 0.7199                 4.1238

                     22                     23                     24
                      A                      A                      A
 Frequencies --    630.1721               666.7407               691.1719
 Red. masses --      4.6182                 3.7782                 3.1846
 Frc consts  --      1.0805                 0.9896                 0.8964
 IR Inten    --      5.4667                 4.2918                32.1493

                     25                     26                     27
                      A                      A                      A
 Frequencies --    701.6887               725.8141               762.7176
 Red. masses --      2.8865                 1.4477                 4.5464
 Frc consts  --      0.8374                 0.4494                 1.5583
 IR Inten    --      4.8427               121.7861                17.7960

                     28                     29                     30
                      A                      A                      A
 Frequencies --    823.8788               858.7036               876.6896
 Red. masses --      1.4241                 2.3570                 2.1431
 Frc consts  --      0.5695                 1.0240                 0.9705
 IR Inten    --     15.6242                 1.3182                18.7764

                     31                     32                     33
                      A                      A                      A
 Frequencies --    889.2307               919.9621               952.8961
 Red. masses --      1.4926                 1.4056                 1.9372
 Frc consts  --      0.6954                 0.7009                 1.0363
 IR Inten    --     54.2212                11.7470                13.4308

                     34                     35                     36
                      A                      A                      A
 Frequencies --   1015.3584              1020.6017              1047.7717
 Red. masses --      1.9276                 5.0554                 1.9867
 Frc consts  --      1.1709                 3.1025                 1.2850
 IR Inten    --     53.6343                 5.4245                 3.0402

                     37                     38                     39
                      A                      A                      A
 Frequencies --   1055.9543              1061.9229              1108.3193
 Red. masses --      1.9710                 2.3943                 7.2831
 Frc consts  --      1.2949                 1.5908                 5.2710
 IR Inten    --      1.5302                 8.1302                 3.9278

                     40                     41                     42
                      A                      A                      A
 Frequencies --   1120.4866              1123.3368              1170.2366
 Red. masses --      3.3599                 2.0785                 2.2139
 Frc consts  --      2.4853                 1.5453                 1.7863
 IR Inten    --     72.5777                 4.5744                13.0096

                     43                     44                     45
                      A                      A                      A
 Frequencies --   1191.1554              1222.0126              1244.1137
 Red. masses --      1.2054                 1.2404                 3.5495
 Frc consts  --      1.0077                 1.0914                 3.2369
 IR Inten    --      0.9166                 9.7408                 8.0288

                     46                     47                     48
                      A                      A                      A
 Frequencies --   1271.6264              1284.3428              1322.5344
 Red. masses --      1.1150                 1.8020                 1.2715
 Frc consts  --      1.0623                 1.7513                 1.3103
 IR Inten    --     19.3107                 7.3780                 5.9218

                     49                     50                     51
                      A                      A                      A
 Frequencies --   1323.7673              1323.9901              1396.3311
 Red. masses --      1.2409                 1.2181                 1.7580
 Frc consts  --      1.2812                 1.2580                 2.0195
 IR Inten    --      5.5161                23.4794                30.3996

                     52                     53                     54
                      A                      A                      A
 Frequencies --   1401.3440              1421.0822              1424.1032
 Red. masses --      1.9930                 1.2935                 1.7883
 Frc consts  --      2.3059                 1.5391                 2.1369
 IR Inten    --      9.5980                 4.8335                 9.0652

                     55                     56                     57
                      A                      A                      A
 Frequencies --   1427.0927              1446.3583              1449.3552
 Red. masses --      1.4716                 2.3017                 1.3118
 Frc consts  --      1.7659                 2.8370                 1.6236
 IR Inten    --      4.9434                54.3735                 9.1150

                     58                     59                     60
                      A                      A                      A
 Frequencies --   1465.9349              1487.3472              1519.0192
 Red. masses --      1.1579                 2.8678                 1.2215
 Frc consts  --      1.4661                 3.7379                 1.6606
 IR Inten    --     12.2022                55.5057                21.2462

                     61                     62                     63
                      A                      A                      A
 Frequencies --   1522.7303              1527.5106              1530.5057
 Red. masses --      1.0622                 1.1692                 1.1010
 Frc consts  --      1.4511                 1.6073                 1.5195
 IR Inten    --      3.2870                69.9700                 1.1332

                     64                     65                     66
                      A                      A                      A
 Frequencies --   1531.9253              1535.3773              1538.6427
 Red. masses --      1.0826                 1.0873                 1.0566
 Frc consts  --      1.4969                 1.5102                 1.4738
 IR Inten    --      3.7577                15.2316                12.4355

                     67                     68                     69
                      A                      A                      A
 Frequencies --   1576.7751              1692.7740              2983.2397
 Red. masses --      7.3089                 1.0921                 1.0698
 Frc consts  --     10.7064                 1.8437                 5.6097
 IR Inten    --      6.4246                33.9500                69.3267

                     70                     71                     72
                      A                      A                      A
 Frequencies --   3025.9795              3047.7789              3053.1110
 Red. masses --      1.0632                 1.0656                 1.0369
 Frc consts  --      5.7356                 5.8317                 5.6945
 IR Inten    --     40.6956                28.0406                19.6442

                     73                     74                     75
                      A                      A                      A
 Frequencies --   3056.9942              3072.7632              3076.1819
 Red. masses --      1.0870                 1.0986                 1.0679
 Frc consts  --      5.9848                 6.1117                 5.9539
 IR Inten    --     37.8896                14.9179                46.7907

                     76                     77                     78
                      A                      A                      A
 Frequencies --   3079.6301              3102.9925              3121.4618
 Red. masses --      1.0611                 1.0984                 1.1030
 Frc consts  --      5.9291                 6.2311                 6.3318
 IR Inten    --     30.3068                 8.5850                22.8850

                     79                     80                     81
                      A                      A                      A
 Frequencies --   3124.4285              3131.5253              3141.5908
 Red. masses --      1.1029                 1.1043                 1.1040
 Frc consts  --      6.3433                 6.3807                 6.4200
 IR Inten    --     35.5560                13.3106                 6.0212

                     82                     83                     84
                      A                      A                      A
 Frequencies --   3459.2359              3466.3989              3553.8424
 Red. masses --      1.0672                 1.0498                 1.0931
 Frc consts  --      7.5241                 7.4318                 8.1338
 IR Inten    --    605.0423                 0.0597                 0.8272

 - Thermochemistry -
 -------------------
 Temperature   298.150 Kelvin.  Pressure   1.00000 Atm.
 Atom     1 has atomic number  6 and mass  12.00000

 Molecular mass:   216.10448 amu.
 Principal axes and moments of inertia in atomic units:
                           1         2         3
     Eigenvalues --  1881.043394452.758335772.01735
           X            1.00000   0.00074  -0.00248
           Y           -0.00077   0.99989  -0.01452
           Z            0.00247   0.01452   0.99989
 This molecule is an asymmetric top.
 Rotational symmetry number  1.
 Warning -- assumption of classical behavior for rotation
           may cause significant error
 Rotational temperatures (Kelvin)      0.04605     0.01945     0.01501
 Rotational constants (GHZ):           0.95944     0.40531     0.31267
 Zero-point vibrational energy     669946.9 (Joules/Mol)
                                  160.12114 (Kcal/Mol)
 Warning -- explicit consideration of  21 degrees of freedom as
           vibrations may cause significant error
 Vibrational temperatures:     37.13    70.10    82.75   108.13   134.65
          (Kelvin)            154.20   214.84   242.12   285.50   297.17
                              343.24   355.97   406.45   434.59   472.43
                              504.14   582.25   644.36   687.10   710.76
                              724.98   906.68   959.29   994.44  1009.57
                             1044.28  1097.38  1185.38  1235.48  1261.36
                             1279.40  1323.62  1371.01  1460.87  1468.42
                             1507.51  1519.28  1527.87  1594.62  1612.13
                             1616.23  1683.71  1713.81  1758.20  1790.00
                             1829.59  1847.88  1902.83  1904.61  1904.93
                             2009.01  2016.22  2044.62  2048.97  2053.27
                             2080.99  2085.30  2109.15  2139.96  2185.53
                             2190.87  2197.75  2202.06  2204.10  2209.07
                             2213.76  2268.63  2435.52  4292.22  4353.71
                             4385.07  4392.75  4398.33  4421.02  4425.94
                             4430.90  4464.51  4491.09  4495.36  4505.57
                             4520.05  4977.07  4987.37  5113.19

 Zero-point correction=                           0.255169 (Hartree/Particle)
 Thermal correction to Energy=                    0.270507
 Thermal correction to Enthalpy=                  0.271451
 Thermal correction to Gibbs Free Energy=         0.211273
 Sum of electronic and zero-point Energies=          -1006.678616
 Sum of electronic and thermal Energies=             -1006.663279
 Sum of electronic and thermal Enthalpies=           -1006.662334
 Sum of electronic and thermal Free Energies=        -1006.722512

                     E (Thermal)             CV                S
                      KCal/Mol        Cal/Mol-Kelvin    Cal/Mol-Kelvin
 Total                  169.746             55.545            126.655
 Electronic               0.000              0.000              0.000
 Translational            0.889              2.981             42.015
 Rotational               0.889              2.981             32.247
 Vibrational            167.968             49.584             52.393
 Vibration     1          0.593              1.985              6.128
 Vibration     2          0.595              1.978              4.869
 Vibration     3          0.596              1.974              4.541
 Vibration     4          0.599              1.966              4.014
 Vibration     5          0.603              1.954              3.584
 Vibration     6          0.606              1.943              3.319
 Vibration     7          0.618              1.903              2.681
 Vibration     8          0.625              1.882              2.455
 Vibration     9          0.637              1.842              2.148
 Vibration    10          0.641              1.831              2.074
 Vibration    11          0.657              1.782              1.814
 Vibration    12          0.661              1.767              1.749
 Vibration    13          0.682              1.706              1.519
 Vibration    14          0.694              1.670              1.405
 Vibration    15          0.712              1.619              1.268
 Vibration    16          0.727              1.574              1.164
 Vibration    17          0.770              1.460              0.946
 Vibration    18          0.807              1.366              0.802
 Vibration    19          0.834              1.300              0.717
 Vibration    20          0.850              1.263              0.673
 Vibration    21          0.859              1.241              0.648

                           ! Non-Optimized Parameters !
 Normal termination of Gaussian 16 at Thu Dec 10 10:11:31 2020.

 ----------------------------------------------------------------------
 # B3LYP/6-311++G(d,p) empiricaldispersion=gd3bj scf=xqc pop=npa geom=c
 heck
 ----------------------------------------------------------------------

 --------------------------------------
 CID_63314309_JID_4721_Energie_neutraal
 --------------------------------------
 Structure from the checkpoint file:  "JID_4721.chk"
 Charge =  0 Multiplicity = 1

 SCF Done:  E(RB3LYP) =  -1007.14512437     A.U. after   15 cycles
 Normal termination of Gaussian 16 at Thu Dec 10 10:14:57 2020.

 ----------------------------------------------------------------------
 # B3LYP/6-311++G(d,p) empiricaldispersion=gd3bj scf=xqc pop=npa geom=c
 heck
 ----------------------------------------------------------------------

 ------------------------------------
 CID_63314309_JID_4721_Energie_kation
 ------------------------------------
 Structure from the checkpoint file:  "JID_4721.chk"
 Charge =  1 Multiplicity = 2

 SCF Done:  E(UB3LYP) =  -1006.83857580     A.U. after   33 cycles
 SCF Done:  E(UB3LYP) =  -1006.83857580     a.u. after    1 cycles
 Normal termination of Gaussian 16 at Thu Dec 10 10:24:26 2020.
 Gaussian 16:  ES64L-G16RevA.03 25-Dec-2016

 ----------------------------------------------------------------------
 # B3LYP/6-311++G(d,p) empiricaldispersion=gd3bj scf=xqc pop=npa geom=c
 heck
 ----------------------------------------------------------------------

 -----------------------------------
 CID_63314309_JID_4721_Energie_anion
 -----------------------------------
 Structure from the checkpoint file:  "JID_4721.chk"
 Charge = -1 Multiplicity = 2

                         Standard orientation:
 ---------------------------------------------------------------------
 Center     Atomic      Atomic             Coordinates (Angstroms)
 Number     Number       Type             X           Y           Z
 ---------------------------------------------------------------------
      1          6           0        1.533884    2.481023   -1.185205
      2          6           0        2.418239    1.896706   -0.082949
      3          6           0        1.640000    1.139102    0.998735
      4          7           0        0.890191   -0.009142    0.484325
      5          6           0        1.352915   -1.288305    0.256020
      6          7           0        0.382427   -2.049450   -0.197398
      7          7           0       -0.746079   -1.267295   -0.291301
      8          6           0       -0.435887   -0.055235    0.126700
      9         16           0       -1.510999    1.333326    0.233660
     10          6           0       -3.125901    0.551670    0.674831
     11          6           0       -3.846539   -0.230902   -0.438345
     12          8           0       -3.513849   -1.590189   -0.490472
     13          6           0        2.753573   -1.760457    0.469613
     14          7           0        3.658593   -1.210168   -0.552342
     15          1           0        1.001107    1.693598   -1.729092
     16          1           0        2.140159    3.030074   -1.913279
     17          1           0        0.785597    3.172936   -0.781705
     18          1           0        3.158174    1.211094   -0.508215
     19          1           0        2.966802    2.701400    0.424311
     20          1           0        2.324407    0.762857    1.764621
     21          1           0        0.912539    1.790617    1.492094
     22          1           0       -2.984138   -0.087202    1.550395
     23          1           0       -3.717799    1.424327    0.972900
     24          1           0       -4.921089   -0.184860   -0.218668
     25          1           0       -3.689383    0.289128   -1.398730
     26          1           0       -2.535966   -1.656451   -0.588707
     27          1           0        3.117929   -1.430346    1.450331
     28          1           0        2.700658   -2.858468    0.492619
     29          1           0        4.605474   -1.544414   -0.379305
     30          1           0        3.384675   -1.575223   -1.463742
 ---------------------------------------------------------------------

 SCF Done:  E(UB3LYP) =  -1007.13720753     A.U. after   30 cycles

 The electronic state is 2-A.
 Alpha  occ. eigenvalues --  -88.77875 -19.00975 -14.29346 -14.23874 -14.23392
 Alpha  occ. eigenvalues --  -14.20292 -10.17201 -10.14461 -10.13213 -10.12629
 Alpha  occ. eigenvalues --  -10.12393 -10.11454 -10.07442 -10.06983  -7.86491
 Alpha  occ. eigenvalues --   -5.82908  -5.82480  -5.81865  -0.97807  -0.91973
 Alpha  occ. eigenvalues --   -0.84173  -0.79818  -0.75053  -0.70248  -0.69633
 Alpha  occ. eigenvalues --   -0.62902  -0.61540  -0.59740  -0.54522  -0.52581
 Alpha  occ. eigenvalues --   -0.50285  -0.47310  -0.43157  -0.41563  -0.40261
 Alpha  occ. eigenvalues --   -0.39190  -0.38218  -0.36861  -0.36453  -0.35177
 Alpha  occ. eigenvalues --   -0.34051  -0.32935  -0.32256  -0.31682  -0.29971
 Alpha  occ. eigenvalues --   -0.29475  -0.27584  -0.27158  -0.26271  -0.25508
 Alpha  occ. eigenvalues --   -0.24607  -0.22263  -0.20266  -0.19790  -0.18034
 Alpha  occ. eigenvalues --   -0.17576  -0.15736  -0.14340   0.03964
 Alpha virt. eigenvalues --    0.05353   0.06714   0.07294   0.08386   0.08638
 Alpha virt. eigenvalues --    0.08937   0.09220   0.09765   0.10174   0.10525
 Alpha virt. eigenvalues --    0.11153   0.11602   0.12304   0.12726   0.13034

  Beta  occ. eigenvalues --  -88.77870 -19.00975 -14.29344 -14.23855 -14.23365
  Beta  occ. eigenvalues --  -14.20232 -10.17203 -10.14466 -10.13206 -10.12600
  Beta  occ. eigenvalues --  -10.12377 -10.11418 -10.07421 -10.06971  -7.86486
  Beta  occ. eigenvalues --   -5.82901  -5.82473  -5.81862  -0.97786  -0.91970
  Beta  occ. eigenvalues --   -0.84146  -0.79732  -0.75019  -0.70215  -0.69598
  Beta  occ. eigenvalues --   -0.62866  -0.61503  -0.59645  -0.54495  -0.52538
  Beta  occ. eigenvalues --   -0.50254  -0.47267  -0.43104  -0.41552  -0.40202
  Beta  occ. eigenvalues --   -0.39149  -0.38184  -0.36832  -0.36408  -0.35115
  Beta  occ. eigenvalues --   -0.34009  -0.32886  -0.32231  -0.31655  -0.29901
  Beta  occ. eigenvalues --   -0.29452  -0.27556  -0.27121  -0.26233  -0.25481
  Beta  occ. eigenvalues --   -0.24575  -0.22240  -0.20202  -0.19752  -0.17994
  Beta  occ. eigenvalues --   -0.17563  -0.15679  -0.14302
  Beta virt. eigenvalues --    0.05834   0.06698   0.07490   0.07904   0.08586
  Beta virt. eigenvalues --    0.08880   0.09246   0.09383   0.10217   0.10484
  Beta virt. eigenvalues --    0.10871   0.11605   0.11860   0.12557   0.12888

 Mulliken charges and spin densities:
               1          2
     1  C    0.204647  -0.710627
     2  C   -0.239505  -0.234614
     3  C    0.323949  -0.400581
     4  N    0.158780   0.046671
     5  C    0.702406  -0.138872
     6  N   -0.077152   0.074792
     7  N   -0.152796   0.008760
     8  C   -0.041908   0.012309
     9  S   -0.157669  -0.445382
    10  C    0.124378  -0.322791
    11  C   -0.198494  -0.186294
    12  O   -0.330938   0.006158
    13  C    0.517114  -1.354265
    14  N   -0.526396   0.181876
    15  H    0.082394   0.085914
    16  H   -0.099327   0.253155
    17  H    0.017676   0.118824
    18  H    0.358002  -0.091508
    19  H   -0.391307   0.541328
    20  H   -0.317602   0.497025
    21  H   -0.473642   0.619682
    22  H    0.200657   0.026996
    23  H   -0.249298   0.420719
    24  H    0.082305   0.076304
    25  H    0.092902   0.034235
    26  H    0.389454   0.021394
    27  H   -0.654734   0.849359
    28  H    0.124581   0.061226
    29  H   -0.417026   0.677363
    30  H   -0.051448   0.270845
 Sum of Mulliken charges =  -1.00000   1.00000

 Dipole moment (field-independent basis, Debye):
    X=             -6.2052    Y=              2.2541    Z=             -1.3099  Tot=              6.7306
 Quadrupole moment (field-independent basis, Debye-Ang):
   XX=           -179.9642   YY=           -143.0699   ZZ=           -123.3104
   XY=             -0.4956   XZ=             -7.0268   YZ=             -4.6125

 Summary of Natural Population Analysis:

                                       Natural Population
                Natural  -----------------------------------------------
    Atom  No    Charge         Core      Valence    Rydberg      Total
 -----------------------------------------------------------------------
      C    1   -0.28942      0.99966     2.28544    0.00431     3.28942
      C    2   -0.20213      0.99962     2.19511    0.00740     3.20213
      C    3   -0.08484      0.99960     2.07375    0.01150     3.08484
      N    4   -0.21532      0.99957     2.70354    0.01221     3.71532
      C    5    0.18859      0.99959     1.79404    0.01777     2.81141
      N    6   -0.14970      0.99969     2.63839    0.01163     3.64970
      N    7   -0.20040      0.99962     2.68440    0.01637     3.70040
      C    8    0.11035      0.99953     1.87018    0.01994     2.88965
      S    9    0.12355      4.99953     2.85672    0.02019     7.87645
      C   10   -0.25900      0.99958     2.24770    0.01171     3.25900
      C   11   -0.01714      0.99959     2.00200    0.01554     3.01714
      O   12   -0.38512      0.99989     3.37766    0.00757     4.38512
      C   13   -0.11225      0.99959     2.10031    0.01235     3.11225
      N   14   -0.41894      0.99977     2.90841    0.01076     3.91894
      H   15    0.09828      0.00000     0.40040    0.00132     0.40172
      H   16    0.10072      0.00000     0.39849    0.00078     0.39928
      H   17    0.09723      0.00000     0.40157    0.00120     0.40277
      H   18    0.11667      0.00000     0.38123    0.00209     0.38333
      H   19    0.09831      0.00000     0.40024    0.00145     0.40169
      H   20    0.10834      0.00000     0.38961    0.00205     0.39166
      H   21    0.10517      0.00000     0.39282    0.00201     0.39483
      H   22    0.11011      0.00000     0.38848    0.00140     0.38989
      H   23    0.10823      0.00000     0.39017    0.00159     0.39177
      H   24    0.08429      0.00000     0.41437    0.00133     0.41571
      H   25    0.07657      0.00000     0.42206    0.00138     0.42343
      H   26    0.24861      0.00000     0.24756    0.00384     0.25139
      H   27    0.10286      0.00000     0.39446    0.00268     0.39714
      H   28    0.09768      0.00000     0.40048    0.00185     0.40232
      H   29    0.18371      0.00000     0.30844    0.00785     0.31629
      H   30    0.17498      0.00000     0.32296    0.00206     0.32502
 =======================================================================
   * Total *   -0.00000     17.99485    39.79101    0.21415    58.00000

 Normal termination of Gaussian 16 at Thu Dec 10 10:34:58 2020.
