 Gaussian 16, Revision A.03,

 -----------------------------------------------------------
 # opt freq B3LYP/6-31G(d) empiricaldispersion=gd3bj scf=xqc
 -----------------------------------------------------------

 -------------------------------
 CID_130527876_JID_5244_neutraal
 -------------------------------
 Symbolic Z-matrix:
 Charge =  0 Multiplicity = 1

 SCF Done:  E(RB3LYP) =  -652.895911494     A.U. after   14 cycles
 SCF Done:  E(RB3LYP) =  -652.899872370     A.U. after   12 cycles
 SCF Done:  E(RB3LYP) =  -652.899124399     A.U. after   13 cycles
 SCF Done:  E(RB3LYP) =  -652.898434991     A.U. after   12 cycles
 SCF Done:  E(RB3LYP) =  -652.895685650     A.U. after   12 cycles
 SCF Done:  E(RB3LYP) =  -652.899987064     A.U. after    9 cycles
 SCF Done:  E(RB3LYP) =  -652.901057187     A.U. after   12 cycles
 SCF Done:  E(RB3LYP) =  -652.900921440     A.U. after   12 cycles
 SCF Done:  E(RB3LYP) =  -652.901298252     A.U. after   12 cycles
 SCF Done:  E(RB3LYP) =  -652.901432886     A.U. after   11 cycles
 SCF Done:  E(RB3LYP) =  -652.901486190     A.U. after   10 cycles
 SCF Done:  E(RB3LYP) =  -652.901490314     A.U. after    9 cycles
 SCF Done:  E(RB3LYP) =  -652.901491108     A.U. after    8 cycles
 SCF Done:  E(RB3LYP) =  -652.901491388     A.U. after    8 cycles
 SCF Done:  E(RB3LYP) =  -652.901491518     A.U. after    7 cycles
 Optimization completed.
    -- Stationary point found.
 Normal termination of Gaussian 16 at Thu Dec 10 14:58:03 2020.

 --------------------------------------------------------------------
 #N Geom=AllCheck Guess=TCheck SCRF=Check GenChk RB3LYP/6-31G(d) Freq
 --------------------------------------------------------------------

 Structure from the checkpoint file:  "JID_5244.chk"
 -------------------------------
 CID_130527876_JID_5244_neutraal
 -------------------------------
 Charge =  0 Multiplicity = 1

 SCF Done:  E(RB3LYP) =  -652.901491518     A.U. after    1 cycles

  Exact polarizability: 170.267  -6.070 122.323  14.037  10.943 117.297
 Approx polarizability: 238.346 -11.432 184.007  32.756  35.243 196.057

                      1                      2                      3
                      A                      A                      A
 Frequencies --     36.8707                66.8012               112.9184
 Red. masses --      4.7407                 3.5698                 3.0186
 Frc consts  --      0.0038                 0.0094                 0.0227
 IR Inten    --      1.1032                 1.6859                 0.6605

                      4                      5                      6
                      A                      A                      A
 Frequencies --    128.2346               149.0546               163.5130
 Red. masses --      3.3845                 3.5345                 3.7054
 Frc consts  --      0.0328                 0.0463                 0.0584
 IR Inten    --      4.3966                 1.2772                 3.6229

                      7                      8                      9
                      A                      A                      A
 Frequencies --    190.0689               209.7514               226.1505
 Red. masses --      3.3229                 1.2564                 3.3482
 Frc consts  --      0.0707                 0.0326                 0.1009
 IR Inten    --      4.3557                29.1718                 1.9684

                     10                     11                     12
                      A                      A                      A
 Frequencies --    244.2895               275.9250               330.9030
 Red. masses --      2.5297                 2.5937                 2.2960
 Frc consts  --      0.0889                 0.1163                 0.1481
 IR Inten    --     10.2055                 0.2185                 2.5299

                     13                     14                     15
                      A                      A                      A
 Frequencies --    349.9495               382.6503               421.6187
 Red. masses --      3.1188                 2.8642                 2.8232
 Frc consts  --      0.2250                 0.2471                 0.2957
 IR Inten    --      5.5487                 1.2432                 5.0266

                     16                     17                     18
                      A                      A                      A
 Frequencies --    462.9318               492.0165               530.2449
 Red. masses --      3.3094                 2.9455                 3.4880
 Frc consts  --      0.4179                 0.4201                 0.5778
 IR Inten    --      2.2662                 7.9794                 7.5078

                     19                     20                     21
                      A                      A                      A
 Frequencies --    554.5138               582.3672               615.4193
 Red. masses --      2.0413                 2.2860                 4.0936
 Frc consts  --      0.3698                 0.4568                 0.9135
 IR Inten    --      5.1350                33.4115                 3.3862

                     22                     23                     24
                      A                      A                      A
 Frequencies --    643.1184               671.6448               747.5362
 Red. masses --      3.1105                 1.6819                 1.2299
 Frc consts  --      0.7580                 0.4470                 0.4049
 IR Inten    --      1.0619                15.1097                65.9234

                     25                     26                     27
                      A                      A                      A
 Frequencies --    768.9022               792.6154               804.6432
 Red. masses --      3.7235                 2.3459                 1.5069
 Frc consts  --      1.2970                 0.8683                 0.5748
 IR Inten    --     10.2788                 1.8078                 1.6472

                     28                     29                     30
                      A                      A                      A
 Frequencies --    827.0058               850.5709               858.6414
 Red. masses --      1.3120                 1.3503                 2.6991
 Frc consts  --      0.5287                 0.5756                 1.1724
 IR Inten    --     20.0582                66.0414                 0.7415

                     31                     32                     33
                      A                      A                      A
 Frequencies --    879.2832               887.2321               905.8925
 Red. masses --      1.6317                 1.4423                 4.1199
 Frc consts  --      0.7433                 0.6689                 1.9920
 IR Inten    --     48.7055                19.0270                 2.1860

                     34                     35                     36
                      A                      A                      A
 Frequencies --    919.2669               928.0882               956.5584
 Red. masses --      2.5856                 2.7167                 1.4178
 Frc consts  --      1.2873                 1.3787                 0.7644
 IR Inten    --      4.0397                15.6678                 1.5333

                     37                     38                     39
                      A                      A                      A
 Frequencies --    966.6011              1004.0078              1041.0235
 Red. masses --      2.4643                 1.9361                 1.7884
 Frc consts  --      1.3566                 1.1499                 1.1419
 IR Inten    --      3.4848                 4.2826                 3.6964

                     40                     41                     42
                      A                      A                      A
 Frequencies --   1060.5940              1073.2179              1082.2167
 Red. masses --      2.2027                 2.2951                 1.3111
 Frc consts  --      1.4598                 1.5575                 0.9047
 IR Inten    --      6.8866                 4.6311                36.8197

                     43                     44                     45
                      A                      A                      A
 Frequencies --   1090.5479              1110.4897              1125.2989
 Red. masses --      1.5793                 1.9552                 1.8788
 Frc consts  --      1.1067                 1.4206                 1.4018
 IR Inten    --      1.3471                 7.8503               109.6325

                     46                     47                     48
                      A                      A                      A
 Frequencies --   1137.9740              1149.7131              1166.6034
 Red. masses --      2.2303                 1.5549                 1.4296
 Frc consts  --      1.7017                 1.2110                 1.1463
 IR Inten    --     53.4100                 6.9805                 0.2362

                     49                     50                     51
                      A                      A                      A
 Frequencies --   1179.7866              1224.7854              1263.1836
 Red. masses --      1.4601                 2.1589                 1.6291
 Frc consts  --      1.1974                 1.9081                 1.5315
 IR Inten    --      6.1833                 4.4667                 7.7046

                     52                     53                     54
                      A                      A                      A
 Frequencies --   1285.3824              1302.8598              1312.6090
 Red. masses --      1.4857                 1.3669                 1.4061
 Frc consts  --      1.4463                 1.3670                 1.4273
 IR Inten    --     14.1187                 0.5301                16.9452

                     55                     56                     57
                      A                      A                      A
 Frequencies --   1329.0773              1345.8355              1369.5111
 Red. masses --      1.4399                 2.1161                 1.3722
 Frc consts  --      1.4986                 2.2583                 1.5163
 IR Inten    --     22.2438                58.5986                 0.2919

                     58                     59                     60
                      A                      A                      A
 Frequencies --   1385.0820              1387.7012              1400.7834
 Red. masses --      1.6282                 1.4019                 1.4852
 Frc consts  --      1.8404                 1.5905                 1.7170
 IR Inten    --     10.3925                 0.5217                 0.4058

                     61                     62                     63
                      A                      A                      A
 Frequencies --   1402.6609              1413.8692              1432.5454
 Red. masses --      1.3979                 1.4633                 1.7810
 Frc consts  --      1.6204                 1.7235                 2.1534
 IR Inten    --      5.1157                 0.6495                28.1615

                     64                     65                     66
                      A                      A                      A
 Frequencies --   1439.6228              1467.0866              1501.9799
 Red. masses --      2.4679                 3.8561                 1.1765
 Frc consts  --      3.0136                 4.8900                 1.5638
 IR Inten    --     51.3429               117.2437                 5.5036

                     67                     68                     69
                      A                      A                      A
 Frequencies --   1503.2221              1516.7708              1520.0609
 Red. masses --      2.7413                 1.0982                 1.0881
 Frc consts  --      3.6496                 1.4885                 1.4813
 IR Inten    --      0.3100                 0.1334                 3.6684

                     70                     71                     72
                      A                      A                      A
 Frequencies --   1524.4667              1530.4768              1539.4566
 Red. masses --      1.0887                 1.0878                 1.1024
 Frc consts  --      1.4908                 1.5013                 1.5393
 IR Inten    --      4.0155                15.8551                 7.8239

                     73                     74                     75
                      A                      A                      A
 Frequencies --   1591.2971              1688.8185              1697.9051
 Red. masses --      3.9095                 7.8000                 1.1362
 Frc consts  --      5.8328                13.1072                 1.9299
 IR Inten    --     35.9029               169.0370                56.3989

                     76                     77                     78
                      A                      A                      A
 Frequencies --   2975.2133              3008.8420              3017.0153
 Red. masses --      1.0719                 1.0739                 1.0678
 Frc consts  --      5.5904                 5.7279                 5.7267
 IR Inten    --     60.8826                19.0015                28.2046

                     79                     80                     81
                      A                      A                      A
 Frequencies --   3030.7739              3035.1348              3051.2123
 Red. masses --      1.0697                 1.0617                 1.0667
 Frc consts  --      5.7892                 5.7626                 5.8509
 IR Inten    --     49.2135                37.8706                47.2756

                     82                     83                     84
                      A                      A                      A
 Frequencies --   3070.3409              3076.2515              3084.6222
 Red. masses --      1.0927                 1.1038                 1.0913
 Frc consts  --      6.0689                 6.1544                 6.1177
 IR Inten    --     70.4613                51.7186                20.2555

                     85                     86                     87
                      A                      A                      A
 Frequencies --   3102.5083              3112.0471              3146.4672
 Red. masses --      1.0964                 1.0951                 1.0870
 Frc consts  --      6.2178                 6.2488                 6.3406
 IR Inten    --     40.0377                30.1493                19.5205

                     88                     89                     90
                      A                      A                      A
 Frequencies --   3257.7070              3278.6374              3315.9160
 Red. masses --      1.0905                 1.1016                 1.0965
 Frc consts  --      6.8189                 6.9768                 7.1034
 IR Inten    --      6.1691                 5.9629                 1.0175

                     91                     92                     93
                      A                      A                      A
 Frequencies --   3489.3565              3573.6451              3642.4046
 Red. masses --      1.0500                 1.0932                 1.0800
 Frc consts  --      7.5320                 8.2254                 8.4419
 IR Inten    --      0.1993                 0.2298                77.6644

 - Thermochemistry -
 -------------------
 Temperature   298.150 Kelvin.  Pressure   1.00000 Atm.
 Atom     1 has atomic number  6 and mass  12.00000

 Molecular mass:   206.14191 amu.
 Principal axes and moments of inertia in atomic units:
                           1         2         3
     Eigenvalues --  1963.655843906.784784358.35023
           X            0.99997   0.00746  -0.00021
           Y           -0.00746   0.99978  -0.01943
           Z            0.00006   0.01943   0.99981
 This molecule is an asymmetric top.
 Rotational symmetry number  1.
 Warning -- assumption of classical behavior for rotation
           may cause significant error
 Rotational temperatures (Kelvin)      0.04411     0.02217     0.01987
 Rotational constants (GHZ):           0.91907     0.46195     0.41409
 Zero-point vibrational energy     764416.2 (Joules/Mol)
                                  182.69986 (Kcal/Mol)
 Warning -- explicit consideration of  21 degrees of freedom as
           vibrations may cause significant error
 Vibrational temperatures:     53.05    96.11   162.46   184.50   214.46
          (Kelvin)            235.26   273.47   301.79   325.38   351.48
                              396.99   476.10   503.50   550.55   606.62
                              666.06   707.90   762.90   797.82   837.90
                              885.45   925.30   966.35  1075.54  1106.28
                             1140.40  1157.70  1189.88  1223.78  1235.39
                             1265.09  1276.53  1303.38  1322.62  1335.31
                             1376.27  1390.72  1444.54  1497.80  1525.96
                             1544.12  1557.07  1569.06  1597.75  1619.05
                             1637.29  1654.18  1678.48  1697.45  1762.19
                             1817.44  1849.38  1874.52  1888.55  1912.25
                             1936.36  1970.42  1992.82  1996.59  2015.41
                             2018.12  2034.24  2061.11  2071.30  2110.81
                             2161.01  2162.80  2182.29  2187.03  2193.37
                             2202.01  2214.93  2289.52  2429.83  2442.91
                             4280.67  4329.05  4340.81  4360.61  4366.88
                             4390.01  4417.54  4426.04  4438.08  4463.82
                             4477.54  4527.06  4687.11  4717.23  4770.86
                             5020.41  5141.68  5240.61

 Zero-point correction=                           0.291151 (Hartree/Particle)
 Thermal correction to Energy=                    0.305088
 Thermal correction to Enthalpy=                  0.306032
 Thermal correction to Gibbs Free Energy=         0.250736
 Sum of electronic and zero-point Energies=           -652.610341
 Sum of electronic and thermal Energies=              -652.596404
 Sum of electronic and thermal Enthalpies=            -652.595460
 Sum of electronic and thermal Free Energies=         -652.650755

                     E (Thermal)             CV                S
                      KCal/Mol        Cal/Mol-Kelvin    Cal/Mol-Kelvin
 Total                  191.445             55.253            116.379
 Electronic               0.000              0.000              0.000
 Translational            0.889              2.981             41.874
 Rotational               0.889              2.981             31.881
 Vibrational            189.668             49.292             42.624
 Vibration     1          0.594              1.982              5.421
 Vibration     2          0.598              1.970              4.245
 Vibration     3          0.607              1.939              3.218
 Vibration     4          0.611              1.925              2.972
 Vibration     5          0.618              1.904              2.684
 Vibration     6          0.623              1.887              2.509
 Vibration     7          0.633              1.854              2.227
 Vibration     8          0.642              1.826              2.046
 Vibration     9          0.650              1.801              1.909
 Vibration    10          0.660              1.772              1.771
 Vibration    11          0.678              1.718              1.559
 Vibration    12          0.713              1.614              1.256
 Vibration    13          0.727              1.575              1.166
 Vibration    14          0.752              1.507              1.029
 Vibration    15          0.784              1.423              0.886
 Vibration    16          0.821              1.332              0.758
 Vibration    17          0.848              1.268              0.678
 Vibration    18          0.885              1.183              0.587
 Vibration    19          0.910              1.130              0.535
 Vibration    20          0.939              1.069              0.481
 Vibration    21          0.975              0.999              0.424

                           ! Non-Optimized Parameters !
 Normal termination of Gaussian 16 at Thu Dec 10 15:11:15 2020.

 ----------------------------------------------------------------------
 # B3LYP/6-311++G(d,p) empiricaldispersion=gd3bj scf=xqc pop=npa geom=c
 heck
 ----------------------------------------------------------------------

 ---------------------------------------
 CID_130527876_JID_5244_Energie_neutraal
 ---------------------------------------
 Structure from the checkpoint file:  "JID_5244.chk"
 Charge =  0 Multiplicity = 1

 SCF Done:  E(RB3LYP) =  -653.089512182     A.U. after   15 cycles
 Normal termination of Gaussian 16 at Thu Dec 10 15:17:31 2020.

 ----------------------------------------------------------------------
 # B3LYP/6-311++G(d,p) empiricaldispersion=gd3bj scf=xqc pop=npa geom=c
 heck
 ----------------------------------------------------------------------

 -------------------------------------
 CID_130527876_JID_5244_Energie_kation
 -------------------------------------
 Structure from the checkpoint file:  "JID_5244.chk"
 Charge =  1 Multiplicity = 2

 SCF Done:  E(UB3LYP) =  -652.796977461     A.U. after   25 cycles
 Normal termination of Gaussian 16 at Thu Dec 10 15:32:24 2020.
 Gaussian 16:  ES64L-G16RevA.03 25-Dec-2016

 ----------------------------------------------------------------------
 # B3LYP/6-311++G(d,p) empiricaldispersion=gd3bj scf=xqc pop=npa geom=c
 heck
 ----------------------------------------------------------------------

 ------------------------------------
 CID_130527876_JID_5244_Energie_anion
 ------------------------------------
 Structure from the checkpoint file:  "JID_5244.chk"
 Charge = -1 Multiplicity = 2

                         Standard orientation:
 ---------------------------------------------------------------------
 Center     Atomic      Atomic             Coordinates (Angstroms)
 Number     Number       Type             X           Y           Z
 ---------------------------------------------------------------------
      1          6           0       -2.798007   -1.365574    1.050995
      2          6           0       -2.695577   -1.289358   -0.476977
      3          6           0       -2.287104    0.113184   -0.945650
      4          6           0       -0.981939    0.625883   -0.290874
      5          6           0       -1.139481    0.538638    1.243717
      6          6           0       -1.506008   -0.874234    1.713966
      7          6           0       -0.774726    2.101440   -0.741729
      8          7           0        0.201641    2.834385    0.068109
      9          6           0        0.196936   -0.217745   -0.820235
     10          8           0        0.046963   -0.914656   -1.830213
     11          6           0        1.510389   -0.237076   -0.178660
     12          6           0        2.181018    0.467153    0.824114
     13          6           0        3.483663   -0.067309    0.927537
     14          6           0        3.589061   -1.088443   -0.010157
     15          7           0        2.404627   -1.175129   -0.665304
     16          1           0       -3.024436   -2.391113    1.368397
     17          1           0       -3.634935   -0.738193    1.392865
     18          1           0       -1.957596   -2.014247   -0.836391
     19          1           0       -3.654892   -1.561147   -0.935008
     20          1           0       -3.085570    0.821419   -0.682916
     21          1           0       -2.180949    0.127694   -2.034107
     22          1           0       -1.944284    1.230986    1.536381
     23          1           0       -0.232975    0.877570    1.746602
     24          1           0       -1.607279   -0.884433    2.806290
     25          1           0       -0.681600   -1.558834    1.470519
     26          1           0       -0.428265    2.099423   -1.781250
     27          1           0       -1.768454    2.579749   -0.743929
     28          1           0        0.554005    3.634778   -0.450274
     29          1           0       -0.247891    3.205756    0.901654
     30          1           0        1.783145    1.316270    1.354084
     31          1           0        4.264557    0.253885    1.603036
     32          1           0        4.412857   -1.747508   -0.244766
     33          1           0        2.145637   -1.788953   -1.425402
 ---------------------------------------------------------------------

 SCF Done:  E(UB3LYP) =  -653.081738920     A.U. after   33 cycles
 SCF Done:  E(UB3LYP) =  -653.081738920     a.u. after    1 cycles

 The electronic state is 2-A.
 Alpha  occ. eigenvalues --  -18.93879 -14.21763 -14.17139 -10.08426 -10.06947
 Alpha  occ. eigenvalues --  -10.06765 -10.05369 -10.05354 -10.05309 -10.04952
 Alpha  occ. eigenvalues --  -10.04414 -10.04249 -10.03863 -10.03288 -10.02145
 Alpha  occ. eigenvalues --   -0.88200  -0.84151  -0.76495  -0.71269  -0.64641
 Alpha  occ. eigenvalues --   -0.63947  -0.62418  -0.60156  -0.54051  -0.50048
 Alpha  occ. eigenvalues --   -0.48837  -0.46221  -0.45777  -0.44403  -0.42133
 Alpha  occ. eigenvalues --   -0.37766  -0.36611  -0.34448  -0.33193  -0.32688
 Alpha  occ. eigenvalues --   -0.31914  -0.30776  -0.30155  -0.29545  -0.28930
 Alpha  occ. eigenvalues --   -0.27592  -0.26805  -0.26320  -0.25225  -0.24535
 Alpha  occ. eigenvalues --   -0.23983  -0.22850  -0.22338  -0.22099  -0.20259
 Alpha  occ. eigenvalues --   -0.18356  -0.17858  -0.12910  -0.12007  -0.10194
 Alpha  occ. eigenvalues --   -0.09151   0.05139
 Alpha virt. eigenvalues --    0.07140   0.07924   0.08188   0.09139   0.09692
 Alpha virt. eigenvalues --    0.10108   0.10715   0.11147   0.11429   0.12360
 Alpha virt. eigenvalues --    0.13113   0.13436   0.14047   0.14256   0.14756

  Beta  occ. eigenvalues --  -18.93520 -14.21624 -14.17105 -10.08084 -10.06908
  Beta  occ. eigenvalues --  -10.06639 -10.05407 -10.05351 -10.05335 -10.04948
  Beta  occ. eigenvalues --  -10.04411 -10.04230 -10.03852 -10.03350 -10.01984
  Beta  occ. eigenvalues --   -0.87582  -0.83869  -0.76420  -0.71222  -0.64467
  Beta  occ. eigenvalues --   -0.63821  -0.62376  -0.59910  -0.53952  -0.49698
  Beta  occ. eigenvalues --   -0.48596  -0.46130  -0.45708  -0.44242  -0.41982
  Beta  occ. eigenvalues --   -0.37711  -0.36501  -0.34319  -0.33039  -0.32575
  Beta  occ. eigenvalues --   -0.31843  -0.30637  -0.30077  -0.29023  -0.28669
  Beta  occ. eigenvalues --   -0.27302  -0.26690  -0.26266  -0.25129  -0.24476
  Beta  occ. eigenvalues --   -0.23924  -0.22679  -0.22191  -0.21224  -0.19629
  Beta  occ. eigenvalues --   -0.18170  -0.17828  -0.12642  -0.11576  -0.09899
  Beta  occ. eigenvalues --   -0.08260
  Beta virt. eigenvalues --    0.07473   0.08125   0.08445   0.09175   0.09834
  Beta virt. eigenvalues --    0.10020   0.10372   0.11054   0.11072   0.11859
  Beta virt. eigenvalues --    0.12276   0.13085   0.13450   0.14135   0.14369

 Mulliken charges and spin densities:
               1          2
     1  C   -0.204174  -0.327486
     2  C   -0.374357  -0.004686
     3  C    0.565597  -0.765988
     4  C    0.234570   1.298820
     5  C   -0.131284  -0.062453
     6  C   -0.444147   0.005354
     7  C    1.133824  -1.838549
     8  N   -0.635142   0.216620
     9  C   -0.935250   0.202618
    10  O   -0.364323   0.130222
    11  C   -0.748468   0.045884
    12  C    0.690501   0.031066
    13  C   -0.482335  -0.309744
    14  C   -0.109844   0.207750
    15  N   -0.021994   0.064142
    16  H    0.082494   0.055340
    17  H    0.076328   0.020976
    18  H    0.144029   0.038580
    19  H    0.061997   0.076424
    20  H    0.002738   0.123965
    21  H    0.204172  -0.013052
    22  H   -0.060401   0.233258
    23  H   -0.031960   0.116686
    24  H    0.087568   0.063214
    25  H    0.155209   0.005474
    26  H    0.173656   0.017910
    27  H   -0.583965   0.740453
    28  H   -0.018918   0.259039
    29  H   -0.116428   0.335865
    30  H    0.232619  -0.045287
    31  H    0.059895   0.053065
    32  H    0.086848   0.020154
    33  H    0.270943   0.004365
 Sum of Mulliken charges =  -1.00000   1.00000

 Dipole moment (field-independent basis, Debye):
    X=              0.2924    Y=             -4.1905    Z=              1.0031  Tot=              4.3188
 Quadrupole moment (field-independent basis, Debye-Ang):
   XX=           -128.1280   YY=           -129.5086   ZZ=           -114.4123
   XY=              3.9040   XZ=             -2.2563   YZ=             -1.4302

 Summary of Natural Population Analysis:

                                       Natural Population
                Natural  -----------------------------------------------
    Atom  No    Charge         Core      Valence    Rydberg      Total
 -----------------------------------------------------------------------
      C    1   -0.18705      0.99963     2.18056    0.00685     3.18705
      C    2   -0.19159      0.99963     2.18428    0.00769     3.19159
      C    3   -0.18806      0.99960     2.17636    0.01210     3.18806
      C    4   -0.07305      0.99952     2.05943    0.01410     3.07305
      C    5   -0.19224      0.99960     2.18115    0.01149     3.19224
      C    6   -0.18897      0.99963     2.18221    0.00714     3.18897
      C    7   -0.07832      0.99958     2.06533    0.01341     3.07832
      N    8   -0.42245      0.99977     2.91108    0.01160     3.92245
      C    9    0.31267      0.99954     1.66594    0.02186     2.68733
      O   10   -0.29418      0.99989     3.28860    0.00570     4.29418
      C   11    0.01091      0.99952     1.97431    0.01526     2.98909
      C   12   -0.09408      0.99954     2.08445    0.01010     3.09408
      C   13   -0.17374      0.99958     2.16484    0.00932     3.17374
      C   14    0.00386      0.99961     1.98353    0.01299     2.99614
      N   15   -0.23845      0.99966     2.73119    0.00761     3.73845
      H   16    0.09215      0.00000     0.40685    0.00100     0.40785
      H   17    0.08757      0.00000     0.41114    0.00130     0.41243
      H   18    0.10579      0.00000     0.39275    0.00146     0.39421
      H   19    0.09084      0.00000     0.40811    0.00105     0.40916
      H   20    0.09062      0.00000     0.40807    0.00131     0.40938
      H   21    0.10877      0.00000     0.39009    0.00114     0.39123
      H   22    0.09046      0.00000     0.40823    0.00132     0.40954
      H   23    0.10866      0.00000     0.38967    0.00167     0.39134
      H   24    0.09244      0.00000     0.40661    0.00095     0.40756
      H   25    0.09945      0.00000     0.39928    0.00127     0.40055
      H   26    0.09413      0.00000     0.40469    0.00118     0.40587
      H   27    0.08253      0.00000     0.41441    0.00305     0.41747
      H   28    0.17582      0.00000     0.32261    0.00157     0.32418
      H   29    0.17320      0.00000     0.32409    0.00270     0.32680
      H   30    0.11015      0.00000     0.38859    0.00126     0.38985
      H   31    0.09724      0.00000     0.40203    0.00072     0.40276
      H   32    0.08985      0.00000     0.40928    0.00087     0.41015
      H   33    0.20506      0.00000     0.29247    0.00246     0.29494
 =======================================================================
   * Total *    0.00000     14.99428    40.81222    0.19349    56.00000

 Normal termination of Gaussian 16 at Thu Dec 10 15:53:27 2020.
