 Gaussian 16, Revision A.03,

 -----------------------------------------------------------
 # opt freq B3LYP/6-31G(d) empiricaldispersion=gd3bj scf=xqc
 -----------------------------------------------------------

 -----------------------------
 CID_54036232_JID_303_neutraal
 -----------------------------
 Symbolic Z-matrix:
 Charge =  0 Multiplicity = 1

 SCF Done:  E(RB3LYP) =  -459.868866684     A.U. after   13 cycles
 SCF Done:  E(RB3LYP) =  -459.873293822     A.U. after   11 cycles
 SCF Done:  E(RB3LYP) =  -459.874358323     A.U. after   11 cycles
 SCF Done:  E(RB3LYP) =  -459.875384398     A.U. after   12 cycles
 SCF Done:  E(RB3LYP) =  -459.875764559     A.U. after   13 cycles
 SCF Done:  E(RB3LYP) =  -459.877130069     A.U. after   11 cycles
 SCF Done:  E(RB3LYP) =  -459.877523965     A.U. after   11 cycles
 SCF Done:  E(RB3LYP) =  -459.877580002     A.U. after   10 cycles
 SCF Done:  E(RB3LYP) =  -459.877587383     A.U. after    8 cycles
 SCF Done:  E(RB3LYP) =  -459.877589686     A.U. after    8 cycles
 SCF Done:  E(RB3LYP) =  -459.877590053     A.U. after    7 cycles
 SCF Done:  E(RB3LYP) =  -459.877590265     A.U. after    7 cycles
 SCF Done:  E(RB3LYP) =  -459.877590456     A.U. after    7 cycles
 SCF Done:  E(RB3LYP) =  -459.877590529     A.U. after    6 cycles
 Optimization completed.
    -- Stationary point found.
 Normal termination of Gaussian 16 at Tue Dec  8 10:24:31 2020.

 --------------------------------------------------------------------
 #N Geom=AllCheck Guess=TCheck SCRF=Check GenChk RB3LYP/6-31G(d) Freq
 --------------------------------------------------------------------

 Structure from the checkpoint file:  "JID_303.chk"
 -----------------------------
 CID_54036232_JID_303_neutraal
 -----------------------------
 Charge =  0 Multiplicity = 1

 SCF Done:  E(RB3LYP) =  -459.877590529     A.U. after    1 cycles

  Exact polarizability: 100.116   0.071  84.123   7.003   1.931  75.519
 Approx polarizability: 128.962   2.180 120.244   7.563   2.142 113.805

                      1                      2                      3
                      A                      A                      A
 Frequencies --     65.8030                84.1288               172.7961
 Red. masses --      3.1477                 3.6614                 2.3898
 Frc consts  --      0.0080                 0.0153                 0.0420
 IR Inten    --      2.6593                 1.9663                 1.1076

                      4                      5                      6
                      A                      A                      A
 Frequencies --    191.2801               228.3959               254.6045
 Red. masses --      1.3704                 2.0593                 2.2406
 Frc consts  --      0.0295                 0.0633                 0.0856
 IR Inten    --      0.7460                 1.8407                 4.5201

                      7                      8                      9
                      A                      A                      A
 Frequencies --    314.5548               351.9109               412.2663
 Red. masses --      2.5667                 2.4234                 2.2051
 Frc consts  --      0.1496                 0.1768                 0.2208
 IR Inten    --      3.6438                 2.1476                 3.1886

                     10                     11                     12
                      A                      A                      A
 Frequencies --    437.2369               472.3680               511.2569
 Red. masses --      3.6207                 2.5919                 2.6833
 Frc consts  --      0.4078                 0.3407                 0.4132
 IR Inten    --      5.6872                 0.4677                 5.4167

                     13                     14                     15
                      A                      A                      A
 Frequencies --    550.9094               610.6121               780.4494
 Red. masses --      4.4848                 1.7122                 4.0203
 Frc consts  --      0.8020                 0.3761                 1.4428
 IR Inten    --      6.3105                14.2287                11.8338

                     16                     17                     18
                      A                      A                      A
 Frequencies --    805.7236               809.9752               842.6538
 Red. masses --      2.5283                 2.5236                 1.6181
 Frc consts  --      0.9670                 0.9755                 0.6769
 IR Inten    --     12.0491               116.3565                 0.4538

                     19                     20                     21
                      A                      A                      A
 Frequencies --    864.8698               894.4440               910.4900
 Red. masses --      2.3713                 2.3461                 1.9414
 Frc consts  --      1.0450                 1.1059                 0.9482
 IR Inten    --     77.3809                 4.1135                11.8991

                     22                     23                     24
                      A                      A                      A
 Frequencies --    976.0162              1009.3610              1038.7708
 Red. masses --      2.0895                 2.5281                 1.4902
 Frc consts  --      1.1727                 1.5175                 0.9474
 IR Inten    --     15.4281                11.6932                 5.0475

                     25                     26                     27
                      A                      A                      A
 Frequencies --   1045.4577              1051.7311              1106.9793
 Red. masses --      2.4096                 1.5235                 1.7477
 Frc consts  --      1.5517                 0.9929                 1.2618
 IR Inten    --     30.4432                12.5291                 8.9122

                     28                     29                     30
                      A                      A                      A
 Frequencies --   1118.9604              1143.8900              1164.5939
 Red. masses --      2.1165                 4.0024                 1.6941
 Frc consts  --      1.5613                 3.0856                 1.3537
 IR Inten    --     53.5851                23.7843                11.1199

                     31                     32                     33
                      A                      A                      A
 Frequencies --   1184.8974              1204.2319              1215.0991
 Red. masses --      1.7966                 2.0267                 1.4586
 Frc consts  --      1.4861                 1.7316                 1.2688
 IR Inten    --      3.1323                13.2200                27.6858

                     34                     35                     36
                      A                      A                      A
 Frequencies --   1236.8560              1288.1550              1290.3852
 Red. masses --      1.7839                 1.4875                 1.3654
 Frc consts  --      1.6079                 1.4542                 1.3395
 IR Inten    --     25.8232                15.7806                26.5571

                     37                     38                     39
                      A                      A                      A
 Frequencies --   1354.6950              1366.3099              1393.0995
 Red. masses --      1.3034                 1.2717                 1.2559
 Frc consts  --      1.4093                 1.3987                 1.4361
 IR Inten    --      2.6697                 0.2416                 7.7268

                     40                     41                     42
                      A                      A                      A
 Frequencies --   1399.6315              1405.6846              1418.2429
 Red. masses --      1.3843                 1.3586                 1.2498
 Frc consts  --      1.5978                 1.5817                 1.4812
 IR Inten    --      5.9568                18.1590                 2.6904

                     43                     44                     45
                      A                      A                      A
 Frequencies --   1429.3010              1440.9846              1493.2397
 Red. masses --      1.5362                 1.2941                 1.1709
 Frc consts  --      1.8490                 1.5832                 1.5382
 IR Inten    --     37.5143                 6.9273                 9.4248

                     46                     47                     48
                      A                      A                      A
 Frequencies --   1499.1620              1504.5984              1509.9780
 Red. masses --      1.2368                 1.1167                 1.1023
 Frc consts  --      1.6377                 1.4895                 1.4807
 IR Inten    --     14.6468                10.4960                 6.9354

                     49                     50                     51
                      A                      A                      A
 Frequencies --   1513.3674              1517.3765              1524.6381
 Red. masses --      1.1156                 1.1220                 1.0816
 Frc consts  --      1.5054                 1.5220                 1.4813
 IR Inten    --      4.6301                 4.7439                13.0628

                     52                     53                     54
                      A                      A                      A
 Frequencies --   1533.3092              3007.8147              3020.1094
 Red. masses --      1.5328                 1.0680                 1.0720
 Frc consts  --      2.1232                 5.6928                 5.7606
 IR Inten    --     45.3148                42.7641                58.5644

                     55                     56                     57
                      A                      A                      A
 Frequencies --   3034.9306              3047.2152              3047.8821
 Red. masses --      1.0612                 1.0359                 1.0595
 Frc consts  --      5.7588                 5.6673                 5.7990
 IR Inten    --     30.1952                30.2625                34.0616

                     58                     59                     60
                      A                      A                      A
 Frequencies --   3077.7876              3086.6120              3091.7961
 Red. masses --      1.0945                 1.1056                 1.1046
 Frc consts  --      6.1085                 6.2059                 6.2210
 IR Inten    --     30.2184                52.5764                66.1084

                     61                     62                     63
                      A                      A                      A
 Frequencies --   3104.0264              3110.7982              3114.7262
 Red. masses --      1.0882                 1.1020                 1.0935
 Frc consts  --      6.1772                 6.2833                 6.2502
 IR Inten    --     39.5484                22.3231                18.2782

                     64                     65                     66
                      A                      A                      A
 Frequencies --   3120.1453              3139.3306              3453.4046
 Red. masses --      1.0969                 1.0925                 1.0734
 Frc consts  --      6.2914                 6.3436                 7.5425
 IR Inten    --      1.4286                51.8397                 4.3147

 - Thermochemistry -
 -------------------
 Temperature   298.150 Kelvin.  Pressure   1.00000 Atm.
 Atom     1 has atomic number  6 and mass  12.00000

 Molecular mass:   142.11061 amu.
 Principal axes and moments of inertia in atomic units:
                           1         2         3
     Eigenvalues --   763.806682102.291172109.69046
           X            0.99945  -0.02157   0.02520
           Y            0.00984   0.91833   0.39569
           Z           -0.03168  -0.39523   0.91804
 This molecule is an asymmetric top.
 Rotational symmetry number  1.
 Warning -- assumption of classical behavior for rotation
           may cause significant error
 Rotational temperatures (Kelvin)      0.11340     0.04120     0.04106
 Rotational constants (GHZ):           2.36282     0.85846     0.85545
 Zero-point vibrational energy     564651.2 (Joules/Mol)
                                  134.95488 (Kcal/Mol)
 Warning -- explicit consideration of  14 degrees of freedom as
           vibrations may cause significant error
 Vibrational temperatures:     94.68   121.04   248.62   275.21   328.61
          (Kelvin)            366.32   452.57   506.32   593.16   629.09
                              679.63   735.58   792.64   878.53  1122.89
                             1159.26  1165.37  1212.39  1244.35  1286.91
                             1309.99  1404.27  1452.25  1494.56  1504.18
                             1513.21  1592.70  1609.93  1645.80  1675.59
                             1704.80  1732.62  1748.26  1779.56  1853.37
                             1856.58  1949.10  1965.82  2004.36  2013.76
                             2022.47  2040.54  2056.45  2073.26  2148.44
                             2156.96  2164.78  2172.52  2177.40  2183.17
                             2193.61  2206.09  4327.57  4345.26  4366.59
                             4384.26  4385.22  4428.25  4440.95  4448.41
                             4466.00  4475.74  4481.40  4489.19  4516.80
                             4968.68

 Zero-point correction=                           0.215064 (Hartree/Particle)
 Thermal correction to Energy=                    0.224693
 Thermal correction to Enthalpy=                  0.225637
 Thermal correction to Gibbs Free Energy=         0.180230
 Sum of electronic and zero-point Energies=           -459.662526
 Sum of electronic and thermal Energies=              -459.652897
 Sum of electronic and thermal Enthalpies=            -459.651953
 Sum of electronic and thermal Free Energies=         -459.697360

                     E (Thermal)             CV                S
                      KCal/Mol        Cal/Mol-Kelvin    Cal/Mol-Kelvin
 Total                  140.997             37.291             95.568
 Electronic               0.000              0.000              0.000
 Translational            0.889              2.981             40.766
 Rotational               0.889              2.981             29.606
 Vibrational            139.220             31.329             25.196
 Vibration     1          0.597              1.971              4.275
 Vibration     2          0.601              1.960              3.792
 Vibration     3          0.626              1.876              2.405
 Vibration     4          0.634              1.852              2.215
 Vibration     5          0.651              1.798              1.892
 Vibration     6          0.665              1.755              1.698
 Vibration     7          0.702              1.646              1.338
 Vibration     8          0.728              1.571              1.158
 Vibration     9          0.776              1.444              0.919
 Vibration    10          0.798              1.389              0.835
 Vibration    11          0.829              1.311              0.731
 Vibration    12          0.866              1.225              0.631
 Vibration    13          0.906              1.138              0.542
 Vibration    14          0.970              1.009              0.432

 Optimization completed.
    -- Stationary point found.
 Normal termination of Gaussian 16 at Tue Dec  8 10:29:17 2020.

 ----------------------------------------------------------------------
 # B3LYP/6-311++G(d,p) empiricaldispersion=gd3bj scf=xqc pop=npa geom=c
 heck
 ----------------------------------------------------------------------

 -------------------------------------
 CID_54036232_JID_303_Energie_neutraal
 -------------------------------------
 Structure from the checkpoint file:  "JID_303.chk"
 Charge =  0 Multiplicity = 1

 SCF Done:  E(RB3LYP) =  -460.010072095     A.U. after   13 cycles
 Normal termination of Gaussian 16 at Tue Dec  8 10:31:14 2020.

 ----------------------------------------------------------------------
 # B3LYP/6-311++G(d,p) empiricaldispersion=gd3bj scf=xqc pop=npa geom=c
 heck
 ----------------------------------------------------------------------

 -----------------------------------
 CID_54036232_JID_303_Energie_kation
 -----------------------------------
 Structure from the checkpoint file:  "JID_303.chk"
 Charge =  1 Multiplicity = 2

 SCF Done:  E(UB3LYP) =  -459.737771269     A.U. after   17 cycles
 Normal termination of Gaussian 16 at Tue Dec  8 10:35:16 2020.
 Gaussian 16:  ES64L-G16RevA.03 25-Dec-2016

 ----------------------------------------------------------------------
 # B3LYP/6-311++G(d,p) empiricaldispersion=gd3bj scf=xqc pop=npa geom=c
 heck
 ----------------------------------------------------------------------

 ----------------------------------
 CID_54036232_JID_303_Energie_anion
 ----------------------------------
 Structure from the checkpoint file:  "JID_303.chk"
 Charge = -1 Multiplicity = 2

                         Standard orientation:
 ---------------------------------------------------------------------
 Center     Atomic      Atomic             Coordinates (Angstroms)
 Number     Number       Type             X           Y           Z
 ---------------------------------------------------------------------
      1          6           0       -3.024496    0.413164   -1.143033
      2          6           0       -1.882456   -0.260878   -0.429103
      3          6           0       -1.074120    0.417893    0.607604
      4          8           0       -2.076613   -0.521259    0.984903
      5          7           0        0.259262    0.130375    1.011795
      6          6           0        0.799002   -1.191122    0.691679
      7          6           0        1.472783   -1.243090   -0.691504
      8          7           0        2.452109   -0.170197   -0.905119
      9          6           0        1.869819    1.142138   -0.601058
     10          6           0        1.231704    1.199516    0.795374
     11          1           0       -3.866602   -0.277563   -1.268426
     12          1           0       -2.711604    0.751496   -2.138066
     13          1           0       -3.379447    1.279398   -0.575072
     14          1           0       -1.431421   -1.102003   -0.956780
     15          1           0       -1.325369    1.458666    0.826584
     16          1           0        1.546314   -1.437656    1.460483
     17          1           0       -0.008913   -1.923156    0.783064
     18          1           0        0.715348   -1.151852   -1.480199
     19          1           0        1.973219   -2.208258   -0.834503
     20          1           0        3.246199   -0.323948   -0.281869
     21          1           0        1.104877    1.351921   -1.361457
     22          1           0        2.650500    1.905811   -0.702064
     23          1           0        0.743298    2.165999    0.969562
     24          1           0        2.023502    1.094244    1.553033
 ---------------------------------------------------------------------

 SCF Done:  E(UB3LYP) =  -459.993267092     A.U. after   28 cycles

 The electronic state is 2-A.
 Alpha  occ. eigenvalues --  -19.02676 -14.20809 -14.19215 -10.14726 -10.11967
 Alpha  occ. eigenvalues --  -10.08992 -10.08922 -10.08679 -10.08338 -10.06617
 Alpha  occ. eigenvalues --   -0.97385  -0.83740  -0.78421  -0.65880  -0.64580
 Alpha  occ. eigenvalues --   -0.59617  -0.54142  -0.53211  -0.49955  -0.46904
 Alpha  occ. eigenvalues --   -0.42159  -0.38819  -0.36501  -0.35006  -0.34703
 Alpha  occ. eigenvalues --   -0.34113  -0.32729  -0.31837  -0.29800  -0.28677
 Alpha  occ. eigenvalues --   -0.28394  -0.27043  -0.25056  -0.24103  -0.23832
 Alpha  occ. eigenvalues --   -0.22281  -0.17739  -0.14561  -0.09348   0.04763
 Alpha virt. eigenvalues --    0.06631   0.07394   0.08742   0.09136   0.09591
 Alpha virt. eigenvalues --    0.10235   0.10987   0.12008   0.12183   0.13065
 Alpha virt. eigenvalues --    0.13690   0.13825   0.15022   0.16008   0.16619

  Beta  occ. eigenvalues --  -19.02674 -14.20806 -14.19192 -10.14712 -10.11960
  Beta  occ. eigenvalues --  -10.08964 -10.08903 -10.08661 -10.08312 -10.06575
  Beta  occ. eigenvalues --   -0.97379  -0.83715  -0.78379  -0.65838  -0.64533
  Beta  occ. eigenvalues --   -0.59574  -0.54078  -0.53160  -0.49893  -0.46849
  Beta  occ. eigenvalues --   -0.42119  -0.38776  -0.36436  -0.34956  -0.34657
  Beta  occ. eigenvalues --   -0.34081  -0.32699  -0.31798  -0.29763  -0.28625
  Beta  occ. eigenvalues --   -0.28348  -0.27008  -0.25001  -0.24064  -0.23792
  Beta  occ. eigenvalues --   -0.22254  -0.17725  -0.14522  -0.09302
  Beta virt. eigenvalues --    0.07195   0.07832   0.08308   0.09298   0.09979
  Beta virt. eigenvalues --    0.10227   0.10926   0.11354   0.12450   0.12830
  Beta virt. eigenvalues --    0.13448   0.13949   0.14234   0.15358   0.16194

 Mulliken charges and spin densities:
               1          2
     1  C    2.291955  -2.920887
     2  C   -1.257730   1.252987
     3  C   -0.311511   0.026049
     4  O   -0.155155   0.014806
     5  N    0.116490   0.039849
     6  C   -0.592337   0.351093
     7  C    1.060951  -1.445758
     8  N   -0.370714   0.241905
     9  C    0.904374  -1.290708
    10  C    0.072169  -0.355826
    11  H   -0.278617   0.419636
    12  H   -0.253133   0.407604
    13  H   -0.316981   0.458634
    14  H   -0.168641   0.340619
    15  H   -0.182245   0.367121
    16  H   -0.468894   0.655090
    17  H    0.161824   0.009269
    18  H   -0.059723   0.203516
    19  H   -0.168377   0.330096
    20  H   -0.101630   0.329405
    21  H    0.072636   0.078849
    22  H   -0.496342   0.684370
    23  H   -0.286210   0.421004
    24  H   -0.212156   0.381277
 Sum of Mulliken charges =  -1.00000   1.00000

 Dipole moment (field-independent basis, Debye):
    X=             -1.3456    Y=             -2.0163    Z=              0.7003  Tot=              2.5232
 Quadrupole moment (field-independent basis, Debye-Ang):
   XX=           -128.7533   YY=           -100.1082   ZZ=            -98.5217
   XY=              0.5296   XZ=             -3.8146   YZ=              1.9924

 Summary of Natural Population Analysis:

                                       Natural Population
                Natural  -----------------------------------------------
    Atom  No    Charge         Core      Valence    Rydberg      Total
 -----------------------------------------------------------------------
      C    1   -0.29789      0.99966     2.29225    0.00599     3.29789
      C    2    0.03005      0.99957     1.95749    0.01289     2.96995
      C    3    0.14603      0.99951     1.83626    0.01820     2.85397
      O    4   -0.29129      0.99992     3.28421    0.00716     4.29129
      N    5   -0.27843      0.99971     2.76399    0.01473     3.77843
      C    6   -0.09833      0.99961     2.08684    0.01188     3.09833
      C    7   -0.09816      0.99962     2.08727    0.01126     3.09816
      N    8   -0.33702      0.99977     2.82304    0.01421     3.83702
      C    9   -0.09744      0.99962     2.08628    0.01154     3.09744
      C   10   -0.09140      0.99961     2.07952    0.01227     3.09140
      H   11    0.10157      0.00000     0.39706    0.00137     0.39843
      H   12    0.10513      0.00000     0.39339    0.00148     0.39487
      H   13    0.10282      0.00000     0.39568    0.00150     0.39718
      H   14    0.08665      0.00000     0.41168    0.00167     0.41335
      H   15    0.08790      0.00000     0.41025    0.00185     0.41210
      H   16    0.09418      0.00000     0.40429    0.00152     0.40582
      H   17    0.10376      0.00000     0.39471    0.00152     0.39624
      H   18    0.08775      0.00000     0.41044    0.00181     0.41225
      H   19    0.09542      0.00000     0.40338    0.00120     0.40458
      H   20    0.17027      0.00000     0.32594    0.00379     0.32973
      H   21    0.08931      0.00000     0.40907    0.00163     0.41069
      H   22    0.09766      0.00000     0.40062    0.00172     0.40234
      H   23    0.09900      0.00000     0.39930    0.00171     0.40100
      H   24    0.09246      0.00000     0.40554    0.00200     0.40754
 =======================================================================
   * Total *   -0.00000      9.99659    28.85852    0.14489    39.00000

 Normal termination of Gaussian 16 at Tue Dec  8 10:44:13 2020.
