 Gaussian 16, Revision A.03,

 -----------------------------------------------------------
 # opt freq B3LYP/6-31G(d) empiricaldispersion=gd3bj scf=xqc
 -----------------------------------------------------------

 ------------------------------
 CID_65407124_JID_8060_neutraal
 ------------------------------
 Symbolic Z-matrix:
 Charge =  0 Multiplicity = 1

 SCF Done:  E(RB3LYP) =  -790.679019976     A.U. after   14 cycles
 SCF Done:  E(RB3LYP) =  -790.684415987     A.U. after   12 cycles
 SCF Done:  E(RB3LYP) =  -790.684092880     A.U. after   12 cycles
 SCF Done:  E(RB3LYP) =  -790.685268558     A.U. after   12 cycles
 SCF Done:  E(RB3LYP) =  -790.685874961     A.U. after   12 cycles
 SCF Done:  E(RB3LYP) =  -790.686287825     A.U. after   12 cycles
 SCF Done:  E(RB3LYP) =  -790.686550226     A.U. after   11 cycles
 SCF Done:  E(RB3LYP) =  -790.686698178     A.U. after   10 cycles
 SCF Done:  E(RB3LYP) =  -790.686747967     A.U. after   10 cycles
 SCF Done:  E(RB3LYP) =  -790.686768787     A.U. after   10 cycles
 SCF Done:  E(RB3LYP) =  -790.686802450     A.U. after    8 cycles
 SCF Done:  E(RB3LYP) =  -790.686802785     A.U. after    8 cycles
 SCF Done:  E(RB3LYP) =  -790.686803001     A.U. after    7 cycles
 SCF Done:  E(RB3LYP) =  -790.686803146     A.U. after    7 cycles
 SCF Done:  E(RB3LYP) =  -790.686803157     A.U. after    6 cycles
 Optimization completed.
    -- Stationary point found.
 Normal termination of Gaussian 16 at Fri Dec 11 18:47:20 2020.

 --------------------------------------------------------------------
 #N Geom=AllCheck Guess=TCheck SCRF=Check GenChk RB3LYP/6-31G(d) Freq
 --------------------------------------------------------------------

 Structure from the checkpoint file:  "JID_8060.chk"
 ------------------------------
 CID_65407124_JID_8060_neutraal
 ------------------------------
 Charge =  0 Multiplicity = 1

 SCF Done:  E(RB3LYP) =  -790.686803157     A.U. after    1 cycles

  Exact polarizability: 184.061  16.835 165.173  10.024 -15.802 144.782
 Approx polarizability: 248.607  22.643 243.406  27.424 -33.601 222.174

                      1                      2                      3
                      A                      A                      A
 Frequencies --     24.7625                26.1915                42.2555
 Red. masses --      5.1601                 3.9241                 3.6644
 Frc consts  --      0.0019                 0.0016                 0.0039
 IR Inten    --      0.8540                 0.2505                 0.3432

                      4                      5                      6
                      A                      A                      A
 Frequencies --     56.4836               100.2237               107.7790
 Red. masses --      3.4081                 3.5012                 2.8523
 Frc consts  --      0.0064                 0.0207                 0.0195
 IR Inten    --      0.5963                 3.2627                 6.8792

                      7                      8                      9
                      A                      A                      A
 Frequencies --    129.2797               133.4984               169.7421
 Red. masses --      2.9570                 2.6028                 3.6051
 Frc consts  --      0.0291                 0.0273                 0.0612
 IR Inten    --      0.5125                 6.9173                 5.5024

                     10                     11                     12
                      A                      A                      A
 Frequencies --    176.3856               190.2693               196.7892
 Red. masses --      2.7292                 1.4760                 1.3492
 Frc consts  --      0.0500                 0.0315                 0.0308
 IR Inten    --     10.8435                11.6091                16.9978

                     13                     14                     15
                      A                      A                      A
 Frequencies --    223.0032               248.7640               269.6016
 Red. masses --      2.2328                 2.5357                 2.1272
 Frc consts  --      0.0654                 0.0925                 0.0911
 IR Inten    --     23.7556                 3.8603                 4.0929

                     16                     17                     18
                      A                      A                      A
 Frequencies --    281.6347               323.8757               343.8986
 Red. masses --      2.6788                 2.8341                 2.2129
 Frc consts  --      0.1252                 0.1752                 0.1542
 IR Inten    --      1.0133                 1.4266                 0.9896

                     19                     20                     21
                      A                      A                      A
 Frequencies --    373.3955               407.4520               426.7564
 Red. masses --      2.7313                 2.5796                 2.2360
 Frc consts  --      0.2244                 0.2523                 0.2399
 IR Inten    --      1.2990                 1.1808                 2.1966

                     22                     23                     24
                      A                      A                      A
 Frequencies --    433.1396               469.4984               509.1334
 Red. masses --      2.9374                 2.9670                 3.2023
 Frc consts  --      0.3247                 0.3853                 0.4891
 IR Inten    --      2.8338                 0.3598                 1.8923

                     25                     26                     27
                      A                      A                      A
 Frequencies --    517.1836               542.7918               580.5218
 Red. masses --      2.5965                 2.6586                 3.4371
 Frc consts  --      0.4092                 0.4615                 0.6825
 IR Inten    --      3.0247                11.3353                 6.3445

                     28                     29                     30
                      A                      A                      A
 Frequencies --    614.6797               639.3816               720.9082
 Red. masses --      4.5106                 4.5252                 3.5430
 Frc consts  --      1.0041                 1.0900                 1.0849
 IR Inten    --      7.1555                 0.3451                 0.4273

                     31                     32                     33
                      A                      A                      A
 Frequencies --    745.4934               769.4835               809.2410
 Red. masses --      1.6481                 1.8579                 3.2319
 Frc consts  --      0.5396                 0.6481                 1.2470
 IR Inten    --     18.6457                21.7839                 4.4707

                     34                     35                     36
                      A                      A                      A
 Frequencies --    834.9739               860.9438               865.8891
 Red. masses --      2.1628                 1.4507                 3.5737
 Frc consts  --      0.8884                 0.6336                 1.5787
 IR Inten    --      4.2690                58.5177                14.0701

                     37                     38                     39
                      A                      A                      A
 Frequencies --    871.0048               878.1394               897.9730
 Red. masses --      2.5976                 1.3319                 2.1208
 Frc consts  --      1.1611                 0.6051                 1.0076
 IR Inten    --     23.0354                 0.3656                 2.4560

                     40                     41                     42
                      A                      A                      A
 Frequencies --    916.2509               925.5571               936.0688
 Red. masses --      2.0393                 1.7615                 1.4737
 Frc consts  --      1.0087                 0.8891                 0.7608
 IR Inten    --      9.5873                28.3356                 7.2203

                     43                     44                     45
                      A                      A                      A
 Frequencies --    971.0809               978.6151               992.6959
 Red. masses --      1.8296                 1.2682                 1.5113
 Frc consts  --      1.0165                 0.7156                 0.8775
 IR Inten    --      4.3663                 0.2081                11.9527

                     46                     47                     48
                      A                      A                      A
 Frequencies --   1007.3296              1029.5491              1056.3051
 Red. masses --      2.8348                 2.3485                 2.2271
 Frc consts  --      1.6948                 1.4667                 1.4641
 IR Inten    --     17.1706                18.3669                 2.8751

                     49                     50                     51
                      A                      A                      A
 Frequencies --   1069.2954              1096.0690              1105.1903
 Red. masses --      2.3589                 2.7141                 2.5858
 Frc consts  --      1.5891                 1.9211                 1.8609
 IR Inten    --     15.2396                 6.1475                13.5657

                     52                     53                     54
                      A                      A                      A
 Frequencies --   1118.2152              1130.3072              1139.3364
 Red. masses --      1.9399                 1.9323                 1.7581
 Frc consts  --      1.4292                 1.4546                 1.3446
 IR Inten    --     11.4076                12.8392                24.2899

                     55                     56                     57
                      A                      A                      A
 Frequencies --   1158.9107              1169.3651              1177.9561
 Red. masses --      1.7478                 3.9323                 1.6047
 Frc consts  --      1.3831                 3.1681                 1.3119
 IR Inten    --     20.5799               132.4074                44.2310

                     58                     59                     60
                      A                      A                      A
 Frequencies --   1184.5042              1191.1036              1195.4598
 Red. masses --      1.8207                 1.1107                 1.6973
 Frc consts  --      1.5051                 0.9284                 1.4291
 IR Inten    --     13.5679                 0.1742                13.8591

                     61                     62                     63
                      A                      A                      A
 Frequencies --   1203.2151              1230.0538              1235.6150
 Red. masses --      2.2245                 1.4870                 1.5533
 Frc consts  --      1.8975                 1.3256                 1.3973
 IR Inten    --      2.9873                19.4365                18.6636

                     64                     65                     66
                      A                      A                      A
 Frequencies --   1255.4604              1267.7929              1277.3675
 Red. masses --      2.3523                 1.3402                 1.3220
 Frc consts  --      2.1844                 1.2692                 1.2709
 IR Inten    --      2.7090                 4.0960                 1.5995

                     67                     68                     69
                      A                      A                      A
 Frequencies --   1290.3905              1297.2817              1323.4500
 Red. masses --      1.3105                 1.3351                 1.6564
 Frc consts  --      1.2856                 1.3238                 1.7093
 IR Inten    --      5.3410                 9.7173                 3.2174

                     70                     71                     72
                      A                      A                      A
 Frequencies --   1333.8512              1339.5058              1343.8294
 Red. masses --      1.5049                 1.2370                 1.4249
 Frc consts  --      1.5775                 1.3077                 1.5161
 IR Inten    --      3.0166                 6.0008                 2.2852

                     73                     74                     75
                      A                      A                      A
 Frequencies --   1374.4911              1390.5145              1399.7915
 Red. masses --      2.1373                 1.8154                 1.4650
 Frc consts  --      2.3790                 2.0681                 1.6913
 IR Inten    --      7.3959                 6.4729                13.5696

                     76                     77                     78
                      A                      A                      A
 Frequencies --   1411.3703              1426.9252              1438.1523
 Red. masses --      1.3451                 1.3085                 1.3788
 Frc consts  --      1.5786                 1.5698                 1.6802
 IR Inten    --     31.7375                27.6776                 9.6883

                     79                     80                     81
                      A                      A                      A
 Frequencies --   1466.6459              1496.0069              1507.2002
 Red. masses --      1.4851                 1.1277                 1.7479
 Frc consts  --      1.8821                 1.4870                 2.3394
 IR Inten    --      0.6669                 1.3752                 0.3946

                     82                     83                     84
                      A                      A                      A
 Frequencies --   1511.0657              1512.4434              1513.7622
 Red. masses --      1.1154                 1.2951                 1.0641
 Frc consts  --      1.5006                 1.7455                 1.4366
 IR Inten    --      4.4039                 8.1855                 9.9728

                     85                     86                     87
                      A                      A                      A
 Frequencies --   1521.5064              1524.0127              1528.3010
 Red. masses --      1.1346                 1.3238                 1.1101
 Frc consts  --      1.5475                 1.8116                 1.5276
 IR Inten    --      2.0548                15.6060                 2.1400

                     88                     89                     90
                      A                      A                      A
 Frequencies --   1531.1343              1535.2996              1549.0815
 Red. masses --      1.1818                 1.4852                 1.0618
 Frc consts  --      1.6324                 2.0626                 1.5012
 IR Inten    --      9.0026                17.0590                 5.3239

                     91                     92                     93
                      A                      A                      A
 Frequencies --   1558.3676              1647.1180              1669.6422
 Red. masses --      1.0940                 6.0704                 6.3648
 Frc consts  --      1.5653                 9.7032                10.4540
 IR Inten    --      4.7977                 1.6088                 0.4879

                     94                     95                     96
                      A                      A                      A
 Frequencies --   1700.0847              2966.9093              2982.9681
 Red. masses --      1.0901                 1.0595                 1.0586
 Frc consts  --      1.8564                 5.4950                 5.5496
 IR Inten    --     33.0538                38.0678                80.8809

                     97                     98                     99
                      A                      A                      A
 Frequencies --   2985.0062              3000.2462              3005.3309
 Red. masses --      1.0681                 1.0500                 1.1034
 Frc consts  --      5.6073                 5.5685                 5.8717
 IR Inten    --     55.7089                66.2800                78.1960

                    100                    101                    102
                      A                      A                      A
 Frequencies --   3009.5900              3026.3790              3029.0639
 Red. masses --      1.0893                 1.0708                 1.0644
 Frc consts  --      5.8130                 5.7783                 5.7543
 IR Inten    --      7.5150               108.2016                21.5284

                    103                    104                    105
                      A                      A                      A
 Frequencies --   3036.7178              3063.1722              3068.3606
 Red. masses --      1.0708                 1.0960                 1.0956
 Frc consts  --      5.8180                 6.0593                 6.0772
 IR Inten    --     57.3454                19.7836                62.4621

                    106                    107                    108
                      A                      A                      A
 Frequencies --   3074.6513              3078.3210              3095.1434
 Red. masses --      1.0636                 1.1035                 1.0821
 Frc consts  --      5.9239                 6.1609                 6.1079
 IR Inten    --     23.8564                48.5971                40.9866

                    109                    110                    111
                      A                      A                      A
 Frequencies --   3107.2888              3109.6365              3139.1163
 Red. masses --      1.0991                 1.0929                 1.1060
 Frc consts  --      6.2524                 6.2267                 6.4211
 IR Inten    --     13.4155                11.3147                24.1520

                    112                    113                    114
                      A                      A                      A
 Frequencies --   3174.1133              3179.6677              3191.2003
 Red. masses --      1.0854                 1.0887                 1.0926
 Frc consts  --      6.4427                 6.4850                 6.5556
 IR Inten    --      6.6651                 2.6447                38.3710

                    115                    116                    117
                      A                      A                      A
 Frequencies --   3204.9512              3481.5508              3562.0938
 Red. masses --      1.0971                 1.0501                 1.0922
 Frc consts  --      6.6394                 7.4995                 8.1649
 IR Inten    --     36.0983                 1.1829                 0.2767

 - Thermochemistry -
 -------------------
 Temperature   298.150 Kelvin.  Pressure   1.00000 Atm.
 Atom     1 has atomic number  6 and mass  12.00000

 Molecular mass:   249.17288 amu.
 Principal axes and moments of inertia in atomic units:
                           1         2         3
     Eigenvalues --  3350.738436689.770657873.07521
           X            0.99997  -0.00826  -0.00052
           Y            0.00825   0.99990  -0.01148
           Z            0.00062   0.01147   0.99993
 This molecule is an asymmetric top.
 Rotational symmetry number  1.
 Warning -- assumption of classical behavior for rotation
           may cause significant error
 Rotational temperatures (Kelvin)      0.02585     0.01295     0.01100
 Rotational constants (GHZ):           0.53861     0.26978     0.22923
 Zero-point vibrational energy     954283.8 (Joules/Mol)
                                  228.07931 (Kcal/Mol)
 Warning -- explicit consideration of  28 degrees of freedom as
           vibrations may cause significant error
 Vibrational temperatures:     35.63    37.68    60.80    81.27   144.20
          (Kelvin)            155.07   186.00   192.07   244.22   253.78
                              273.76   283.14   320.85   357.92   387.90
                              405.21   465.98   494.79   537.23   586.23
                              614.01   623.19   675.50   732.53   744.11
                              780.96   835.24   884.39   919.93  1037.23
                             1072.60  1107.12  1164.32  1201.34  1238.71
                             1245.82  1253.18  1263.45  1291.98  1318.28
                             1331.67  1346.79  1397.17  1408.01  1428.27
                             1449.32  1481.29  1519.79  1538.48  1577.00
                             1590.12  1608.86  1626.26  1639.25  1667.41
                             1682.46  1694.82  1704.24  1713.73  1720.00
                             1731.16  1769.77  1777.77  1806.33  1824.07
                             1837.85  1856.58  1866.50  1904.15  1919.11
                             1927.25  1933.47  1977.59  2000.64  2013.99
                             2030.65  2053.03  2069.18  2110.18  2152.42
                             2168.52  2174.09  2176.07  2177.97  2189.11
                             2192.71  2198.88  2202.96  2208.95  2228.78
                             2242.14  2369.84  2402.24  2446.04  4268.72
                             4291.83  4294.76  4316.69  4324.00  4330.13
                             4354.28  4358.15  4369.16  4407.22  4414.69
                             4423.74  4429.02  4453.22  4470.70  4474.07
                             4516.49  4566.84  4574.83  4591.43  4611.21
                             5009.18  5125.06

 Zero-point correction=                           0.363468 (Hartree/Particle)
 Thermal correction to Energy=                    0.381719
 Thermal correction to Enthalpy=                  0.382663
 Thermal correction to Gibbs Free Energy=         0.315780
 Sum of electronic and zero-point Energies=           -790.323336
 Sum of electronic and thermal Energies=              -790.305084
 Sum of electronic and thermal Enthalpies=            -790.304140
 Sum of electronic and thermal Free Energies=         -790.371023

                     E (Thermal)             CV                S
                      KCal/Mol        Cal/Mol-Kelvin    Cal/Mol-Kelvin
 Total                  239.532             69.298            140.766
 Electronic               0.000              0.000              0.000
 Translational            0.889              2.981             42.439
 Rotational               0.889              2.981             33.534
 Vibrational            237.755             63.337             64.793
 Vibration     1          0.593              1.985              6.210
 Vibration     2          0.593              1.985              6.099
 Vibration     3          0.595              1.980              5.150
 Vibration     4          0.596              1.975              4.576
 Vibration     5          0.604              1.949              3.450
 Vibration     6          0.606              1.943              3.309
 Vibration     7          0.612              1.924              2.957
 Vibration     8          0.613              1.920              2.895
 Vibration     9          0.625              1.880              2.438
 Vibration    10          0.628              1.871              2.366
 Vibration    11          0.634              1.853              2.225
 Vibration    12          0.636              1.844              2.163
 Vibration    13          0.649              1.806              1.935
 Vibration    14          0.662              1.765              1.739
 Vibration    15          0.674              1.729              1.599
 Vibration    16          0.681              1.708              1.524
 Vibration    17          0.708              1.628              1.290
 Vibration    18          0.723              1.588              1.194
 Vibration    19          0.745              1.527              1.066
 Vibration    20          0.772              1.454              0.936
 Vibration    21          0.788              1.412              0.869
 Vibration    22          0.794              1.398              0.848
 Vibration    23          0.827              1.318              0.739
 Vibration    24          0.864              1.230              0.636
 Vibration    25          0.872              1.212              0.617
 Vibration    26          0.898              1.155              0.559
 Vibration    27          0.937              1.073              0.484
 Vibration    28          0.974              1.001              0.425

 Optimization completed.
    -- Stationary point found.
 Normal termination of Gaussian 16 at Fri Dec 11 19:06:30 2020.

 ----------------------------------------------------------------------
 # B3LYP/6-311++G(d,p) empiricaldispersion=gd3bj scf=xqc pop=npa geom=c
 heck
 ----------------------------------------------------------------------

 --------------------------------------
 CID_65407124_JID_8060_Energie_neutraal
 --------------------------------------
 Structure from the checkpoint file:  "JID_8060.chk"
 Charge =  0 Multiplicity = 1

 SCF Done:  E(RB3LYP) =  -790.912959469     A.U. after   14 cycles
 Normal termination of Gaussian 16 at Fri Dec 11 19:15:07 2020.

 ----------------------------------------------------------------------
 # B3LYP/6-311++G(d,p) empiricaldispersion=gd3bj scf=xqc pop=npa geom=c
 heck
 ----------------------------------------------------------------------

 ------------------------------------
 CID_65407124_JID_8060_Energie_kation
 ------------------------------------
 Structure from the checkpoint file:  "JID_8060.chk"
 Charge =  1 Multiplicity = 2

 SCF Done:  E(UB3LYP) =  -790.622842732     A.U. after   27 cycles
 Normal termination of Gaussian 16 at Fri Dec 11 19:38:28 2020.
 Gaussian 16:  ES64L-G16RevA.03 25-Dec-2016

 ----------------------------------------------------------------------
 # B3LYP/6-311++G(d,p) empiricaldispersion=gd3bj scf=xqc pop=npa geom=c
 heck
 ----------------------------------------------------------------------

 -----------------------------------
 CID_65407124_JID_8060_Energie_anion
 -----------------------------------
 Structure from the checkpoint file:  "JID_8060.chk"
 Charge = -1 Multiplicity = 2

                         Standard orientation:
 ---------------------------------------------------------------------
 Center     Atomic      Atomic             Coordinates (Angstroms)
 Number     Number       Type             X           Y           Z
 ---------------------------------------------------------------------
      1          6           0        2.903218   -1.476410    1.692074
      2          8           0        3.110905   -2.066699    0.418975
      3          6           0        3.966328   -1.318906   -0.427039
      4          6           0        3.193671   -0.419153   -1.377317
      5          8           0        2.498370    0.554927   -0.626625
      6          6           0        1.660962    1.388775   -1.414709
      7          6           0        0.731179    2.170614   -0.494720
      8          6           0       -0.535523    1.440599   -0.012113
      9          6           0       -1.581812    1.225844   -1.147321
     10          6           0       -2.340177   -0.008187   -0.718241
     11          6           0       -3.573631   -0.483718   -1.153585
     12          6           0       -4.075751   -1.670386   -0.609521
     13          6           0       -3.346892   -2.368729    0.356638
     14          6           0       -2.107005   -1.889764    0.791862
     15          6           0       -1.608874   -0.707835    0.251186
     16          6           0       -0.303633   -0.003338    0.530778
     17          6           0       -1.215648    2.305533    1.075410
     18          7           0       -0.377174    2.470593    2.268854
     19          1           0        2.197898   -2.121674    2.223466
     20          1           0        2.486489   -0.467112    1.611986
     21          1           0        3.842351   -1.431309    2.266598
     22          1           0        4.674590   -0.717374    0.161714
     23          1           0        4.544812   -2.036766   -1.022423
     24          1           0        3.892183    0.054903   -2.090127
     25          1           0        2.483747   -1.030338   -1.958012
     26          1           0        2.283861    2.078222   -2.007864
     27          1           0        1.092671    0.773350   -2.131772
     28          1           0        1.307067    2.495036    0.377922
     29          1           0        0.413854    3.082599   -1.019816
     30          1           0       -2.223404    2.105669   -1.284627
     31          1           0       -1.082391    1.050152   -2.110571
     32          1           0       -4.144636    0.060536   -1.902167
     33          1           0       -5.040599   -2.048617   -0.936327
     34          1           0       -3.748120   -3.287567    0.775714
     35          1           0       -1.541908   -2.434557    1.544411
     36          1           0        0.518938   -0.493327    0.000269
     37          1           0       -0.014927   -0.015642    1.587343
     38          1           0       -1.384976    3.303967    0.653026
     39          1           0       -2.209385    1.879482    1.292189
     40          1           0       -0.729427    3.244830    2.827502
     41          1           0       -0.451134    1.645928    2.860501
 ---------------------------------------------------------------------

 SCF Done:  E(UB3LYP) =  -790.898551553     A.U. after   33 cycles
 SCF Done:  E(UB3LYP) =  -790.898551553     a.u. after    1 cycles

 The electronic state is 2-A.
 Alpha  occ. eigenvalues --  -19.03556 -19.03476 -14.19330 -10.13010 -10.12778
 Alpha  occ. eigenvalues --  -10.12382 -10.11586 -10.09106 -10.08741 -10.08272
 Alpha  occ. eigenvalues --  -10.08222 -10.08201 -10.08128 -10.08037 -10.07956
 Alpha  occ. eigenvalues --  -10.07757 -10.06859 -10.06659  -0.95697  -0.93941
 Alpha  occ. eigenvalues --   -0.79397  -0.77362  -0.72677  -0.68775  -0.66434
 Alpha  occ. eigenvalues --   -0.65781  -0.62020  -0.60030  -0.58275  -0.56457
 Alpha  occ. eigenvalues --   -0.52691  -0.51389  -0.50263  -0.48365  -0.44609
 Alpha  occ. eigenvalues --   -0.41980  -0.41954  -0.40973  -0.40114  -0.38614
 Alpha  occ. eigenvalues --   -0.38017  -0.37060  -0.36585  -0.36218  -0.35384
 Alpha  occ. eigenvalues --   -0.33909  -0.33448  -0.32286  -0.31497  -0.31215
 Alpha  occ. eigenvalues --   -0.30267  -0.29847  -0.29299  -0.28529  -0.26894
 Alpha  occ. eigenvalues --   -0.26559  -0.25488  -0.24771  -0.24296  -0.23191
 Alpha  occ. eigenvalues --   -0.22895  -0.22223  -0.22008  -0.17501  -0.16890
 Alpha  occ. eigenvalues --   -0.15922  -0.15190  -0.13970   0.04172
 Alpha virt. eigenvalues --    0.05743   0.06185   0.06465   0.07390   0.07643
 Alpha virt. eigenvalues --    0.07849   0.08184   0.08301   0.08574   0.09508
 Alpha virt. eigenvalues --    0.09999   0.10457   0.10616   0.10959   0.11315

  Beta  occ. eigenvalues --  -19.03550 -19.03471 -14.19290 -10.12996 -10.12760
  Beta  occ. eigenvalues --  -10.12368 -10.11574 -10.09086 -10.08742 -10.08265
  Beta  occ. eigenvalues --  -10.08215 -10.08199 -10.08117 -10.08030 -10.07944
  Beta  occ. eigenvalues --  -10.07746 -10.06845 -10.06651  -0.95685  -0.93930
  Beta  occ. eigenvalues --   -0.79354  -0.77324  -0.72651  -0.68753  -0.66411
  Beta  occ. eigenvalues --   -0.65757  -0.61990  -0.60003  -0.58246  -0.56404
  Beta  occ. eigenvalues --   -0.52646  -0.51341  -0.50226  -0.48345  -0.44580
  Beta  occ. eigenvalues --   -0.41949  -0.41930  -0.40944  -0.40078  -0.38590
  Beta  occ. eigenvalues --   -0.37985  -0.37034  -0.36552  -0.36185  -0.35347
  Beta  occ. eigenvalues --   -0.33882  -0.33423  -0.32260  -0.31470  -0.31189
  Beta  occ. eigenvalues --   -0.30243  -0.29821  -0.29273  -0.28505  -0.26863
  Beta  occ. eigenvalues --   -0.26529  -0.25465  -0.24738  -0.24269  -0.23168
  Beta  occ. eigenvalues --   -0.22877  -0.22205  -0.21976  -0.17487  -0.16866
  Beta  occ. eigenvalues --   -0.15882  -0.15156  -0.13938
  Beta virt. eigenvalues --    0.06037   0.06474   0.06804   0.07017   0.07573
  Beta virt. eigenvalues --    0.07921   0.08321   0.08388   0.08452   0.09036
  Beta virt. eigenvalues --    0.09797   0.10179   0.10737   0.10988   0.11166

 Mulliken charges and spin densities:
               1          2
     1  C   -0.156312  -0.225607
     2  O   -0.137241   0.025305
     3  C    0.091288  -0.621795
     4  C    0.094192  -0.099225
     5  O   -0.095727   0.020693
     6  C   -0.108101  -0.368641
     7  C   -0.579827   0.027955
     8  C    0.931537   1.061155
     9  C    0.325463  -1.092566
    10  C    0.378211  -0.077210
    11  C   -1.234524   1.148028
    12  C    0.278880  -0.621525
    13  C    0.680088  -0.991866
    14  C   -1.441430   1.227846
    15  C    0.545186  -0.531108
    16  C   -0.501039  -0.290685
    17  C    0.951079  -1.898687
    18  N   -0.421956   0.018911
    19  H    0.119874   0.038802
    20  H    0.182521   0.019055
    21  H   -0.135870   0.249653
    22  H    0.119321   0.018199
    23  H   -0.173428   0.350494
    24  H   -0.424655   0.546194
    25  H    0.072223   0.084259
    26  H   -0.249588   0.419114
    27  H    0.118364  -0.014037
    28  H    0.259924  -0.042884
    29  H   -0.001297   0.162487
    30  H    0.033674   0.138472
    31  H    0.045042   0.103747
    32  H   -0.295712   0.459355
    33  H   -0.085033   0.235234
    34  H   -0.046649   0.201754
    35  H   -0.294185   0.458337
    36  H    0.519001  -0.435855
    37  H    0.199471  -0.071871
    38  H   -0.402222   0.575179
    39  H    0.115874   0.037042
    40  H   -0.111839   0.376318
    41  H   -0.164579   0.379973
 Sum of Mulliken charges =  -1.00000   1.00000

 Dipole moment (field-independent basis, Debye):
    X=             -0.0117    Y=             -2.1534    Z=             -1.6359  Tot=              2.7043
 Quadrupole moment (field-independent basis, Debye-Ang):
   XX=           -182.6355   YY=           -167.0016   ZZ=           -156.6392
   XY=              3.1031   XZ=              8.0977   YZ=             -6.6391

 Summary of Natural Population Analysis:

                                       Natural Population
                Natural  -----------------------------------------------
    Atom  No    Charge         Core      Valence    Rydberg      Total
 -----------------------------------------------------------------------
      C    1   -0.09847      0.99961     2.09063    0.00823     3.09847
      O    2   -0.30063      0.99989     3.29080    0.00994     4.30063
      C    3   -0.01742      0.99957     2.00397    0.01387     3.01742
      C    4   -0.01911      0.99958     2.00708    0.01244     3.01911
      O    5   -0.30610      0.99988     3.29639    0.00983     4.30610
      C    6   -0.00710      0.99958     1.99606    0.01146     3.00710
      C    7   -0.20308      0.99956     2.19264    0.01088     3.20308
      C    8   -0.03181      0.99957     2.01781    0.01444     3.03181
      C    9   -0.19637      0.99957     2.18766    0.00914     3.19637
      C   10   -0.01437      0.99946     2.00421    0.01070     3.01437
      C   11   -0.09878      0.99950     2.09055    0.00872     3.09878
      C   12   -0.10440      0.99957     2.09524    0.00959     3.10440
      C   13   -0.10327      0.99957     2.09447    0.00923     3.10327
      C   14   -0.09824      0.99951     2.08893    0.00980     3.09824
      C   15   -0.00724      0.99946     1.99799    0.00979     3.00724
      C   16   -0.20412      0.99956     2.19407    0.01049     3.20412
      C   17   -0.08614      0.99956     2.07408    0.01250     3.08614
      N   18   -0.42478      0.99977     2.91431    0.01070     3.92478
      H   19    0.08870      0.00000     0.41009    0.00121     0.41130
      H   20    0.09197      0.00000     0.40603    0.00200     0.40803
      H   21    0.07376      0.00000     0.42509    0.00115     0.42624
      H   22    0.08180      0.00000     0.41665    0.00155     0.41820
      H   23    0.08945      0.00000     0.40934    0.00121     0.41055
      H   24    0.08120      0.00000     0.41677    0.00203     0.41880
      H   25    0.08117      0.00000     0.41741    0.00142     0.41883
      H   26    0.08277      0.00000     0.41604    0.00119     0.41723
      H   27    0.07746      0.00000     0.42080    0.00174     0.42254
      H   28    0.11817      0.00000     0.37968    0.00215     0.38183
      H   29    0.09934      0.00000     0.39953    0.00113     0.40066
      H   30    0.10477      0.00000     0.39398    0.00125     0.39523
      H   31    0.10351      0.00000     0.39523    0.00126     0.39649
      H   32    0.09929      0.00000     0.39945    0.00126     0.40071
      H   33    0.09823      0.00000     0.40096    0.00082     0.40177
      H   34    0.09849      0.00000     0.40071    0.00080     0.40151
      H   35    0.10096      0.00000     0.39755    0.00149     0.39904
      H   36    0.11507      0.00000     0.38213    0.00280     0.38493
      H   37    0.10442      0.00000     0.39392    0.00165     0.39558
      H   38    0.09174      0.00000     0.40683    0.00143     0.40826
      H   39    0.08608      0.00000     0.41189    0.00203     0.41392
      H   40    0.17877      0.00000     0.31884    0.00239     0.32123
      H   41    0.17431      0.00000     0.32342    0.00227     0.32569
 =======================================================================
   * Total *   -0.00000     17.99276    49.77925    0.22799    68.00000

 Normal termination of Gaussian 16 at Fri Dec 11 20:07:17 2020.
