 Gaussian 16, Revision A.03,

 -----------------------------------------------------------
 # opt freq B3LYP/6-31G(d) empiricaldispersion=gd3bj scf=xqc
 -----------------------------------------------------------

 ------------------------------
 CID_66043872_JID_8949_neutraal
 ------------------------------
 Symbolic Z-matrix:
 Charge =  0 Multiplicity = 1

 SCF Done:  E(RB3LYP) =  -851.229167809     A.U. after   15 cycles
 SCF Done:  E(RB3LYP) =  -851.233531448     A.U. after   13 cycles
 SCF Done:  E(RB3LYP) =  -851.234580655     A.U. after   13 cycles
 SCF Done:  E(RB3LYP) =  -851.234947589     A.U. after   12 cycles
 SCF Done:  E(RB3LYP) =  -851.235329217     A.U. after   13 cycles
 SCF Done:  E(RB3LYP) =  -851.235691745     A.U. after   13 cycles
 SCF Done:  E(RB3LYP) =  -851.236051886     A.U. after   13 cycles
 SCF Done:  E(RB3LYP) =  -851.236260113     A.U. after   12 cycles
 SCF Done:  E(RB3LYP) =  -851.236341692     A.U. after   12 cycles
 SCF Done:  E(RB3LYP) =  -851.236436969     A.U. after   12 cycles
 SCF Done:  E(RB3LYP) =  -851.239899500     A.U. after   11 cycles
 SCF Done:  E(RB3LYP) =  -851.239917495     A.U. after   11 cycles
 SCF Done:  E(RB3LYP) =  -851.239920639     A.U. after   10 cycles
 SCF Done:  E(RB3LYP) =  -851.239920501     A.U. after    8 cycles
 SCF Done:  E(RB3LYP) =  -851.239920819     A.U. after    8 cycles
 SCF Done:  E(RB3LYP) =  -851.239920895     A.U. after    8 cycles
 Optimization completed.
    -- Stationary point found.
 Normal termination of Gaussian 16 at Fri Dec 11 23:34:33 2020.

 --------------------------------------------------------------------
 #N Geom=AllCheck Guess=TCheck SCRF=Check GenChk RB3LYP/6-31G(d) Freq
 --------------------------------------------------------------------

 Structure from the checkpoint file:  "JID_8949.chk"
 ------------------------------
 CID_66043872_JID_8949_neutraal
 ------------------------------
 Charge =  0 Multiplicity = 1

 SCF Done:  E(RB3LYP) =  -851.239920895     A.U. after    1 cycles

  Exact polarizability: 168.716 -17.499 178.931  12.412   8.643  93.450
 Approx polarizability: 261.491 -26.782 282.591  32.819  22.252 158.222

                      1                      2                      3
                      A                      A                      A
 Frequencies --     16.7290                33.7547                53.3786
 Red. masses --      5.9758                 4.7880                 3.7256
 Frc consts  --      0.0010                 0.0032                 0.0063
 IR Inten    --      0.3265                 0.2806                 1.1814

                      4                      5                      6
                      A                      A                      A
 Frequencies --     58.8782                88.5757                90.6921
 Red. masses --      8.0821                 1.3374                 2.6663
 Frc consts  --      0.0165                 0.0062                 0.0129
 IR Inten    --      4.2627                 1.2468                 2.8312

                      7                      8                      9
                      A                      A                      A
 Frequencies --    120.2377               143.9383               213.3868
 Red. masses --      6.5081                 4.6360                 4.6697
 Frc consts  --      0.0554                 0.0566                 0.1253
 IR Inten    --      1.3827                 0.9167                 1.1727

                     10                     11                     12
                      A                      A                      A
 Frequencies --    214.0382               234.1475               243.8668
 Red. masses --      3.6496                 1.5450                 1.9568
 Frc consts  --      0.0985                 0.0499                 0.0686
 IR Inten    --      0.3335                 0.4580                 0.5436

                     13                     14                     15
                      A                      A                      A
 Frequencies --    283.5556               299.4672               315.6024
 Red. masses --      3.7204                 3.6972                 5.5309
 Frc consts  --      0.1762                 0.1954                 0.3246
 IR Inten    --      1.9666                 0.1808                 1.5724

                     16                     17                     18
                      A                      A                      A
 Frequencies --    347.1268               393.0052               405.1171
 Red. masses --      5.1665                 4.6665                 2.1665
 Frc consts  --      0.3668                 0.4247                 0.2095
 IR Inten    --      3.5414                 1.1529                 2.4427

                     19                     20                     21
                      A                      A                      A
 Frequencies --    455.3854               483.2424               512.4569
 Red. masses --      3.9651                 4.6490                 4.1600
 Frc consts  --      0.4845                 0.6396                 0.6437
 IR Inten    --      0.2548                 3.2872                 6.7696

                     22                     23                     24
                      A                      A                      A
 Frequencies --    537.7963               557.7898               583.3709
 Red. masses --      4.8584                 4.9674                 2.8355
 Frc consts  --      0.8279                 0.9106                 0.5686
 IR Inten    --      1.1524                 0.7239                40.9297

                     25                     26                     27
                      A                      A                      A
 Frequencies --    646.8059               691.0368               709.7041
 Red. masses --      1.8578                 8.5561                 7.9379
 Frc consts  --      0.4579                 2.4073                 2.3557
 IR Inten    --     75.6763                 4.8120                 2.7318

                     28                     29                     30
                      A                      A                      A
 Frequencies --    728.8816               734.3991               756.2434
 Red. masses --      2.6809                 2.6422                 7.1656
 Frc consts  --      0.8392                 0.8396                 2.4145
 IR Inten    --     19.8031                47.4540                 7.7625

                     31                     32                     33
                      A                      A                      A
 Frequencies --    776.6703               854.0827               896.8262
 Red. masses --      4.6243                 2.6837                 3.9983
 Frc consts  --      1.6435                 1.1534                 1.8947
 IR Inten    --      6.2332                28.7231                 4.7454

                     34                     35                     36
                      A                      A                      A
 Frequencies --    903.2397               908.4525               949.8524
 Red. masses --      1.9380                 1.7573                 1.6989
 Frc consts  --      0.9316                 0.8545                 0.9031
 IR Inten    --      5.1226                18.4594                 5.5146

                     37                     38                     39
                      A                      A                      A
 Frequencies --    958.2503               983.4886              1024.3269
 Red. masses --      1.3290                 1.4497                 2.9491
 Frc consts  --      0.7190                 0.8261                 1.8231
 IR Inten    --      7.8199                 2.9354                 3.9119

                     40                     41                     42
                      A                      A                      A
 Frequencies --   1035.4328              1051.1852              1064.5658
 Red. masses --      2.1299                 4.2977                 2.5339
 Frc consts  --      1.3454                 2.7980                 1.6919
 IR Inten    --      1.3931                12.5357                 7.0123

                     43                     44                     45
                      A                      A                      A
 Frequencies --   1080.8120              1082.2537              1109.9432
 Red. masses --      2.6667                 1.5354                 3.2930
 Frc consts  --      1.8353                 1.0596                 2.3902
 IR Inten    --     21.1320                11.4111                 9.4189

                     46                     47                     48
                      A                      A                      A
 Frequencies --   1143.7532              1153.7521              1197.5827
 Red. masses --      2.5054                 7.2275                 2.6302
 Frc consts  --      1.9311                 5.6684                 2.2226
 IR Inten    --     91.8204                22.8773                33.2198

                     49                     50                     51
                      A                      A                      A
 Frequencies --   1204.9697              1222.5000              1259.2658
 Red. masses --      2.0725                 1.9536                 1.9460
 Frc consts  --      1.7729                 1.7202                 1.8181
 IR Inten    --     10.2006               169.6951                 0.0315

                     52                     53                     54
                      A                      A                      A
 Frequencies --   1294.9748              1301.5418              1307.0391
 Red. masses --      3.6165                 3.0339                 4.8978
 Frc consts  --      3.5732                 3.0281                 4.9298
 IR Inten    --      1.4742                 3.0417                 0.1086

                     55                     56                     57
                      A                      A                      A
 Frequencies --   1317.8030              1346.1133              1361.6414
 Red. masses --      1.2430                 2.4446                 1.7223
 Frc consts  --      1.2718                 2.6099                 1.8814
 IR Inten    --      1.0974                13.2848                14.6722

                     58                     59                     60
                      A                      A                      A
 Frequencies --   1378.0564              1398.5433              1410.9748
 Red. masses --      1.3004                 1.9799                 1.7799
 Frc consts  --      1.4550                 2.2817                 2.0878
 IR Inten    --      0.0852                24.9696                50.7295

                     61                     62                     63
                      A                      A                      A
 Frequencies --   1428.9574              1446.8595              1453.3020
 Red. masses --      3.8228                 1.2508                 1.2618
 Frc consts  --      4.5991                 1.5427                 1.5702
 IR Inten    --      4.6827                 0.8402                 8.6645

                     64                     65                     66
                      A                      A                      A
 Frequencies --   1469.4062              1500.2023              1519.6335
 Red. masses --      2.1903                 3.0601                 1.0647
 Frc consts  --      2.7863                 4.0578                 1.4486
 IR Inten    --     29.3764                40.0407                 4.1794

                     67                     68                     69
                      A                      A                      A
 Frequencies --   1525.1596              1526.3925              1529.9944
 Red. masses --      1.1929                 1.0669                 1.0951
 Frc consts  --      1.6349                 1.4645                 1.5103
 IR Inten    --     14.6891                12.2833                 1.3858

                     70                     71                     72
                      A                      A                      A
 Frequencies --   1537.2157              1568.7756              1624.8438
 Red. masses --      1.1494                 5.1094                 4.8475
 Frc consts  --      1.6003                 7.4087                 7.5403
 IR Inten    --     30.6716                 8.6585                20.1845

                     73                     74                     75
                      A                      A                      A
 Frequencies --   1662.0964              1816.1343              3041.0547
 Red. masses --      5.0953                10.0034                 1.0815
 Frc consts  --      8.2934                19.4399                 5.8929
 IR Inten    --      3.4493               257.7620                 2.0330

                     76                     77                     78
                      A                      A                      A
 Frequencies --   3048.8719              3070.4509              3107.7542
 Red. masses --      1.0393                 1.0363                 1.0970
 Frc consts  --      5.6920                 5.7565                 6.2424
 IR Inten    --     21.0088                13.7964                13.1692

                     79                     80                     81
                      A                      A                      A
 Frequencies --   3118.5336              3135.2822              3138.3078
 Red. masses --      1.0613                 1.1035                 1.1031
 Frc consts  --      6.0812                 6.3910                 6.4009
 IR Inten    --      4.9131                 8.2351                14.4115

                     82                     83                     84
                      A                      A                      A
 Frequencies --   3158.0134              3165.5898              3171.7907
 Red. masses --      1.1027                 1.0904                 1.1054
 Frc consts  --      6.4794                 6.4379                 6.5519
 IR Inten    --     11.3436                29.9592                 2.8702

                     85                     86                     87
                      A                      A                      A
 Frequencies --   3215.2796              3248.6350              3677.8380
 Red. masses --      1.0917                 1.0897                 1.0640
 Frc consts  --      6.6498                 6.7756                 8.4795
 IR Inten    --      1.0657                 1.2866                63.6934

 - Thermochemistry -
 -------------------
 Temperature   298.150 Kelvin.  Pressure   1.00000 Atm.
 Atom     1 has atomic number  6 and mass  12.00000

 Molecular mass:   247.10692 amu.
 Principal axes and moments of inertia in atomic units:
                           1         2         3
     Eigenvalues --  3853.530434587.591117639.27518
           X            0.99599  -0.08884  -0.01079
           Y            0.08894   0.99600   0.00910
           Z            0.00994  -0.01002   0.99990
 This molecule is an asymmetric top.
 Rotational symmetry number  1.
 Warning -- assumption of classical behavior for rotation
           may cause significant error
 Rotational temperatures (Kelvin)      0.02248     0.01888     0.01134
 Rotational constants (GHZ):           0.46833     0.39340     0.23625
 Zero-point vibrational energy     645007.8 (Joules/Mol)
                                  154.16056 (Kcal/Mol)
 Warning -- explicit consideration of  24 degrees of freedom as
           vibrations may cause significant error
 Vibrational temperatures:     24.07    48.57    76.80    84.71   127.44
          (Kelvin)            130.49   173.00   207.10   307.02   307.95
                              336.89   350.87   407.97   430.87   454.08
                              499.44   565.45   582.87   655.20   695.28
                              737.31   773.77   802.54   839.34   930.61
                              994.25  1021.11  1048.70  1056.64  1088.07
                             1117.46  1228.83  1290.33  1299.56  1307.06
                             1366.63  1378.71  1415.02  1473.78  1489.76
                             1512.42  1531.67  1555.05  1557.12  1596.96
                             1645.61  1659.99  1723.05  1733.68  1758.90
                             1811.80  1863.18  1872.63  1880.54  1896.02
                             1936.76  1959.10  1982.72  2012.19  2030.08
                             2055.95  2081.71  2090.98  2114.15  2158.46
                             2186.41  2194.36  2196.14  2201.32  2211.71
                             2257.12  2337.79  2391.39  2613.01  4375.40
                             4386.65  4417.69  4471.37  4486.87  4510.97
                             4515.32  4543.68  4554.58  4563.50  4626.07
                             4674.06  5291.59

 Zero-point correction=                           0.245670 (Hartree/Particle)
 Thermal correction to Energy=                    0.261920
 Thermal correction to Enthalpy=                  0.262864
 Thermal correction to Gibbs Free Energy=         0.199498
 Sum of electronic and zero-point Energies=           -850.994250
 Sum of electronic and thermal Energies=              -850.978001
 Sum of electronic and thermal Enthalpies=            -850.977057
 Sum of electronic and thermal Free Energies=         -851.040423

                     E (Thermal)             CV                S
                      KCal/Mol        Cal/Mol-Kelvin    Cal/Mol-Kelvin
 Total                  164.357             59.997            133.365
 Electronic               0.000              0.000              0.000
 Translational            0.889              2.981             42.415
 Rotational               0.889              2.981             33.268
 Vibrational            162.580             54.035             57.683
 Vibration     1          0.593              1.986              6.989
 Vibration     2          0.594              1.983              5.596
 Vibration     3          0.596              1.976              4.688
 Vibration     4          0.596              1.974              4.494
 Vibration     5          0.601              1.957              3.691
 Vibration     6          0.602              1.956              3.645
 Vibration     7          0.609              1.932              3.097
 Vibration     8          0.616              1.909              2.751
 Vibration     9          0.644              1.821              2.015
 Vibration    10          0.644              1.820              2.009
 Vibration    11          0.654              1.789              1.847
 Vibration    12          0.659              1.773              1.774
 Vibration    13          0.682              1.704              1.512
 Vibration    14          0.692              1.675              1.420
 Vibration    15          0.703              1.644              1.333
 Vibration    16          0.725              1.581              1.179
 Vibration    17          0.760              1.485              0.989
 Vibration    18          0.770              1.459              0.944
 Vibration    19          0.814              1.349              0.780
 Vibration    20          0.839              1.287              0.701
 Vibration    21          0.868              1.222              0.628
 Vibration    22          0.893              1.166              0.570
 Vibration    23          0.913              1.123              0.528
 Vibration    24          0.940              1.067              0.479

                           ! Non-Optimized Parameters !
 Normal termination of Gaussian 16 at Fri Dec 11 23:46:21 2020.

 ----------------------------------------------------------------------
 # B3LYP/6-311++G(d,p) empiricaldispersion=gd3bj scf=xqc pop=npa geom=c
 heck
 ----------------------------------------------------------------------

 --------------------------------------
 CID_66043872_JID_8949_Energie_neutraal
 --------------------------------------
 Structure from the checkpoint file:  "JID_8949.chk"
 Charge =  0 Multiplicity = 1

 SCF Done:  E(RB3LYP) =  -851.473087771     A.U. after   15 cycles
 Normal termination of Gaussian 16 at Fri Dec 11 23:51:40 2020.

 ----------------------------------------------------------------------
 # B3LYP/6-311++G(d,p) empiricaldispersion=gd3bj scf=xqc pop=npa geom=c
 heck
 ----------------------------------------------------------------------

 ------------------------------------
 CID_66043872_JID_8949_Energie_kation
 ------------------------------------
 Structure from the checkpoint file:  "JID_8949.chk"
 Charge =  1 Multiplicity = 2

 SCF Done:  E(UB3LYP) =  -851.144278123     A.U. after   28 cycles
 Normal termination of Gaussian 16 at Sat Dec 12 00:05:33 2020.
 Gaussian 16:  ES64L-G16RevA.03 25-Dec-2016

 ----------------------------------------------------------------------
 # B3LYP/6-311++G(d,p) empiricaldispersion=gd3bj scf=xqc pop=npa geom=c
 heck
 ----------------------------------------------------------------------

 -----------------------------------
 CID_66043872_JID_8949_Energie_anion
 -----------------------------------
 Structure from the checkpoint file:  "JID_8949.chk"
 Charge = -1 Multiplicity = 2

                         Standard orientation:
 ---------------------------------------------------------------------
 Center     Atomic      Atomic             Coordinates (Angstroms)
 Number     Number       Type             X           Y           Z
 ---------------------------------------------------------------------
      1          6           0        2.258093   -2.979043   -0.659966
      2          6           0        2.356888   -1.549005   -0.194451
      3          6           0        1.332958   -0.635782   -0.451938
      4          6           0        1.453447    0.690174   -0.017204
      5          6           0        2.634930    1.046568    0.661063
      6          7           0        3.622517    0.189548    0.915239
      7          6           0        3.475035   -1.074170    0.498495
      8          6           0        0.436844    1.728504   -0.206197
      9          7           0        0.652973    3.024052    0.004106
     10          7           0       -0.517471    3.658906   -0.230591
     11          7           0       -1.440179    2.820521   -0.573848
     12          7           0       -0.865644    1.589384   -0.574062
     13          6           0       -1.686309    0.422942   -0.861063
     14          6           0       -1.937011   -0.422134    0.405239
     15          6           0       -3.013523    0.193771    1.302199
     16          6           0       -2.178601   -1.867475   -0.004592
     17          8           0       -1.603461   -2.423044   -0.920231
     18          8           0       -3.068802   -2.502058    0.781674
     19          1           0        2.684520   -3.096487   -1.664292
     20          1           0        2.804382   -3.653283    0.007384
     21          1           0        1.214340   -3.305157   -0.707457
     22          1           0        0.459499   -0.989870   -0.984216
     23          1           0        2.762102    2.067900    1.007368
     24          1           0        4.295213   -1.751877    0.732980
     25          1           0       -2.627968    0.816134   -1.249713
     26          1           0       -1.218550   -0.169534   -1.646584
     27          1           0       -0.991953   -0.463696    0.965234
     28          1           0       -3.990723    0.177882    0.809069
     29          1           0       -3.100034   -0.347728    2.246598
     30          1           0       -2.759667    1.235919    1.518156
     31          1           0       -3.114930   -3.422361    0.458519
 ---------------------------------------------------------------------

 SCF Done:  E(UB3LYP) =  -851.490919400     A.U. after   32 cycles

 The electronic state is 2-A.
 Alpha  occ. eigenvalues --  -19.09175 -19.03197 -14.27442 -14.24269 -14.23828
 Alpha  occ. eigenvalues --  -14.19503 -14.17531 -10.22393 -10.12574 -10.11326
 Alpha  occ. eigenvalues --  -10.11051 -10.08130 -10.07130 -10.06359 -10.06202
 Alpha  occ. eigenvalues --  -10.05939 -10.05745 -10.04854  -1.03215  -1.00252
 Alpha  occ. eigenvalues --   -0.93969  -0.82754  -0.81107  -0.76059  -0.72306
 Alpha  occ. eigenvalues --   -0.68952  -0.65447  -0.62322  -0.58451  -0.58191
 Alpha  occ. eigenvalues --   -0.53802  -0.52778  -0.51268  -0.48107  -0.46650
 Alpha  occ. eigenvalues --   -0.42882  -0.41469  -0.40458  -0.38729  -0.37971
 Alpha  occ. eigenvalues --   -0.36563  -0.36083  -0.35627  -0.33943  -0.32600
 Alpha  occ. eigenvalues --   -0.32513  -0.31709  -0.29853  -0.29268  -0.28564
 Alpha  occ. eigenvalues --   -0.27973  -0.27640  -0.27006  -0.26478  -0.24965
 Alpha  occ. eigenvalues --   -0.24205  -0.23928  -0.20448  -0.19814  -0.18464
 Alpha  occ. eigenvalues --   -0.17319  -0.15617  -0.15290  -0.12784  -0.12242
 Alpha  occ. eigenvalues --    0.03140
 Alpha virt. eigenvalues --    0.05024   0.07251   0.08244   0.08485   0.09388
 Alpha virt. eigenvalues --    0.09734   0.10734   0.10860   0.11402   0.11787
 Alpha virt. eigenvalues --    0.12205   0.12727   0.13168   0.13285   0.14090

  Beta  occ. eigenvalues --  -19.09129 -19.03175 -14.27208 -14.24058 -14.23911
  Beta  occ. eigenvalues --  -14.19377 -14.17515 -10.22370 -10.12583 -10.11186
  Beta  occ. eigenvalues --  -10.11026 -10.08128 -10.07075 -10.06355 -10.06297
  Beta  occ. eigenvalues --  -10.05601 -10.05588 -10.04606  -1.03135  -1.00014
  Beta  occ. eigenvalues --   -0.93908  -0.82484  -0.80843  -0.75697  -0.72231
  Beta  occ. eigenvalues --   -0.68737  -0.65079  -0.62252  -0.58374  -0.57956
  Beta  occ. eigenvalues --   -0.53539  -0.52394  -0.51051  -0.47935  -0.46498
  Beta  occ. eigenvalues --   -0.42752  -0.41368  -0.40332  -0.38531  -0.37798
  Beta  occ. eigenvalues --   -0.36241  -0.35776  -0.35509  -0.33710  -0.32519
  Beta  occ. eigenvalues --   -0.32405  -0.31617  -0.29819  -0.29200  -0.28483
  Beta  occ. eigenvalues --   -0.27884  -0.27499  -0.26832  -0.25822  -0.24810
  Beta  occ. eigenvalues --   -0.24107  -0.23748  -0.20237  -0.18735  -0.17659
  Beta  occ. eigenvalues --   -0.17169  -0.15464  -0.14364  -0.12704  -0.11018
  Beta virt. eigenvalues --    0.05847   0.07306   0.08130   0.08486   0.08595
  Beta virt. eigenvalues --    0.09321   0.09864   0.10706   0.10879   0.11437
  Beta virt. eigenvalues --    0.12109   0.12453   0.12796   0.13141   0.13317

 Mulliken charges and spin densities:
               1          2
     1  C   -0.748043  -0.007818
     2  C    0.340236  -0.034765
     3  C    0.007228   0.195260
     4  C    0.517909   0.078009
     5  C   -0.597553   0.045667
     6  N   -0.047502  -0.004349
     7  C   -0.568671   0.271140
     8  C   -0.349426   0.071827
     9  N   -0.119452   0.058656
    10  N   -0.024213  -0.043962
    11  N    0.055760   0.100645
    12  N    0.020553   0.071999
    13  C   -0.712835  -0.019352
    14  C    0.741983  -0.321296
    15  C   -0.498335  -0.082298
    16  C   -0.361477   0.075352
    17  O   -0.270362   0.006674
    18  O   -0.113687  -0.015674
    19  H    0.143177   0.000203
    20  H    0.130856  -0.002595
    21  H    0.132798   0.034604
    22  H    0.087017  -0.040399
    23  H    0.212978  -0.002422
    24  H    0.133555  -0.021122
    25  H    0.188592   0.004670
    26  H    0.199911   0.041726
    27  H    0.239413   0.005139
    28  H    0.138221   0.020998
    29  H    0.168767   0.005245
    30  H    0.177104  -0.003421
    31  H   -0.224503   0.511660
 Sum of Mulliken charges =  -1.00000   1.00000

 Dipole moment (field-independent basis, Debye):
    X=             -3.6598    Y=             -4.5778    Z=             -0.5364  Tot=              5.8854
 Quadrupole moment (field-independent basis, Debye-Ang):
   XX=           -151.3792   YY=           -162.3665   ZZ=           -116.8378
   XY=             -8.0436   XZ=             -5.2717   YZ=              0.7366

 Summary of Natural Population Analysis:

                                       Natural Population
                Natural  -----------------------------------------------
    Atom  No    Charge         Core      Valence    Rydberg      Total
 -----------------------------------------------------------------------
      C    1   -0.29112      0.99964     2.28667    0.00481     3.29112
      C    2   -0.05786      0.99951     2.05089    0.00746     3.05786
      C    3   -0.03972      0.99949     2.03351    0.00673     3.03972
      C    4   -0.05164      0.99949     2.04484    0.00732     3.05164
      C    5    0.05358      0.99957     1.93288    0.01397     2.94642
      N    6   -0.24136      0.99971     2.72877    0.01288     3.74136
      C    7    0.08476      0.99954     1.90120    0.01450     2.91524
      C    8    0.20290      0.99958     1.78283    0.01469     2.79710
      N    9   -0.15420      0.99970     2.64133    0.01318     3.65420
      N   10   -0.06947      0.99981     2.54946    0.02020     3.56947
      N   11   -0.02999      0.99978     2.51536    0.01485     3.52999
      N   12   -0.09876      0.99961     2.58084    0.01832     3.59876
      C   13   -0.08588      0.99960     2.07343    0.01286     3.08588
      C   14   -0.16389      0.99955     2.15540    0.00894     3.16389
      C   15   -0.28717      0.99965     2.28017    0.00734     3.28717
      C   16    0.41315      0.99968     1.56132    0.02584     2.58685
      O   17   -0.31129      0.99987     3.30541    0.00602     4.31129
      O   18   -0.34148      0.99987     3.33508    0.00653     4.34148
      H   19    0.09776      0.00000     0.40128    0.00096     0.40224
      H   20    0.09689      0.00000     0.40222    0.00089     0.40311
      H   21    0.10603      0.00000     0.39298    0.00098     0.39397
      H   22    0.09748      0.00000     0.40033    0.00219     0.40252
      H   23    0.09499      0.00000     0.40325    0.00176     0.40501
      H   24    0.07562      0.00000     0.42294    0.00145     0.42438
      H   25    0.10743      0.00000     0.39119    0.00139     0.39257
      H   26    0.11293      0.00000     0.38611    0.00096     0.38707
      H   27    0.12635      0.00000     0.37160    0.00205     0.37365
      H   28    0.09802      0.00000     0.40117    0.00081     0.40198
      H   29    0.10463      0.00000     0.39468    0.00069     0.39537
      H   30    0.10889      0.00000     0.39014    0.00097     0.39111
      H   31    0.24244      0.00000     0.24788    0.00968     0.25756
 =======================================================================
   * Total *    0.00000     17.99365    46.76514    0.24121    65.00000

 Normal termination of Gaussian 16 at Sat Dec 12 00:21:03 2020.
