 Gaussian 16, Revision A.03,

 -----------------------------------------------------------
 # opt freq B3LYP/6-31G(d) empiricaldispersion=gd3bj scf=xqc
 -----------------------------------------------------------

 -------------------------------
 CID_149017408_JID_5959_neutraal
 -------------------------------
 Symbolic Z-matrix:
 Charge =  0 Multiplicity = 1

 SCF Done:  E(RB3LYP) =  -760.437706153     A.U. after   14 cycles
 SCF Done:  E(RB3LYP) =  -760.440431706     A.U. after   12 cycles
 SCF Done:  E(RB3LYP) =  -760.436858183     A.U. after   13 cycles
 SCF Done:  E(RB3LYP) =  -760.444762015     A.U. after   11 cycles
 SCF Done:  E(RB3LYP) =  -760.446030150     A.U. after   12 cycles
 SCF Done:  E(RB3LYP) =  -760.447561429     A.U. after   12 cycles
 SCF Done:  E(RB3LYP) =  -760.448227286     A.U. after   12 cycles
 SCF Done:  E(RB3LYP) =  -760.448641294     A.U. after   12 cycles
 SCF Done:  E(RB3LYP) =  -760.448868336     A.U. after   11 cycles
 SCF Done:  E(RB3LYP) =  -760.448818549     A.U. after   12 cycles
 SCF Done:  E(RB3LYP) =  -760.449061220     A.U. after    7 cycles
 SCF Done:  E(RB3LYP) =  -760.449061406     A.U. after    8 cycles
 SCF Done:  E(RB3LYP) =  -760.449061510     A.U. after    7 cycles
 SCF Done:  E(RB3LYP) =  -760.449061575     A.U. after    7 cycles
 SCF Done:  E(RB3LYP) =  -760.449061596     A.U. after    7 cycles
 Optimization completed.
    -- Stationary point found.
 Normal termination of Gaussian 16 at Thu Dec 10 17:54:01 2020.

 --------------------------------------------------------------------
 #N Geom=AllCheck Guess=TCheck SCRF=Check GenChk RB3LYP/6-31G(d) Freq
 --------------------------------------------------------------------

 Structure from the checkpoint file:  "JID_5959.chk"
 -------------------------------
 CID_149017408_JID_5959_neutraal
 -------------------------------
 Charge =  0 Multiplicity = 1

 SCF Done:  E(RB3LYP) =  -760.449061596     A.U. after    1 cycles

  Exact polarizability: 124.270   1.526 126.193 -10.549  -0.407  99.690
 Approx polarizability: 155.882   1.806 186.725 -23.154  -1.006 158.338

                      1                      2                      3
                      A                      A                      A
 Frequencies --     15.9602                33.6684                38.3044
 Red. masses --      4.1190                 5.2867                 3.9516
 Frc consts  --      0.0006                 0.0035                 0.0034
 IR Inten    --      1.2816                 2.9249                 0.6848

                      4                      5                      6
                      A                      A                      A
 Frequencies --     57.8240                67.0533                85.4193
 Red. masses --      5.1289                 5.1815                 6.0040
 Frc consts  --      0.0101                 0.0137                 0.0258
 IR Inten    --      0.9409                 2.7549                 1.8318

                      7                      8                      9
                      A                      A                      A
 Frequencies --     95.1937               123.9660               152.1804
 Red. masses --      6.9435                 3.1539                 3.2729
 Frc consts  --      0.0371                 0.0286                 0.0447
 IR Inten    --     14.4469                 1.7599                14.3768

                     10                     11                     12
                      A                      A                      A
 Frequencies --    202.9162               209.2268               246.8054
 Red. masses --      1.3858                 2.9562                 2.2965
 Frc consts  --      0.0336                 0.0762                 0.0824
 IR Inten    --    104.3792                 5.0320                 7.0172

                     13                     14                     15
                      A                      A                      A
 Frequencies --    265.7224               271.6534               291.8936
 Red. masses --      2.4705                 1.4032                 3.7162
 Frc consts  --      0.1028                 0.0610                 0.1865
 IR Inten    --      9.1767                 0.9355                 2.3077

                     16                     17                     18
                      A                      A                      A
 Frequencies --    304.1492               349.7456               413.9592
 Red. masses --      2.0338                 2.6690                 1.9797
 Frc consts  --      0.1109                 0.1924                 0.1999
 IR Inten    --      1.6361                 2.0883                18.4731

                     19                     20                     21
                      A                      A                      A
 Frequencies --    419.6218               455.6298               509.5178
 Red. masses --      1.9458                 1.3151                 3.3659
 Frc consts  --      0.2019                 0.1609                 0.5148
 IR Inten    --      6.8908                23.7843                12.3571

                     22                     23                     24
                      A                      A                      A
 Frequencies --    512.6729               527.0164               558.7168
 Red. masses --      2.7121                 3.3799                 3.7098
 Frc consts  --      0.4200                 0.5531                 0.6823
 IR Inten    --      5.7735                 7.4068                27.2034

                     25                     26                     27
                      A                      A                      A
 Frequencies --    586.9059               627.6665               654.6004
 Red. masses --      2.5468                 1.3583                 2.2343
 Frc consts  --      0.5169                 0.3153                 0.5641
 IR Inten    --      4.0885               179.6740                26.0926

                     28                     29                     30
                      A                      A                      A
 Frequencies --    701.1545               720.6423               744.0107
 Red. masses --      1.3664                 2.9742                 2.0408
 Frc consts  --      0.3958                 0.9100                 0.6656
 IR Inten    --    117.3772                 7.4038                10.8959

                     31                     32                     33
                      A                      A                      A
 Frequencies --    759.6780               802.5305               815.3918
 Red. masses --      1.4935                 5.2042                 3.2067
 Frc consts  --      0.5078                 1.9748                 1.2562
 IR Inten    --     21.8481                94.9175               144.9105

                     34                     35                     36
                      A                      A                      A
 Frequencies --    821.3580               859.2340               876.1534
 Red. masses --      1.8779                 2.8358                 2.3570
 Frc consts  --      0.7464                 1.2335                 1.0660
 IR Inten    --     31.1766                 3.4213                 3.2085

                     37                     38                     39
                      A                      A                      A
 Frequencies --    917.5353               944.1393               974.6817
 Red. masses --      2.0746                 1.7175                 2.0625
 Frc consts  --      1.0290                 0.9020                 1.1544
 IR Inten    --     11.0469                 6.4995                33.9444

                     40                     41                     42
                      A                      A                      A
 Frequencies --   1012.0165              1029.7107              1064.6874
 Red. masses --      1.7320                 2.1276                 1.6360
 Frc consts  --      1.0451                 1.3291                 1.0926
 IR Inten    --      1.0680                10.6256                 9.2106

                     43                     44                     45
                      A                      A                      A
 Frequencies --   1083.8349              1104.0818              1131.3093
 Red. masses --      2.4093                 2.3394                 1.8951
 Frc consts  --      1.6675                 1.6802                 1.4290
 IR Inten    --    107.0024                 1.4297                50.7484

                     46                     47                     48
                      A                      A                      A
 Frequencies --   1137.1689              1153.0953              1177.2330
 Red. masses --      2.5597                 2.4349                 2.3496
 Frc consts  --      1.9502                 1.9075                 1.9185
 IR Inten    --      7.0996                62.4418                15.1727

                     49                     50                     51
                      A                      A                      A
 Frequencies --   1208.6079              1212.6899              1254.1702
 Red. masses --      1.7105                 1.8799                 1.3634
 Frc consts  --      1.4721                 1.6289                 1.2635
 IR Inten    --     40.1852                 4.7129                43.9490

                     52                     53                     54
                      A                      A                      A
 Frequencies --   1299.3988              1327.2818              1337.9177
 Red. masses --      1.2421                 1.2696                 1.4028
 Frc consts  --      1.2357                 1.3177                 1.4794
 IR Inten    --     15.5910                 4.2463                11.3057

                     55                     56                     57
                      A                      A                      A
 Frequencies --   1376.1457              1382.8655              1402.3422
 Red. masses --      1.5166                 1.2918                 1.3069
 Frc consts  --      1.6922                 1.4555                 1.5143
 IR Inten    --    107.9862                25.3422                27.8355

                     58                     59                     60
                      A                      A                      A
 Frequencies --   1405.7399              1413.8491              1436.1321
 Red. masses --      1.3468                 1.2594                 1.9246
 Frc consts  --      1.5681                 1.4833                 2.3387
 IR Inten    --     17.6848                16.9912               141.6571

                     61                     62                     63
                      A                      A                      A
 Frequencies --   1439.6951              1446.0700              1453.6630
 Red. masses --      2.1469                 1.3753                 1.5575
 Frc consts  --      2.6218                 1.6944                 1.9391
 IR Inten    --    146.1487                71.5744                77.3302

                     64                     65                     66
                      A                      A                      A
 Frequencies --   1478.8346              1492.7061              1502.3395
 Red. masses --      1.3646                 1.3085                 1.0908
 Frc consts  --      1.7582                 1.7178                 1.4506
 IR Inten    --      3.1846                 7.7020                 7.9892

                     67                     68                     69
                      A                      A                      A
 Frequencies --   1515.8360              1521.8804              1530.3560
 Red. masses --      1.1459                 1.1949                 1.1182
 Frc consts  --      1.5513                 1.6306                 1.5430
 IR Inten    --     14.9261                31.9530                19.3301

                     70                     71                     72
                      A                      A                      A
 Frequencies --   1536.8749              1541.3895              1542.1466
 Red. masses --      1.0875                 1.1424                 1.1122
 Frc consts  --      1.5134                 1.5992                 1.5584
 IR Inten    --      0.8344                 6.1927                 8.4981

                     73                     74                     75
                      A                      A                      A
 Frequencies --   1656.7792              1790.3667              1808.1718
 Red. masses --      1.1995                 5.6495                 5.7462
 Frc consts  --      1.9399                10.6695                11.0690
 IR Inten    --    154.8151               376.0822               350.5836

                     76                     77                     78
                      A                      A                      A
 Frequencies --   3029.8565              3054.4108              3056.9512
 Red. masses --      1.0686                 1.0602                 1.0376
 Frc consts  --      5.7798                 5.8278                 5.7126
 IR Inten    --     29.3888                14.2027                18.7462

                     79                     80                     81
                      A                      A                      A
 Frequencies --   3075.6600              3093.8942              3095.7654
 Red. masses --      1.0652                 1.0937                 1.0833
 Frc consts  --      5.9369                 6.1680                 6.1167
 IR Inten    --     15.3547                 6.3883                28.1168

                     82                     83                     84
                      A                      A                      A
 Frequencies --   3105.2038              3109.9328              3123.7686
 Red. masses --      1.0924                 1.0803                 1.1009
 Frc consts  --      6.2060                 6.1558                 6.3294
 IR Inten    --     41.6270                31.3139                11.3284

                     85                     86                     87
                      A                      A                      A
 Frequencies --   3126.6306              3143.9290              3147.8559
 Red. masses --      1.1020                 1.1029                 1.0994
 Frc consts  --      6.3471                 6.4227                 6.4187
 IR Inten    --     41.7308                22.9967                15.0169

                     88                     89                     90
                      A                      A                      A
 Frequencies --   3513.9599              3555.3953              3584.8195
 Red. masses --      1.0753                 1.0479                 1.0753
 Frc consts  --      7.8229                 7.8046                 8.1420
 IR Inten    --    116.7817                19.5473                18.6572

                     91                     92                     93
                      A                      A                      A
 Frequencies --   3594.8528              3664.6232              3764.9179
 Red. masses --      1.0755                 1.0988                 1.0666
 Frc consts  --      8.1888                 8.6940                 8.9076
 IR Inten    --     22.0819                21.5286                 7.2897

 - Thermochemistry -
 -------------------
 Temperature   298.150 Kelvin.  Pressure   1.00000 Atm.
 Atom     1 has atomic number  6 and mass  12.00000

 Molecular mass:   218.13789 amu.
 Principal axes and moments of inertia in atomic units:
                           1         2         3
     Eigenvalues --  2256.455834672.161385996.25002
           X            0.99967   0.02553  -0.00039
           Y           -0.02553   0.99967   0.00134
           Z            0.00043  -0.00133   1.00000
 This molecule is an asymmetric top.
 Rotational symmetry number  1.
 Warning -- assumption of classical behavior for rotation
           may cause significant error
 Rotational temperatures (Kelvin)      0.03838     0.01854     0.01444
 Rotational constants (GHZ):           0.79981     0.38628     0.30098
 Zero-point vibrational energy     754032.1 (Joules/Mol)
                                  180.21799 (Kcal/Mol)
 Warning -- explicit consideration of  25 degrees of freedom as
           vibrations may cause significant error
 Vibrational temperatures:     22.96    48.44    55.11    83.20    96.47
          (Kelvin)            122.90   136.96   178.36   218.95   291.95
                              301.03   355.10   382.32   390.85   419.97
                              437.60   503.21   595.59   603.74   655.55
                              733.08   737.62   758.26   803.87   844.43
                              903.07   941.82  1008.80  1036.84  1070.47
                             1093.01  1154.66  1173.17  1181.75  1236.25
                             1260.59  1320.13  1358.41  1402.35  1456.07
                             1481.52  1531.85  1559.40  1588.53  1627.70
                             1636.13  1659.05  1693.78  1738.92  1744.79
                             1804.47  1869.55  1909.66  1924.97  1979.97
                             1989.64  2017.66  2022.55  2034.21  2066.27
                             2071.40  2080.57  2091.50  2127.71  2147.67
                             2161.53  2180.95  2189.65  2201.84  2211.22
                             2217.72  2218.80  2383.74  2575.94  2601.56
                             4359.29  4394.62  4398.27  4425.19  4451.42
                             4454.12  4467.70  4474.50  4494.41  4498.52
                             4523.41  4529.06  5055.80  5115.42  5157.76
                             5172.19  5272.58  5416.88

 Zero-point correction=                           0.287196 (Hartree/Particle)
 Thermal correction to Energy=                    0.304256
 Thermal correction to Enthalpy=                  0.305201
 Thermal correction to Gibbs Free Energy=         0.240072
 Sum of electronic and zero-point Energies=           -760.161866
 Sum of electronic and thermal Energies=              -760.144805
 Sum of electronic and thermal Enthalpies=            -760.143861
 Sum of electronic and thermal Free Energies=         -760.208989

                     E (Thermal)             CV                S
                      KCal/Mol        Cal/Mol-Kelvin    Cal/Mol-Kelvin
 Total                  190.924             61.905            137.074
 Electronic               0.000              0.000              0.000
 Translational            0.889              2.981             42.043
 Rotational               0.889              2.981             32.514
 Vibrational            189.146             55.944             62.517
 Vibration     1          0.593              1.986              7.082
 Vibration     2          0.594              1.983              5.601
 Vibration     3          0.594              1.982              5.345
 Vibration     4          0.596              1.974              4.530
 Vibration     5          0.598              1.970              4.238
 Vibration     6          0.601              1.959              3.762
 Vibration     7          0.603              1.953              3.550
 Vibration     8          0.610              1.929              3.038
 Vibration     9          0.619              1.900              2.645
 Vibration    10          0.639              1.836              2.106
 Vibration    11          0.642              1.827              2.050
 Vibration    12          0.661              1.768              1.753
 Vibration    13          0.672              1.736              1.624
 Vibration    14          0.675              1.726              1.586
 Vibration    15          0.687              1.689              1.463
 Vibration    16          0.695              1.666              1.394
 Vibration    17          0.727              1.576              1.167
 Vibration    18          0.778              1.440              0.913
 Vibration    19          0.782              1.428              0.893
 Vibration    20          0.814              1.348              0.779
 Vibration    21          0.865              1.229              0.635
 Vibration    22          0.868              1.222              0.627
 Vibration    23          0.882              1.190              0.594
 Vibration    24          0.914              1.121              0.526
 Vibration    25          0.944              1.060              0.473

                           ! Non-Optimized Parameters !
 Normal termination of Gaussian 16 at Thu Dec 10 18:05:15 2020.

 ----------------------------------------------------------------------
 # B3LYP/6-311++G(d,p) empiricaldispersion=gd3bj scf=xqc pop=npa geom=c
 heck
 ----------------------------------------------------------------------

 ---------------------------------------
 CID_149017408_JID_5959_Energie_neutraal
 ---------------------------------------
 Structure from the checkpoint file:  "JID_5959.chk"
 Charge =  0 Multiplicity = 1

 SCF Done:  E(RB3LYP) =  -760.702608154     A.U. after   14 cycles
 Normal termination of Gaussian 16 at Thu Dec 10 18:10:22 2020.

 ----------------------------------------------------------------------
 # B3LYP/6-311++G(d,p) empiricaldispersion=gd3bj scf=xqc pop=npa geom=c
 heck
 ----------------------------------------------------------------------

 -------------------------------------
 CID_149017408_JID_5959_Energie_kation
 -------------------------------------
 Structure from the checkpoint file:  "JID_5959.chk"
 Charge =  1 Multiplicity = 2

 SCF Done:  E(UB3LYP) =  -760.381174958     A.U. after   33 cycles
 SCF Done:  E(UB3LYP) =  -760.381174958     a.u. after    1 cycles
 Normal termination of Gaussian 16 at Thu Dec 10 18:26:15 2020.
 Gaussian 16:  ES64L-G16RevA.03 25-Dec-2016

 ----------------------------------------------------------------------
 # B3LYP/6-311++G(d,p) empiricaldispersion=gd3bj scf=xqc pop=npa geom=c
 heck
 ----------------------------------------------------------------------

 ------------------------------------
 CID_149017408_JID_5959_Energie_anion
 ------------------------------------
 Structure from the checkpoint file:  "JID_5959.chk"
 Charge = -1 Multiplicity = 2

                         Standard orientation:
 ---------------------------------------------------------------------
 Center     Atomic      Atomic             Coordinates (Angstroms)
 Number     Number       Type             X           Y           Z
 ---------------------------------------------------------------------
      1          6           0       -2.530186   -2.145875   -0.362626
      2          6           0       -2.221943   -0.831188    0.355543
      3          6           0       -1.002800   -0.952851    1.307501
      4          7           0        0.152867   -1.682174    0.782437
      5          6           0        0.831029   -1.449746   -0.404824
      6          8           0        1.290286   -2.380668   -1.060530
      7          7           0        0.961976   -0.132981   -0.836483
      8          6           0        1.261065    1.019571    0.035355
      9          6           0        2.339334    0.755286    1.090588
     10          6           0        3.676521    0.297562    0.504252
     11          8           0        4.253076    1.265597   -0.371718
     12          7           0       -2.057646    0.248870   -0.623332
     13          6           0       -2.285348    1.583524   -0.336524
     14          8           0       -1.624777    2.485344   -0.839840
     15          7           0       -3.307740    1.839727    0.575084
     16          1           0       -1.713593   -2.430643   -1.034085
     17          1           0       -3.441435   -2.045655   -0.958529
     18          1           0       -2.671466   -2.959750    0.358183
     19          1           0       -3.072729   -0.569254    0.991064
     20          1           0       -0.708523    0.046372    1.638850
     21          1           0       -1.311118   -1.499500    2.204689
     22          1           0        0.105402   -2.683891    0.922011
     23          1           0        1.492708   -0.148558   -1.699230
     24          1           0        1.578994    1.824261   -0.632740
     25          1           0        0.342825    1.383740    0.498349
     26          1           0        2.495317    1.683890    1.653229
     27          1           0        1.986688   -0.004159    1.799310
     28          1           0        4.400290    0.159008    1.313492
     29          1           0        3.562322   -0.673196    0.000392
     30          1           0        3.832749    1.173457   -1.238766
     31          1           0       -1.211256    0.162135   -1.182103
     32          1           0       -4.113005    1.226320    0.543286
     33          1           0       -3.555080    2.821450    0.579769
 ---------------------------------------------------------------------

 SCF Done:  E(UB3LYP) =  -760.699622741     A.U. after   28 cycles

 The electronic state is 2-A.
 Alpha  occ. eigenvalues --  -19.04086 -18.99629 -18.98597 -14.24417 -14.24158
 Alpha  occ. eigenvalues --  -14.22583 -14.22542 -10.20698 -10.19658 -10.13230
 Alpha  occ. eigenvalues --  -10.12008 -10.11832 -10.11668 -10.08398 -10.06721
 Alpha  occ. eigenvalues --   -0.96187  -0.94968  -0.94065  -0.84654  -0.82980
 Alpha  occ. eigenvalues --   -0.81651  -0.79005  -0.68896  -0.67457  -0.61222
 Alpha  occ. eigenvalues --   -0.60088  -0.53881  -0.52211  -0.50572  -0.49588
 Alpha  occ. eigenvalues --   -0.44664  -0.43625  -0.41625  -0.40458  -0.40323
 Alpha  occ. eigenvalues --   -0.38873  -0.38478  -0.37346  -0.35501  -0.35000
 Alpha  occ. eigenvalues --   -0.34191  -0.32862  -0.32760  -0.32339  -0.30302
 Alpha  occ. eigenvalues --   -0.30202  -0.29427  -0.28521  -0.27271  -0.26683
 Alpha  occ. eigenvalues --   -0.26197  -0.24968  -0.19747  -0.19244  -0.18985
 Alpha  occ. eigenvalues --   -0.18591  -0.16654  -0.16410  -0.14894   0.03642
 Alpha virt. eigenvalues --    0.05381   0.06607   0.07495   0.08508   0.09139
 Alpha virt. eigenvalues --    0.09346   0.10241   0.10756   0.11115   0.11536
 Alpha virt. eigenvalues --    0.11949   0.12376   0.12642   0.12955   0.13590

  Beta  occ. eigenvalues --  -19.04056 -18.99624 -18.98591 -14.24397 -14.24140
  Beta  occ. eigenvalues --  -14.22534 -14.22520 -10.20699 -10.19653 -10.13222
  Beta  occ. eigenvalues --  -10.11986 -10.11821 -10.11636 -10.08392 -10.06686
  Beta  occ. eigenvalues --   -0.96177  -0.94951  -0.93997  -0.84626  -0.82947
  Beta  occ. eigenvalues --   -0.81606  -0.78923  -0.68868  -0.67405  -0.61170
  Beta  occ. eigenvalues --   -0.60036  -0.53836  -0.52163  -0.50507  -0.49533
  Beta  occ. eigenvalues --   -0.44572  -0.43576  -0.41586  -0.40416  -0.40291
  Beta  occ. eigenvalues --   -0.38822  -0.38442  -0.37295  -0.35459  -0.34971
  Beta  occ. eigenvalues --   -0.34160  -0.32838  -0.32737  -0.32311  -0.30277
  Beta  occ. eigenvalues --   -0.30163  -0.29396  -0.28480  -0.27243  -0.26643
  Beta  occ. eigenvalues --   -0.26154  -0.24941  -0.19717  -0.19228  -0.18963
  Beta  occ. eigenvalues --   -0.18549  -0.16629  -0.16389  -0.14874
  Beta virt. eigenvalues --    0.05913   0.06729   0.07376   0.07868   0.08915
  Beta virt. eigenvalues --    0.09208   0.10035   0.10501   0.10933   0.11530
  Beta virt. eigenvalues --    0.11877   0.12068   0.12397   0.12723   0.13144

 Mulliken charges and spin densities:
               1          2
     1  C    0.783904  -1.299023
     2  C   -0.973986   0.991122
     3  C    0.947061  -1.438703
     4  N   -0.191657  -0.020458
     5  C    0.155398  -0.294552
     6  O   -0.318085   0.029834
     7  N   -0.328023   0.029732
     8  C   -0.154137  -0.243717
     9  C   -0.309501   0.286966
    10  C    0.037402  -0.575263
    11  O   -0.241575  -0.012143
    12  N    0.123982  -0.150463
    13  C    0.645813  -0.778744
    14  O   -0.348887   0.014230
    15  N   -0.394212   0.068973
    16  H    0.066057   0.136304
    17  H   -0.187243   0.366662
    18  H   -0.145134   0.281030
    19  H   -0.456269   0.628932
    20  H    0.229453  -0.092074
    21  H   -1.058224   1.284755
    22  H    0.190915   0.151487
    23  H    0.168655   0.188320
    24  H    0.197379  -0.009702
    25  H   -0.023085   0.219068
    26  H    0.065447   0.101778
    27  H    0.148532   0.005151
    28  H    0.119562   0.056086
    29  H    0.149131   0.055404
    30  H    0.032248   0.218468
    31  H    0.396367  -0.073358
    32  H   -0.360228   0.626306
    33  H    0.032941   0.247596
 Sum of Mulliken charges =  -1.00000   1.00000

 Dipole moment (field-independent basis, Debye):
    X=              5.0918    Y=              0.8518    Z=             -0.8158  Tot=              5.2266
 Quadrupole moment (field-independent basis, Debye-Ang):
   XX=           -171.7883   YY=           -141.0908   ZZ=           -125.4383
   XY=             -2.4789   XZ=             13.8846   YZ=              5.1676

 Summary of Natural Population Analysis:

                                       Natural Population
                Natural  -----------------------------------------------
    Atom  No    Charge         Core      Valence    Rydberg      Total
 -----------------------------------------------------------------------
      C    1   -0.29016      0.99964     2.28360    0.00692     3.29016
      C    2   -0.02136      0.99959     2.00733    0.01444     3.02136
      C    3   -0.09274      0.99958     2.08061    0.01255     3.09274
      N    4   -0.33531      0.99968     2.82488    0.01076     3.83531
      C    5    0.40398      0.99969     1.57214    0.02419     2.59602
      O    6   -0.33698      0.99988     3.33184    0.00527     4.33698
      N    7   -0.34555      0.99968     2.83459    0.01127     3.84555
      C    8   -0.09444      0.99960     2.08355    0.01130     3.09444
      C    9   -0.21335      0.99962     2.20718    0.00655     3.21335
      C   10   -0.01499      0.99960     2.00307    0.01233     3.01499
      O   11   -0.37096      0.99990     3.36436    0.00670     4.37096
      N   12   -0.34475      0.99966     2.83407    0.01102     3.84475
      C   13    0.40322      0.99972     1.57357    0.02349     2.59678
      O   14   -0.34132      0.99987     3.33580    0.00565     4.34132
      N   15   -0.41797      0.99972     2.90981    0.00844     3.91797
      H   16    0.10168      0.00000     0.39718    0.00114     0.39832
      H   17    0.10606      0.00000     0.39281    0.00113     0.39394
      H   18    0.10299      0.00000     0.39564    0.00137     0.39701
      H   19    0.10652      0.00000     0.38842    0.00506     0.39348
      H   20    0.09769      0.00000     0.40066    0.00165     0.40231
      H   21    0.10739      0.00000     0.38991    0.00270     0.39261
      H   22    0.19686      0.00000     0.30094    0.00220     0.30314
      H   23    0.19397      0.00000     0.30366    0.00237     0.30603
      H   24    0.10311      0.00000     0.39579    0.00111     0.39689
      H   25    0.10346      0.00000     0.39422    0.00232     0.39654
      H   26    0.10134      0.00000     0.39756    0.00109     0.39866
      H   27    0.10541      0.00000     0.39333    0.00126     0.39459
      H   28    0.08433      0.00000     0.41446    0.00121     0.41567
      H   29    0.08407      0.00000     0.41457    0.00136     0.41593
      H   30    0.22810      0.00000     0.26853    0.00338     0.27190
      H   31    0.20167      0.00000     0.29530    0.00302     0.29833
      H   32    0.19477      0.00000     0.29953    0.00570     0.30523
      H   33    0.19325      0.00000     0.30507    0.00168     0.30675
 =======================================================================
   * Total *    0.00000     14.99542    43.79395    0.21063    59.00000

 Normal termination of Gaussian 16 at Thu Dec 10 18:39:47 2020.
