 Gaussian 16, Revision A.03,

 -----------------------------------------------------------
 # opt freq B3LYP/6-31G(d) empiricaldispersion=gd3bj scf=xqc
 -----------------------------------------------------------

 -------------------------------
 CID_137759834_JID_7397_neutraal
 -------------------------------
 Symbolic Z-matrix:
 Charge =  0 Multiplicity = 1

 SCF Done:  E(RB3LYP) =  -761.308417885     A.U. after   15 cycles
 SCF Done:  E(RB3LYP) =  -761.315042758     A.U. after   14 cycles
 SCF Done:  E(RB3LYP) =  -761.315936524     A.U. after   12 cycles
 SCF Done:  E(RB3LYP) =  -761.316765159     A.U. after   13 cycles
 SCF Done:  E(RB3LYP) =  -761.318684343     A.U. after   16 cycles
 SCF Done:  E(RB3LYP) =  -761.319659301     A.U. after   13 cycles
 SCF Done:  E(RB3LYP) =  -761.320219710     A.U. after   13 cycles
 SCF Done:  E(RB3LYP) =  -761.320311677     A.U. after   14 cycles
 SCF Done:  E(RB3LYP) =  -761.320574498     A.U. after   13 cycles
 SCF Done:  E(RB3LYP) =  -761.320611042     A.U. after   12 cycles
 SCF Done:  E(RB3LYP) =  -761.320614464     A.U. after    8 cycles
 SCF Done:  E(RB3LYP) =  -761.320614970     A.U. after   10 cycles
 SCF Done:  E(RB3LYP) =  -761.320615435     A.U. after    8 cycles
 SCF Done:  E(RB3LYP) =  -761.320615856     A.U. after    9 cycles
 SCF Done:  E(RB3LYP) =  -761.320615900     A.U. after    7 cycles
 Optimization completed.
    -- Stationary point found.
 Normal termination of Gaussian 16 at Sun Dec 13 16:09:01 2020.

 --------------------------------------------------------------------
 #N Geom=AllCheck Guess=TCheck SCRF=Check GenChk RB3LYP/6-31G(d) Freq
 --------------------------------------------------------------------

 Structure from the checkpoint file:  "JID_7397.chk"
 -------------------------------
 CID_137759834_JID_7397_neutraal
 -------------------------------
 Charge =  0 Multiplicity = 1

 SCF Done:  E(RB3LYP) =  -761.320615900     A.U. after    1 cycles

  Exact polarizability: 217.220  10.364 133.429   1.638   8.366  90.282
 Approx polarizability: 302.765  16.484 224.316  -4.493  18.577 154.071

                      1                      2                      3
                      A                      A                      A
 Frequencies --     27.1180                41.1483                59.9318
 Red. masses --      3.5324                 5.2620                 6.6631
 Frc consts  --      0.0015                 0.0052                 0.0141
 IR Inten    --      0.1341                 1.1204                 1.4390

                      4                      5                      6
                      A                      A                      A
 Frequencies --     70.9729               124.8656               148.2960
 Red. masses --      7.8415                11.3541                 7.0663
 Frc consts  --      0.0233                 0.1043                 0.0916
 IR Inten    --      1.0932                 7.4414                 0.2679

                      7                      8                      9
                      A                      A                      A
 Frequencies --    168.4954               191.4830               227.7706
 Red. masses --      7.2630                 3.2409                 3.8748
 Frc consts  --      0.1215                 0.0700                 0.1184
 IR Inten    --      3.2006                 4.6114                 4.6734

                     10                     11                     12
                      A                      A                      A
 Frequencies --    239.9976               259.8690               298.0179
 Red. masses --      2.3024                 2.0018                 3.7054
 Frc consts  --      0.0781                 0.0796                 0.1939
 IR Inten    --      4.3674                 3.1669                 3.2949

                     13                     14                     15
                      A                      A                      A
 Frequencies --    345.8557               397.0695               424.9835
 Red. masses --      5.0667                 5.0240                 5.3359
 Frc consts  --      0.3571                 0.4667                 0.5678
 IR Inten    --      0.5359                 0.3850                 0.7360

                     16                     17                     18
                      A                      A                      A
 Frequencies --    433.8203               453.3239               475.0225
 Red. masses --      3.0445                 4.1644                 3.8649
 Frc consts  --      0.3376                 0.5042                 0.5138
 IR Inten    --      1.7498                 2.8731                 0.8209

                     19                     20                     21
                      A                      A                      A
 Frequencies --    521.8996               558.5689               587.3081
 Red. masses --      8.9058                 3.9501                 5.1636
 Frc consts  --      1.4292                 0.7261                 1.0494
 IR Inten    --      0.7160                 4.8902                 3.8648

                     22                     23                     24
                      A                      A                      A
 Frequencies --    591.1299               618.6351               637.0107
 Red. masses --      9.7604                 7.4393                11.9821
 Frc consts  --      2.0095                 1.6775                 2.8647
 IR Inten    --      0.2473                21.8973                 4.1298

                     25                     26                     27
                      A                      A                      A
 Frequencies --    649.9814               676.3864               733.4961
 Red. masses --      4.4407                 5.2695                 4.6786
 Frc consts  --      1.1054                 1.4204                 1.4831
 IR Inten    --     14.3646                 7.0486                 5.7948

                     28                     29                     30
                      A                      A                      A
 Frequencies --    788.7115               820.4882               834.5904
 Red. masses --      4.6017                 4.5986                 1.5054
 Frc consts  --      1.6866                 1.8240                 0.6178
 IR Inten    --      3.2680                 6.3475                29.4170

                     31                     32                     33
                      A                      A                      A
 Frequencies --    867.6148               883.2606               906.7755
 Red. masses --      3.8581                 8.7542                 2.7227
 Frc consts  --      1.7111                 4.0239                 1.3190
 IR Inten    --     32.4830                35.3126                 8.1696

                     34                     35                     36
                      A                      A                      A
 Frequencies --    911.1210               930.1627               941.3674
 Red. masses --      1.9391                 2.5215                 1.3031
 Frc consts  --      0.9484                 1.2854                 0.6804
 IR Inten    --      1.4896                28.8939                 0.1291

                     37                     38                     39
                      A                      A                      A
 Frequencies --    948.1893               978.4535              1068.1684
 Red. masses --      1.3793                 3.2212                 2.1409
 Frc consts  --      0.7306                 1.8170                 1.4392
 IR Inten    --      0.8259                13.6351                60.8602

                     40                     41                     42
                      A                      A                      A
 Frequencies --   1083.7427              1115.9935              1138.0240
 Red. masses --      1.6992                 1.8638                 2.1002
 Frc consts  --      1.1759                 1.3676                 1.6026
 IR Inten    --     27.1879                33.7850                 9.8582

                     43                     44                     45
                      A                      A                      A
 Frequencies --   1163.0295              1165.5189              1217.0004
 Red. masses --      1.8154                 1.5661                 3.0855
 Frc consts  --      1.4468                 1.2534                 2.6925
 IR Inten    --      4.8341                21.5847                19.6005

                     46                     47                     48
                      A                      A                      A
 Frequencies --   1226.4006              1247.4425              1278.7594
 Red. masses --      1.4567                 2.4522                 1.4753
 Frc consts  --      1.2909                 2.2482                 1.4213
 IR Inten    --      2.7239                 8.0293                45.1891

                     49                     50                     51
                      A                      A                      A
 Frequencies --   1291.4141              1307.2466              1323.4749
 Red. masses --      3.0453                 2.2510                 1.4047
 Frc consts  --      2.9924                 2.2664                 1.4496
 IR Inten    --     70.8801               169.3483                43.3528

                     52                     53                     54
                      A                      A                      A
 Frequencies --   1361.5703              1390.3907              1404.2893
 Red. masses --      4.0073                 1.6532                 1.4338
 Frc consts  --      4.3770                 1.8830                 1.6659
 IR Inten    --     14.6494                 5.9532                25.2728

                     55                     56                     57
                      A                      A                      A
 Frequencies --   1441.7562              1447.7806              1496.9838
 Red. masses --      1.5025                 1.9230                 3.6691
 Frc consts  --      1.8401                 2.3748                 4.8444
 IR Inten    --     66.2045                59.9230                 4.8528

                     58                     59                     60
                      A                      A                      A
 Frequencies --   1515.4975              1515.8139              1527.6472
 Red. masses --      1.1018                 1.0579                 1.0657
 Frc consts  --      1.4909                 1.4321                 1.4654
 IR Inten    --      3.2709                 2.7176                 3.6887

                     61                     62                     63
                      A                      A                      A
 Frequencies --   1546.7169              1652.5853              1674.4355
 Red. masses --      2.9783                 6.9583                 6.5762
 Frc consts  --      4.1980                11.1965                10.8633
 IR Inten    --    116.5025                 8.8508                88.8325

                     64                     65                     66
                      A                      A                      A
 Frequencies --   2369.9839              2374.2820              3045.9906
 Red. masses --     12.6943                12.6756                 1.0689
 Frc consts  --     42.0097                42.1003                 5.8432
 IR Inten    --     11.2974                 2.3542                14.1232

                     67                     68                     69
                      A                      A                      A
 Frequencies --   3054.7807              3059.4600              3104.2926
 Red. masses --      1.0840                 1.0363                 1.0977
 Frc consts  --      5.9600                 5.7150                 6.2322
 IR Inten    --     36.2561                18.5858                17.5368

                     70                     71                     72
                      A                      A                      A
 Frequencies --   3130.4588              3140.7574              3143.4582
 Red. masses --      1.1024                 1.1034                 1.0891
 Frc consts  --      6.3654                 6.4127                 6.3408
 IR Inten    --     25.1499                22.5683                10.1730

                     73                     74                     75
                      A                      A                      A
 Frequencies --   3187.8489              3219.4495              3229.6703
 Red. masses --      1.0894                 1.0910                 1.0934
 Frc consts  --      6.5230                 6.6624                 6.7198
 IR Inten    --     10.0889                 1.6799                 5.2776

 - Thermochemistry -
 -------------------
 Temperature   298.150 Kelvin.  Pressure   1.00000 Atm.
 Atom     1 has atomic number  6 and mass  12.00000

 Molecular mass:   226.07423 amu.
 Principal axes and moments of inertia in atomic units:
                           1         2         3
     Eigenvalues --  1461.754217562.623038274.81051
           X            0.99985   0.01718  -0.00168
           Y           -0.01713   0.99944   0.02889
           Z            0.00218  -0.02885   0.99958
 This molecule is an asymmetric top.
 Rotational symmetry number  1.
 Warning -- assumption of classical behavior for rotation
           may cause significant error
 Rotational temperatures (Kelvin)      0.05925     0.01145     0.01047
 Rotational constants (GHZ):           1.23464     0.23864     0.21810
 Zero-point vibrational energy     534941.9 (Joules/Mol)
                                  127.85419 (Kcal/Mol)
 Warning -- explicit consideration of  23 degrees of freedom as
           vibrations may cause significant error
 Vibrational temperatures:     39.02    59.20    86.23   102.11   179.65
          (Kelvin)            213.36   242.43   275.50   327.71   345.30
                              373.89   428.78   497.61   571.29   611.46
                              624.17   652.23   683.45   750.90   803.66
                              845.01   850.50   890.08   916.52   935.18
                              973.17  1055.34  1134.78  1180.50  1200.79
                             1248.30  1270.82  1304.65  1310.90  1338.30
                             1354.42  1364.23  1407.78  1536.86  1559.26
                             1605.67  1637.36  1673.34  1676.92  1750.99
                             1764.52  1794.79  1839.85  1858.06  1880.84
                             1904.19  1959.00  2000.46  2020.46  2074.37
                             2083.03  2153.83  2180.46  2180.92  2197.94
                             2225.38  2377.70  2409.14  3409.88  3416.06
                             4382.50  4395.15  4401.88  4466.38  4504.03
                             4518.85  4522.74  4586.60  4632.07  4646.78

 Zero-point correction=                           0.203749 (Hartree/Particle)
 Thermal correction to Energy=                    0.218395
 Thermal correction to Enthalpy=                  0.219339
 Thermal correction to Gibbs Free Energy=         0.160609
 Sum of electronic and zero-point Energies=           -761.116867
 Sum of electronic and thermal Energies=              -761.102221
 Sum of electronic and thermal Enthalpies=            -761.101277
 Sum of electronic and thermal Free Energies=         -761.160007

                     E (Thermal)             CV                S
                      KCal/Mol        Cal/Mol-Kelvin    Cal/Mol-Kelvin
 Total                  137.045             55.270            123.609
 Electronic               0.000              0.000              0.000
 Translational            0.889              2.981             42.149
 Rotational               0.889              2.981             32.881
 Vibrational            135.267             49.309             48.578
 Vibration     1          0.593              1.984              6.030
 Vibration     2          0.594              1.981              5.203
 Vibration     3          0.597              1.973              4.459
 Vibration     4          0.598              1.968              4.126
 Vibration     5          0.610              1.928              3.024
 Vibration     6          0.618              1.905              2.694
 Vibration     7          0.625              1.881              2.452
 Vibration     8          0.634              1.852              2.213
 Vibration     9          0.651              1.799              1.896
 Vibration    10          0.657              1.779              1.803
 Vibration    11          0.668              1.746              1.663
 Vibration    12          0.691              1.677              1.428
 Vibration    13          0.724              1.584              1.185
 Vibration    14          0.764              1.476              0.973
 Vibration    15          0.787              1.416              0.875
 Vibration    16          0.795              1.397              0.846
 Vibration    17          0.812              1.354              0.786
 Vibration    18          0.832              1.305              0.724
 Vibration    19          0.877              1.202              0.606
 Vibration    20          0.914              1.121              0.527
 Vibration    21          0.944              1.059              0.472
 Vibration    22          0.949              1.051              0.465
 Vibration    23          0.979              0.993              0.419

 Optimization completed.
    -- Stationary point found.
 Normal termination of Gaussian 16 at Sun Dec 13 16:17:49 2020.

 ----------------------------------------------------------------------
 # B3LYP/6-311++G(d,p) empiricaldispersion=gd3bj scf=xqc pop=npa geom=c
 heck
 ----------------------------------------------------------------------

 ---------------------------------------
 CID_137759834_JID_7397_Energie_neutraal
 ---------------------------------------
 Structure from the checkpoint file:  "JID_7397.chk"
 Charge =  0 Multiplicity = 1

 SCF Done:  E(RB3LYP) =  -761.521127292     A.U. after   16 cycles
 Normal termination of Gaussian 16 at Sun Dec 13 16:21:48 2020.

 ----------------------------------------------------------------------
 # B3LYP/6-311++G(d,p) empiricaldispersion=gd3bj scf=xqc pop=npa geom=c
 heck
 ----------------------------------------------------------------------

 -------------------------------------
 CID_137759834_JID_7397_Energie_kation
 -------------------------------------
 Structure from the checkpoint file:  "JID_7397.chk"
 Charge =  1 Multiplicity = 2

 SCF Done:  E(UB3LYP) =  -761.217763387     A.U. after   23 cycles
 Normal termination of Gaussian 16 at Sun Dec 13 16:30:06 2020.
 Gaussian 16:  ES64L-G16RevA.03 25-Dec-2016

 ----------------------------------------------------------------------
 # B3LYP/6-311++G(d,p) empiricaldispersion=gd3bj scf=xqc pop=npa geom=c
 heck
 ----------------------------------------------------------------------

 ------------------------------------
 CID_137759834_JID_7397_Energie_anion
 ------------------------------------
 Structure from the checkpoint file:  "JID_7397.chk"
 Charge = -1 Multiplicity = 2

                         Standard orientation:
 ---------------------------------------------------------------------
 Center     Atomic      Atomic             Coordinates (Angstroms)
 Number     Number       Type             X           Y           Z
 ---------------------------------------------------------------------
      1          6           0       -4.883757   -1.075807    0.554846
      2          6           0       -3.895683   -0.341716   -0.329321
      3          6           0       -2.636718   -1.155782   -0.729516
      4          6           0       -1.522444   -0.175463   -0.460556
      5          6           0       -2.068571    0.924656    0.212287
      6          8           0       -3.408098    0.835089    0.396141
      7          6           0       -1.286141    1.994428    0.636915
      8          6           0        0.081875    1.934711    0.370967
      9          6           0        0.648601    0.838774   -0.294011
     10          6           0       -0.165027   -0.228171   -0.716980
     11          6           0        2.109715    0.824853   -0.515544
     12          6           0        3.004544   -0.313851   -0.064978
     13          8           0        2.666255   -0.107400   -1.441293
     14          6           0        4.380678   -0.030409    0.298353
     15          7           0        5.470797    0.233020    0.596898
     16          6           0        2.423583   -1.477897    0.575619
     17          7           0        1.947150   -2.400387    1.093328
     18          1           0       -5.705145   -0.416768    0.851291
     19          1           0       -4.385696   -1.441161    1.459069
     20          1           0       -5.303540   -1.933502    0.017722
     21          1           0       -4.396952    0.046078   -1.224335
     22          1           0       -2.683565   -1.485590   -1.771981
     23          1           0       -2.531071   -2.053186   -0.105740
     24          1           0       -1.731223    2.840927    1.147458
     25          1           0        0.719933    2.757170    0.684293
     26          1           0        0.274559   -1.068759   -1.243183
     27          1           0        2.607881    1.794884   -0.513450
 ---------------------------------------------------------------------

 SCF Done:  E(UB3LYP) =  -761.529925661     A.U. after   33 cycles
 SCF Done:  E(UB3LYP) =  -761.529925468     a.u. after    2 cycles

 The electronic state is 2-A.
 Alpha  occ. eigenvalues --  -19.04331 -19.01948 -14.17639 -14.17589 -10.15533
 Alpha  occ. eigenvalues --  -10.14519 -10.11357 -10.10456 -10.08923 -10.08624
 Alpha  occ. eigenvalues --  -10.07645 -10.07621 -10.06335 -10.06313 -10.05785
 Alpha  occ. eigenvalues --  -10.05356 -10.04838  -0.97417  -0.96740  -0.77856
 Alpha  occ. eigenvalues --   -0.77268  -0.74244  -0.70868  -0.66525  -0.63685
 Alpha  occ. eigenvalues --   -0.62528  -0.59522  -0.55088  -0.50343  -0.49772
 Alpha  occ. eigenvalues --   -0.47971  -0.45629  -0.41308  -0.40328  -0.39792
 Alpha  occ. eigenvalues --   -0.37547  -0.35329  -0.33420  -0.32910  -0.31659
 Alpha  occ. eigenvalues --   -0.31533  -0.30132  -0.29988  -0.28104  -0.27776
 Alpha  occ. eigenvalues --   -0.26593  -0.26135  -0.25258  -0.24541  -0.23875
 Alpha  occ. eigenvalues --   -0.22471  -0.22014  -0.21877  -0.21393  -0.20222
 Alpha  occ. eigenvalues --   -0.17651  -0.17137  -0.14115  -0.10364   0.04805
 Alpha virt. eigenvalues --    0.06029   0.08122   0.08516   0.09073   0.09461
 Alpha virt. eigenvalues --    0.10349   0.10445   0.10813   0.11649   0.12595
 Alpha virt. eigenvalues --    0.12682   0.13131   0.13359   0.13672   0.14946

  Beta  occ. eigenvalues --  -19.04266 -19.01595 -14.17382 -14.17293 -10.15450
  Beta  occ. eigenvalues --  -10.14519 -10.11140 -10.10250 -10.08923 -10.08619
  Beta  occ. eigenvalues --  -10.07615 -10.07583 -10.06407 -10.06290 -10.05794
  Beta  occ. eigenvalues --  -10.05276 -10.04627  -0.96862  -0.96592  -0.77421
  Beta  occ. eigenvalues --   -0.76858  -0.74044  -0.70845  -0.66387  -0.63386
  Beta  occ. eigenvalues --   -0.61754  -0.59349  -0.54631  -0.50206  -0.49656
  Beta  occ. eigenvalues --   -0.47661  -0.45349  -0.41232  -0.40016  -0.39564
  Beta  occ. eigenvalues --   -0.37437  -0.34873  -0.33168  -0.32831  -0.31519
  Beta  occ. eigenvalues --   -0.31253  -0.29931  -0.29799  -0.27732  -0.27421
  Beta  occ. eigenvalues --   -0.26143  -0.25835  -0.25090  -0.24054  -0.23470
  Beta  occ. eigenvalues --   -0.22261  -0.21506  -0.21123  -0.20599  -0.20001
  Beta  occ. eigenvalues --   -0.16872  -0.16436  -0.13549  -0.09666
  Beta virt. eigenvalues --    0.05965   0.08082   0.08436   0.09023   0.09742
  Beta virt. eigenvalues --    0.10043   0.10299   0.10818   0.11258   0.11653
  Beta virt. eigenvalues --    0.12652   0.12999   0.13132   0.13337   0.14026

 Mulliken charges and spin densities:
               1          2
     1  C   -0.529241  -0.020594
     2  C    0.549446   0.015600
     3  C   -1.207654  -0.062556
     4  C    1.371914   0.018477
     5  C   -1.312524   0.101164
     6  O   -0.078690   0.015608
     7  C   -0.558029   0.020513
     8  C   -0.670328   0.060444
     9  C    1.908194  -0.063055
    10  C   -0.347255   0.167694
    11  C   -1.278278   0.186679
    12  C    1.781958   0.281007
    13  O   -0.052524   0.045284
    14  C   -0.537596  -0.145811
    15  N   -0.318660   0.152581
    16  C   -0.881977  -0.015592
    17  N   -0.278544   0.128898
    18  H    0.132118   0.009088
    19  H    0.169041   0.002502
    20  H    0.120996   0.000210
    21  H    0.147479   0.024212
    22  H    0.105257   0.039940
    23  H    0.176149  -0.004703
    24  H    0.138903   0.007268
    25  H    0.112288   0.002075
    26  H    0.132514   0.029533
    27  H    0.205043   0.003536
 Sum of Mulliken charges =  -1.00000   1.00000

 Dipole moment (field-independent basis, Debye):
    X=            -11.1631    Y=              1.7186    Z=             -1.6492  Tot=             11.4144
 Quadrupole moment (field-independent basis, Debye-Ang):
   XX=           -172.6943   YY=           -114.8618   ZZ=           -112.7481
   XY=             12.0211   XZ=             -2.7731   YZ=              5.2376

 Summary of Natural Population Analysis:

                                       Natural Population
                Natural  -----------------------------------------------
    Atom  No    Charge         Core      Valence    Rydberg      Total
 -----------------------------------------------------------------------
      C    1   -0.29191      0.99964     2.28734    0.00492     3.29191
      C    2    0.06854      0.99958     1.91952    0.01236     2.93146
      C    3   -0.20294      0.99960     2.19593    0.00741     3.20294
      C    4   -0.06293      0.99948     2.05370    0.00975     3.06293
      C    5    0.19101      0.99935     1.79704    0.01259     2.80899
      O    6   -0.27852      0.99986     3.26987    0.00879     4.27852
      C    7   -0.13940      0.99953     2.13131    0.00856     3.13940
      C    8   -0.07793      0.99955     2.07125    0.00713     3.07793
      C    9   -0.04818      0.99951     2.03791    0.01076     3.04818
      C   10   -0.04017      0.99949     2.03124    0.00945     3.04017
      C   11    0.10631      0.99950     1.87942    0.01477     2.89369
      C   12    0.02524      0.99935     1.96047    0.01494     2.97476
      O   13   -0.23272      0.99992     3.22540    0.00740     4.23272
      C   14    0.14985      0.99963     1.83320    0.01731     2.85015
      N   15   -0.14654      0.99979     2.63557    0.01118     3.64654
      C   16    0.15101      0.99963     1.83207    0.01729     2.84899
      N   17   -0.14561      0.99979     2.63494    0.01089     3.64561
      H   18    0.10099      0.00000     0.39805    0.00096     0.39901
      H   19    0.10258      0.00000     0.39651    0.00091     0.39742
      H   20    0.09737      0.00000     0.40182    0.00081     0.40263
      H   21    0.08098      0.00000     0.41763    0.00140     0.41902
      H   22    0.10347      0.00000     0.39493    0.00159     0.39653
      H   23    0.10127      0.00000     0.39754    0.00119     0.39873
      H   24    0.09923      0.00000     0.39930    0.00147     0.40077
      H   25    0.09533      0.00000     0.40377    0.00090     0.40467
      H   26    0.10665      0.00000     0.39187    0.00147     0.39335
      H   27    0.08701      0.00000     0.41170    0.00128     0.41299
 =======================================================================
   * Total *   -0.00000     16.99320    41.80931    0.19749    59.00000

 Normal termination of Gaussian 16 at Sun Dec 13 16:54:41 2020.
