 Gaussian 16, Revision A.03,

 -----------------------------------------------------------
 # opt freq B3LYP/6-31G(d) empiricaldispersion=gd3bj scf=xqc
 -----------------------------------------------------------

 ------------------------------
 CID_83963478_JID_6304_neutraal
 ------------------------------
 Symbolic Z-matrix:
 Charge =  0 Multiplicity = 1

 SCF Done:  E(RB3LYP) =  -687.157179546     A.U. after   14 cycles
 SCF Done:  E(RB3LYP) =  -687.162559218     A.U. after   12 cycles
 SCF Done:  E(RB3LYP) =  -687.163813058     A.U. after   12 cycles
 SCF Done:  E(RB3LYP) =  -687.164000477     A.U. after   12 cycles
 SCF Done:  E(RB3LYP) =  -687.164124470     A.U. after   11 cycles
 SCF Done:  E(RB3LYP) =  -687.164174017     A.U. after   10 cycles
 SCF Done:  E(RB3LYP) =  -687.164270100     A.U. after   12 cycles
 SCF Done:  E(RB3LYP) =  -687.164332281     A.U. after   12 cycles
 SCF Done:  E(RB3LYP) =  -687.164386949     A.U. after   11 cycles
 SCF Done:  E(RB3LYP) =  -687.164581225     A.U. after   13 cycles
 SCF Done:  E(RB3LYP) =  -687.166404379     A.U. after   10 cycles
 SCF Done:  E(RB3LYP) =  -687.166405716     A.U. after    8 cycles
 SCF Done:  E(RB3LYP) =  -687.166405966     A.U. after    8 cycles
 SCF Done:  E(RB3LYP) =  -687.166406033     A.U. after    7 cycles
 SCF Done:  E(RB3LYP) =  -687.166406057     A.U. after    6 cycles
 Optimization completed.
    -- Stationary point found.
 Normal termination of Gaussian 16 at Thu Dec 10 22:15:40 2020.

 --------------------------------------------------------------------
 #N Geom=AllCheck Guess=TCheck SCRF=Check GenChk RB3LYP/6-31G(d) Freq
 --------------------------------------------------------------------

 Structure from the checkpoint file:  "JID_6304.chk"
 ------------------------------
 CID_83963478_JID_6304_neutraal
 ------------------------------
 Charge =  0 Multiplicity = 1

 SCF Done:  E(RB3LYP) =  -687.166406057     A.U. after    1 cycles

  Exact polarizability: 226.581   8.060 141.322   2.678 -16.480  97.236
 Approx polarizability: 311.306  24.993 242.582   4.370 -41.954 150.144

                      1                      2                      3
                      A                      A                      A
 Frequencies --     25.3643                30.6673                71.1050
 Red. masses --      4.0857                 3.6985                 3.1832
 Frc consts  --      0.0015                 0.0020                 0.0095
 IR Inten    --      0.6429                 0.1792                 0.6685

                      4                      5                      6
                      A                      A                      A
 Frequencies --     88.4422               125.7465               165.4771
 Red. masses --      3.9328                 4.4305                 4.7307
 Frc consts  --      0.0181                 0.0413                 0.0763
 IR Inten    --      0.9446                 0.7894                 1.1697

                      7                      8                      9
                      A                      A                      A
 Frequencies --    190.0136               231.8629               237.1260
 Red. masses --      3.7294                 1.1867                 3.4492
 Frc consts  --      0.0793                 0.0376                 0.1143
 IR Inten    --      1.4233                 0.1345                 0.3241

                     10                     11                     12
                      A                      A                      A
 Frequencies --    244.4926               261.1112               291.4160
 Red. masses --      1.3123                 1.0774                 2.1185
 Frc consts  --      0.0462                 0.0433                 0.1060
 IR Inten    --      1.7784                34.0910                 2.0665

                     13                     14                     15
                      A                      A                      A
 Frequencies --    306.3788               324.4426               370.3683
 Red. masses --      2.8952                 3.4283                 1.9049
 Frc consts  --      0.1601                 0.2126                 0.1540
 IR Inten    --     19.5046                 9.7179                16.1996

                     16                     17                     18
                      A                      A                      A
 Frequencies --    380.1115               390.8970               422.7931
 Red. masses --      2.3856                 1.8271                 2.2315
 Frc consts  --      0.2031                 0.1645                 0.2350
 IR Inten    --     16.8434                36.0238                 3.7505

                     19                     20                     21
                      A                      A                      A
 Frequencies --    440.6625               443.9800               474.0334
 Red. masses --      2.7546                 3.4136                 3.3028
 Frc consts  --      0.3152                 0.3964                 0.4373
 IR Inten    --     10.7212                10.0965                 9.9306

                     22                     23                     24
                      A                      A                      A
 Frequencies --    497.0360               583.5247               632.7000
 Red. masses --      2.7212                 2.5671                 2.9702
 Frc consts  --      0.3961                 0.5150                 0.7005
 IR Inten    --     79.0464                64.6133                 1.2732

                     25                     26                     27
                      A                      A                      A
 Frequencies --    651.5301               664.0396               690.4257
 Red. masses --      2.7058                 3.6447                 4.3374
 Frc consts  --      0.6767                 0.9469                 1.2182
 IR Inten    --      9.9963                29.9801                10.2375

                     28                     29                     30
                      A                      A                      A
 Frequencies --    752.4491               797.3950               797.5707
 Red. masses --      2.5874                 5.5561                 2.3306
 Frc consts  --      0.8631                 2.0814                 0.8735
 IR Inten    --      0.8185                 8.5122                 3.0663

                     31                     32                     33
                      A                      A                      A
 Frequencies --    803.3709               815.3962               846.6564
 Red. masses --      1.4785                 1.9082                 3.7969
 Frc consts  --      0.5622                 0.7475                 1.6036
 IR Inten    --      5.2148                36.4004                13.2142

                     34                     35                     36
                      A                      A                      A
 Frequencies --    860.3731               894.4008               931.4911
 Red. masses --      1.3821                 2.7046                 1.8621
 Frc consts  --      0.6028                 1.2747                 0.9519
 IR Inten    --     23.9492                58.0054                96.5274

                     37                     38                     39
                      A                      A                      A
 Frequencies --    940.4798               943.9957               956.4404
 Red. masses --      1.2838                 1.2083                 3.8370
 Frc consts  --      0.6690                 0.6344                 2.0680
 IR Inten    --      1.8352                 5.3457                61.8119

                     40                     41                     42
                      A                      A                      A
 Frequencies --    962.0555               973.9336               979.8712
 Red. masses --      1.9458                 1.8362                 1.4538
 Frc consts  --      1.0611                 1.0262                 0.8224
 IR Inten    --     17.1437                24.5915                 0.1016

                     43                     44                     45
                      A                      A                      A
 Frequencies --   1037.7446              1085.5453              1099.3600
 Red. masses --      1.8797                 1.2974                 4.2802
 Frc consts  --      1.1927                 0.9007                 3.0479
 IR Inten    --     46.2651                 1.2353                22.5299

                     46                     47                     48
                      A                      A                      A
 Frequencies --   1112.9571              1142.6461              1168.5792
 Red. masses --      2.8929                 1.9588                 1.6215
 Frc consts  --      2.1113                 1.5068                 1.3046
 IR Inten    --     11.6787                81.9671                 0.8995

                     49                     50                     51
                      A                      A                      A
 Frequencies --   1180.0593              1207.5333              1232.6251
 Red. masses --      1.8508                 1.7025                 1.7029
 Frc consts  --      1.5185                 1.4626                 1.5244
 IR Inten    --     26.4736                 1.9221                17.9442

                     52                     53                     54
                      A                      A                      A
 Frequencies --   1242.9308              1259.4639              1281.3672
 Red. masses --      1.6402                 1.7633                 1.7150
 Frc consts  --      1.4929                 1.6480                 1.6590
 IR Inten    --     22.5025                 2.1044                30.7236

                     55                     56                     57
                      A                      A                      A
 Frequencies --   1284.4110              1324.7287              1350.0327
 Red. masses --      1.3211                 1.5622                 2.6105
 Frc consts  --      1.2841                 1.6152                 2.8032
 IR Inten    --     13.1177                10.6036                30.4139

                     58                     59                     60
                      A                      A                      A
 Frequencies --   1351.5336              1368.0267              1385.8915
 Red. masses --      2.3335                 1.3998                 2.2081
 Frc consts  --      2.5114                 1.5435                 2.4988
 IR Inten    --     64.5426                 1.5477                63.3827

                     61                     62                     63
                      A                      A                      A
 Frequencies --   1396.6371              1402.9206              1416.6861
 Red. masses --      1.7765                 1.8757                 1.6570
 Frc consts  --      2.0416                 2.1751                 1.9594
 IR Inten    --      0.5990                 3.2945                49.2277

                     64                     65                     66
                      A                      A                      A
 Frequencies --   1423.6294              1432.6443              1451.0962
 Red. masses --      1.3055                 1.4032                 1.2570
 Frc consts  --      1.5589                 1.6969                 1.5595
 IR Inten    --      1.1029                 0.7424                10.0490

                     67                     68                     69
                      A                      A                      A
 Frequencies --   1473.1117              1513.7952              1519.8310
 Red. masses --      3.2705                 1.7337                 1.0517
 Frc consts  --      4.1815                 2.3408                 1.4313
 IR Inten    --      2.5153                21.9965                 3.5838

                     70                     71                     72
                      A                      A                      A
 Frequencies --   1522.6211              1534.6435              1542.4918
 Red. masses --      1.1007                 1.0593                 1.0872
 Frc consts  --      1.5035                 1.4699                 1.5240
 IR Inten    --     15.4628                 8.8524                28.3086

                     73                     74                     75
                      A                      A                      A
 Frequencies --   1551.5640              1557.5977              1582.8121
 Red. masses --      1.7206                 1.3371                 2.8796
 Frc consts  --      2.4404                 1.9113                 4.2505
 IR Inten    --     60.2479                 0.3575               105.7947

                     76                     77                     78
                      A                      A                      A
 Frequencies --   1637.5264              1695.1295              1703.7393
 Red. masses --      4.6868                 6.0015                 1.1087
 Frc consts  --      7.4047                10.1605                 1.8961
 IR Inten    --      8.4601               240.2358                35.9922

                     79                     80                     81
                      A                      A                      A
 Frequencies --   2987.1897              2993.7499              3039.2495
 Red. masses --      1.0817                 1.0704                 1.0693
 Frc consts  --      5.6872                 5.6523                 5.8194
 IR Inten    --     27.8698                53.3268                12.5376

                     82                     83                     84
                      A                      A                      A
 Frequencies --   3041.3017              3047.7384              3072.5399
 Red. masses --      1.0460                 1.0474                 1.0910
 Frc consts  --      5.7002                 5.7321                 6.0686
 IR Inten    --     35.6580                71.4404                33.5909

                     85                     86                     87
                      A                      A                      A
 Frequencies --   3101.6280              3109.5983              3117.4652
 Red. masses --      1.0999                 1.1000                 1.1021
 Frc consts  --      6.2341                 6.2666                 6.3109
 IR Inten    --     15.5396                53.7057                47.1222

                     88                     89                     90
                      A                      A                      A
 Frequencies --   3155.3419              3182.1681              3195.3868
 Red. masses --      1.0988                 1.0903                 1.0893
 Frc consts  --      6.4456                 6.5051                 6.5530
 IR Inten    --     11.3857                16.2347                10.4319

                     91                     92                     93
                      A                      A                      A
 Frequencies --   3230.7784              3255.9632              3452.7336
 Red. masses --      1.0912                 1.0957                 1.0500
 Frc consts  --      6.7106                 6.8437                 7.3747
 IR Inten    --     14.5970                12.6121                 1.0133

                     94                     95                     96
                      A                      A                      A
 Frequencies --   3536.2726              3576.8522              3680.9240
 Red. masses --      1.0912                 1.0744                 1.0807
 Frc consts  --      8.0400                 8.0984                 8.6272
 IR Inten    --      1.5929                13.0422                65.8101

 - Thermochemistry -
 -------------------
 Temperature   298.150 Kelvin.  Pressure   1.00000 Atm.
 Atom     1 has atomic number  6 and mass  12.00000

 Molecular mass:   218.15315 amu.
 Principal axes and moments of inertia in atomic units:
                           1         2         3
     Eigenvalues --  1210.529428804.358809222.34322
           X            0.99996  -0.00838  -0.00215
           Y            0.00837   0.99996  -0.00224
           Z            0.00217   0.00223   1.00000
 This molecule is an asymmetric top.
 Rotational symmetry number  1.
 Warning -- assumption of classical behavior for rotation
           may cause significant error
 Rotational temperatures (Kelvin)      0.07155     0.00984     0.00939
 Rotational constants (GHZ):           1.49087     0.20498     0.19569
 Zero-point vibrational energy     776032.0 (Joules/Mol)
                                  185.47610 (Kcal/Mol)
 Warning -- explicit consideration of  23 degrees of freedom as
           vibrations may cause significant error
 Vibrational temperatures:     36.49    44.12   102.30   127.25   180.92
          (Kelvin)            238.08   273.39   333.60   341.17   351.77
                              375.68   419.28   440.81   466.80   532.88
                              546.90   562.41   608.30   634.02   638.79
                              682.03   715.12   839.56   910.31   937.41
                              955.40   993.37  1082.61  1147.27  1147.53
                             1155.87  1173.17  1218.15  1237.88  1286.84
                             1340.21  1353.14  1358.20  1376.10  1384.18
                             1401.27  1409.82  1493.08  1561.86  1581.73
                             1601.30  1644.01  1681.32  1697.84  1737.37
                             1773.47  1788.30  1812.09  1843.60  1847.98
                             1905.99  1942.40  1944.56  1968.29  1993.99
                             2009.45  2018.49  2038.30  2048.29  2061.26
                             2087.80  2119.48  2178.01  2186.70  2190.71
                             2208.01  2219.30  2232.35  2241.04  2277.31
                             2356.04  2438.91  2451.30  4297.90  4307.34
                             4372.80  4375.75  4385.02  4420.70  4462.55
                             4474.02  4485.34  4539.83  4578.43  4597.45
                             4648.37  4684.60  4967.71  5087.91  5146.29
                             5296.03

 Zero-point correction=                           0.295575 (Hartree/Particle)
 Thermal correction to Energy=                    0.311065
 Thermal correction to Enthalpy=                  0.312009
 Thermal correction to Gibbs Free Energy=         0.252172
 Sum of electronic and zero-point Energies=           -686.870831
 Sum of electronic and thermal Energies=              -686.855342
 Sum of electronic and thermal Enthalpies=            -686.854397
 Sum of electronic and thermal Free Energies=         -686.914234

                     E (Thermal)             CV                S
                      KCal/Mol        Cal/Mol-Kelvin    Cal/Mol-Kelvin
 Total                  195.196             60.373            125.936
 Electronic               0.000              0.000              0.000
 Translational            0.889              2.981             42.043
 Rotational               0.889              2.981             32.952
 Vibrational            193.418             54.412             50.941
 Vibration     1          0.593              1.985              6.162
 Vibration     2          0.594              1.984              5.786
 Vibration     3          0.598              1.968              4.123
 Vibration     4          0.601              1.957              3.694
 Vibration     5          0.611              1.927              3.010
 Vibration     6          0.624              1.885              2.486
 Vibration     7          0.633              1.854              2.228
 Vibration     8          0.653              1.792              1.864
 Vibration     9          0.656              1.784              1.824
 Vibration    10          0.660              1.772              1.770
 Vibration    11          0.669              1.744              1.654
 Vibration    12          0.687              1.690              1.466
 Vibration    13          0.697              1.662              1.382
 Vibration    14          0.709              1.627              1.288
 Vibration    15          0.742              1.533              1.078
 Vibration    16          0.750              1.513              1.039
 Vibration    17          0.759              1.490              0.997
 Vibration    18          0.785              1.421              0.883
 Vibration    19          0.801              1.381              0.825
 Vibration    20          0.803              1.374              0.814
 Vibration    21          0.831              1.308              0.726
 Vibration    22          0.853              1.257              0.666
 Vibration    23          0.940              1.067              0.479

 Optimization completed.
    -- Stationary point found.
 Normal termination of Gaussian 16 at Thu Dec 10 22:25:45 2020.

 ----------------------------------------------------------------------
 # B3LYP/6-311++G(d,p) empiricaldispersion=gd3bj scf=xqc pop=npa geom=c
 heck
 ----------------------------------------------------------------------

 --------------------------------------
 CID_83963478_JID_6304_Energie_neutraal
 --------------------------------------
 Structure from the checkpoint file:  "JID_6304.chk"
 Charge =  0 Multiplicity = 1

 SCF Done:  E(RB3LYP) =  -687.361763039     A.U. after   15 cycles
 Normal termination of Gaussian 16 at Thu Dec 10 22:30:20 2020.

 ----------------------------------------------------------------------
 # B3LYP/6-311++G(d,p) empiricaldispersion=gd3bj scf=xqc pop=npa geom=c
 heck
 ----------------------------------------------------------------------

 ------------------------------------
 CID_83963478_JID_6304_Energie_kation
 ------------------------------------
 Structure from the checkpoint file:  "JID_6304.chk"
 Charge =  1 Multiplicity = 2

 SCF Done:  E(UB3LYP) =  -687.092777228     A.U. after   27 cycles
 Normal termination of Gaussian 16 at Thu Dec 10 22:41:52 2020.
 Gaussian 16:  ES64L-G16RevA.03 25-Dec-2016

 ----------------------------------------------------------------------
 # B3LYP/6-311++G(d,p) empiricaldispersion=gd3bj scf=xqc pop=npa geom=c
 heck
 ----------------------------------------------------------------------

 -----------------------------------
 CID_83963478_JID_6304_Energie_anion
 -----------------------------------
 Structure from the checkpoint file:  "JID_6304.chk"
 Charge = -1 Multiplicity = 2

                         Standard orientation:
 ---------------------------------------------------------------------
 Center     Atomic      Atomic             Coordinates (Angstroms)
 Number     Number       Type             X           Y           Z
 ---------------------------------------------------------------------
      1          6           0        3.356557   -1.198248   -1.572621
      2          6           0        3.661623   -0.740740   -0.139865
      3          6           0        5.158669   -0.874328    0.163724
      4          6           0        3.186372    0.705493    0.142263
      5          6           0        1.757402    1.004262   -0.352916
      6          7           0        0.793976    0.142105    0.317243
      7          6           0       -0.580692    0.257958    0.100029
      8          6           0       -1.413141   -0.808810    0.453414
      9          6           0       -2.789808   -0.651158    0.270740
     10          6           0       -3.361770    0.536429   -0.256973
     11          6           0       -2.508263    1.593060   -0.610982
     12          6           0       -1.143127    1.451815   -0.437266
     13          6           0       -4.767213    0.277218   -0.277474
     14          7           0       -5.050892   -0.927690    0.181990
     15          7           0       -3.845851   -1.485259    0.510865
     16          7           0        3.362494    0.997686    1.572304
     17          1           0        3.807518   -0.515422   -2.303820
     18          1           0        2.282443   -1.247823   -1.781257
     19          1           0        3.774446   -2.194791   -1.752270
     20          1           0        3.128982   -1.407853    0.557770
     21          1           0        5.747532   -0.281712   -0.548885
     22          1           0        5.377897   -0.513705    1.170895
     23          1           0        5.484150   -1.917212    0.077405
     24          1           0        3.854541    1.378358   -0.412793
     25          1           0        1.530791    2.044646   -0.094479
     26          1           0        1.695271    0.927282   -1.450508
     27          1           0        1.096024   -0.823429    0.360393
     28          1           0       -0.993685   -1.722667    0.866361
     29          1           0       -2.909133    2.514168   -1.024637
     30          1           0       -0.488587    2.266756   -0.721027
     31          1           0       -5.567102    0.926287   -0.609217
     32          1           0       -3.834410   -2.416520    0.894507
     33          1           0        3.274015    2.001459    1.725122
     34          1           0        2.581552    0.576579    2.077180
 ---------------------------------------------------------------------

 SCF Done:  E(UB3LYP) =  -687.351203103     A.U. after   33 cycles
 SCF Done:  E(UB3LYP) =  -687.351203103     a.u. after    1 cycles

 The electronic state is 2-A.
 Alpha  occ. eigenvalues --  -14.27785 -14.23827 -14.22544 -14.19673 -10.11951
 Alpha  occ. eigenvalues --  -10.11527 -10.10721 -10.10370 -10.09720 -10.08233
 Alpha  occ. eigenvalues --  -10.08076 -10.07327 -10.07033 -10.07015 -10.06557
 Alpha  occ. eigenvalues --  -10.05968  -0.94250  -0.84424  -0.79409  -0.74835
 Alpha  occ. eigenvalues --   -0.72793  -0.69956  -0.65879  -0.64990  -0.60734
 Alpha  occ. eigenvalues --   -0.58912  -0.54701  -0.53285  -0.51254  -0.50259
 Alpha  occ. eigenvalues --   -0.47066  -0.44137  -0.42116  -0.39980  -0.39417
 Alpha  occ. eigenvalues --   -0.37648  -0.36377  -0.35819  -0.34682  -0.34593
 Alpha  occ. eigenvalues --   -0.34122  -0.33883  -0.32347  -0.31352  -0.29811
 Alpha  occ. eigenvalues --   -0.29244  -0.28471  -0.27071  -0.26414  -0.25301
 Alpha  occ. eigenvalues --   -0.24328  -0.24001  -0.22709  -0.20647  -0.20213
 Alpha  occ. eigenvalues --   -0.18489  -0.15268  -0.13221  -0.10360   0.04154
 Alpha virt. eigenvalues --    0.05858   0.06166   0.06763   0.07487   0.07869
 Alpha virt. eigenvalues --    0.08330   0.09353   0.09706   0.10206   0.10817
 Alpha virt. eigenvalues --    0.10966   0.11219   0.11952   0.12474   0.12695

  Beta  occ. eigenvalues --  -14.27767 -14.23775 -14.22521 -14.19654 -10.11932
  Beta  occ. eigenvalues --  -10.11528 -10.10709 -10.10353 -10.09700 -10.08221
  Beta  occ. eigenvalues --  -10.07994 -10.07334 -10.07018 -10.06970 -10.06527
  Beta  occ. eigenvalues --  -10.05952  -0.94195  -0.84382  -0.79371  -0.74772
  Beta  occ. eigenvalues --   -0.72728  -0.69922  -0.65824  -0.64894  -0.60676
  Beta  occ. eigenvalues --   -0.58858  -0.54603  -0.53214  -0.51191  -0.50221
  Beta  occ. eigenvalues --   -0.47006  -0.44060  -0.42066  -0.39925  -0.39361
  Beta  occ. eigenvalues --   -0.37620  -0.36337  -0.35777  -0.34617  -0.34515
  Beta  occ. eigenvalues --   -0.34070  -0.33828  -0.32301  -0.31301  -0.29771
  Beta  occ. eigenvalues --   -0.29214  -0.28431  -0.27035  -0.26269  -0.25252
  Beta  occ. eigenvalues --   -0.24284  -0.23955  -0.22672  -0.20460  -0.20142
  Beta  occ. eigenvalues --   -0.18354  -0.15245  -0.13057  -0.10171
  Beta virt. eigenvalues --    0.06372   0.06709   0.07120   0.07168   0.07794
  Beta virt. eigenvalues --    0.08243   0.08554   0.09478   0.10281   0.10515
  Beta virt. eigenvalues --    0.10855   0.11105   0.11425   0.12109   0.12493

 Mulliken charges and spin densities:
               1          2
     1  C    0.899019  -1.652793
     2  C   -1.180270   2.060369
     3  C   -0.249891  -0.449466
     4  C    2.325639  -3.411569
     5  C   -1.150408   0.876151
     6  N   -0.006805   0.087320
     7  C    2.629884  -2.359272
     8  C   -0.602162   0.017033
     9  C   -0.454209   0.089967
    10  C    1.305230  -0.378920
    11  C   -1.623582   1.027041
    12  C   -1.134322   0.649006
    13  C    0.181558  -0.212871
    14  N   -0.237026   0.061336
    15  N   -0.045249  -0.020730
    16  N   -0.347340   0.143202
    17  H   -0.120142   0.274301
    18  H   -0.174555   0.334901
    19  H   -0.119989   0.261088
    20  H   -0.406207   0.570415
    21  H    0.051517   0.063592
    22  H    0.120463   0.057907
    23  H   -0.100732   0.234698
    24  H   -0.425992   0.637277
    25  H   -0.160812   0.347139
    26  H    0.294451  -0.137400
    27  H    0.843550  -0.625300
    28  H   -1.148146   1.297178
    29  H    0.022617   0.131556
    30  H   -0.389373   0.483974
    31  H    0.103823   0.040136
    32  H    0.039703   0.269036
    33  H    0.066838   0.168556
    34  H    0.192921   0.065141
 Sum of Mulliken charges =  -1.00000   1.00000

 Dipole moment (field-independent basis, Debye):
    X=             -1.5782    Y=              2.4812    Z=             -0.5967  Tot=              3.0005
 Quadrupole moment (field-independent basis, Debye-Ang):
   XX=           -189.6626   YY=           -141.2709   ZZ=           -127.6851
   XY=             -8.5302   XZ=              1.9764   YZ=             -1.5689

 Summary of Natural Population Analysis:

                                       Natural Population
                Natural  -----------------------------------------------
    Atom  No    Charge         Core      Valence    Rydberg      Total
 -----------------------------------------------------------------------
      C    1   -0.28854      0.99965     2.28229    0.00660     3.28854
      C    2   -0.11726      0.99960     2.10666    0.01101     3.11726
      C    3   -0.28289      0.99965     2.27804    0.00520     3.28289
      C    4   -0.01207      0.99957     1.99910    0.01340     3.01207
      C    5   -0.09291      0.99959     2.08155    0.01177     3.09291
      N    6   -0.32013      0.99967     2.81036    0.01010     3.82013
      C    7    0.10439      0.99952     1.88540    0.01069     2.89561
      C    8   -0.13833      0.99949     2.12980    0.00904     3.13833
      C    9    0.08435      0.99949     1.90478    0.01138     2.91565
      C   10   -0.08525      0.99949     2.07799    0.00776     3.08525
      C   11   -0.06540      0.99954     2.05709    0.00877     3.06540
      C   12   -0.13327      0.99954     2.12593    0.00780     3.13327
      C   13   -0.00353      0.99960     1.98957    0.01436     3.00353
      N   14   -0.14328      0.99974     2.63049    0.01305     3.64328
      N   15   -0.18520      0.99966     2.67277    0.01277     3.68520
      N   16   -0.42434      0.99977     2.91426    0.01032     3.92434
      H   17    0.09681      0.00000     0.40219    0.00101     0.40319
      H   18    0.10112      0.00000     0.39764    0.00124     0.39888
      H   19    0.10150      0.00000     0.39754    0.00095     0.39850
      H   20    0.09098      0.00000     0.40695    0.00207     0.40902
      H   21    0.09328      0.00000     0.40568    0.00104     0.40672
      H   22    0.11041      0.00000     0.38825    0.00135     0.38959
      H   23    0.09602      0.00000     0.40306    0.00092     0.40398
      H   24    0.09303      0.00000     0.40530    0.00167     0.40697
      H   25    0.09710      0.00000     0.40074    0.00216     0.40290
      H   26    0.08915      0.00000     0.40938    0.00147     0.41085
      H   27    0.18495      0.00000     0.31087    0.00418     0.31505
      H   28    0.10468      0.00000     0.39279    0.00253     0.39532
      H   29    0.09788      0.00000     0.40128    0.00084     0.40212
      H   30    0.10277      0.00000     0.39582    0.00141     0.39723
      H   31    0.09475      0.00000     0.40434    0.00091     0.40525
      H   32    0.19799      0.00000     0.29861    0.00340     0.30201
      H   33    0.17526      0.00000     0.32317    0.00158     0.32474
      H   34    0.17600      0.00000     0.32183    0.00217     0.32400
 =======================================================================
   * Total *    0.00000     15.99356    42.81150    0.19494    59.00000

 Normal termination of Gaussian 16 at Thu Dec 10 22:58:34 2020.
