 Gaussian 16, Revision A.03,

 -----------------------------------------------------------
 # opt freq B3LYP/6-31G(d) empiricaldispersion=gd3bj scf=xqc
 -----------------------------------------------------------

 ------------------------------
 CID_23171251_JID_3648_neutraal
 ------------------------------
 Symbolic Z-matrix:
 Charge =  0 Multiplicity = 1

 SCF Done:  E(RB3LYP) =  -617.561238396     A.U. after   14 cycles
 SCF Done:  E(RB3LYP) =  -617.565718581     A.U. after   14 cycles
 SCF Done:  E(RB3LYP) =  -617.555785815     A.U. after   14 cycles
 SCF Done:  E(RB3LYP) =  -617.564629599     A.U. after   13 cycles
 SCF Done:  E(RB3LYP) =  -617.566236647     A.U. after   11 cycles
 SCF Done:  E(RB3LYP) =  -617.567539069     A.U. after   12 cycles
 SCF Done:  E(RB3LYP) =  -617.552790079     A.U. after   14 cycles
 SCF Done:  E(RB3LYP) =  -617.567621524     A.U. after   12 cycles
 SCF Done:  E(RB3LYP) =  -617.568695466     A.U. after   12 cycles
 SCF Done:  E(RB3LYP) =  -617.569074057     A.U. after   11 cycles
 SCF Done:  E(RB3LYP) =  -617.570569571     A.U. after    9 cycles
 SCF Done:  E(RB3LYP) =  -617.570569913     A.U. after    8 cycles
 SCF Done:  E(RB3LYP) =  -617.570570030     A.U. after    7 cycles
 SCF Done:  E(RB3LYP) =  -617.570570106     A.U. after    7 cycles
 SCF Done:  E(RB3LYP) =  -617.570570151     A.U. after    7 cycles
 Optimization completed.
    -- Stationary point found.
 Normal termination of Gaussian 16 at Wed Dec  9 23:29:51 2020.

 --------------------------------------------------------------------
 #N Geom=AllCheck Guess=TCheck SCRF=Check GenChk RB3LYP/6-31G(d) Freq
 --------------------------------------------------------------------

 Structure from the checkpoint file:  "JID_3648.chk"
 ------------------------------
 CID_23171251_JID_3648_neutraal
 ------------------------------
 Charge =  0 Multiplicity = 1

 SCF Done:  E(RB3LYP) =  -617.570570151     A.U. after    1 cycles

  Exact polarizability: 128.062 -13.721 119.339  10.650  -0.359  95.251
 Approx polarizability: 162.314 -18.055 164.707  14.787  -1.269 149.707

                      1                      2                      3
                      A                      A                      A
 Frequencies --     22.9247                34.2670                38.8858
 Red. masses --      4.2784                 4.1794                 4.0438
 Frc consts  --      0.0013                 0.0029                 0.0036
 IR Inten    --      0.5428                 0.8617                 0.3708

                      4                      5                      6
                      A                      A                      A
 Frequencies --     47.5529                56.3638                60.8463
 Red. masses --      3.1294                 4.4967                 3.4603
 Frc consts  --      0.0042                 0.0084                 0.0075
 IR Inten    --      0.5855                 0.3407                 0.5757

                      7                      8                      9
                      A                      A                      A
 Frequencies --     73.3425                89.4766               102.6766
 Red. masses --      4.7813                 2.9744                 2.6504
 Frc consts  --      0.0152                 0.0140                 0.0165
 IR Inten    --      3.3221                 1.0011                 1.7818

                     10                     11                     12
                      A                      A                      A
 Frequencies --    120.1526               126.8947               143.6385
 Red. masses --      1.0778                 3.3639                 2.2186
 Frc consts  --      0.0092                 0.0319                 0.0270
 IR Inten    --      0.7432                 0.5438                 5.8751

                     13                     14                     15
                      A                      A                      A
 Frequencies --    195.0209               200.7667               275.4158
 Red. masses --      2.7552                 3.4634                 2.5125
 Frc consts  --      0.0617                 0.0823                 0.1123
 IR Inten    --      2.4335                 5.7553                10.0401

                     16                     17                     18
                      A                      A                      A
 Frequencies --    284.8153               362.7123               365.2784
 Red. masses --      2.1060                 1.1127                 2.3661
 Frc consts  --      0.1007                 0.0863                 0.1860
 IR Inten    --      0.2053               149.5862                 1.4516

                     19                     20                     21
                      A                      A                      A
 Frequencies --    420.8517               429.1488               470.3530
 Red. masses --      2.0886                 2.8189                 1.8416
 Frc consts  --      0.2180                 0.3059                 0.2401
 IR Inten    --      3.0652                 3.1513                 5.7708

                     22                     23                     24
                      A                      A                      A
 Frequencies --    473.0283               598.8656               639.1095
 Red. masses --      1.8026                 2.7908                 3.7792
 Frc consts  --      0.2376                 0.5897                 0.9095
 IR Inten    --      2.8864                 7.5878                 7.3293

                     25                     26                     27
                      A                      A                      A
 Frequencies --    682.8067               692.4247               826.7563
 Red. masses --      1.7689                 1.6600                 1.7944
 Frc consts  --      0.4859                 0.4689                 0.7227
 IR Inten    --     12.5951                11.0271                 4.9879

                     28                     29                     30
                      A                      A                      A
 Frequencies --    836.7740               867.9540               875.1972
 Red. masses --      1.8131                 2.2956                 1.9397
 Frc consts  --      0.7480                 1.0189                 0.8754
 IR Inten    --      8.6158                 3.1824                10.2381

                     31                     32                     33
                      A                      A                      A
 Frequencies --    943.8920               948.3498               959.1247
 Red. masses --      1.3518                 3.1629                 1.3773
 Frc consts  --      0.7096                 1.6760                 0.7465
 IR Inten    --     40.3205                 7.3752                37.5471

                     34                     35                     36
                      A                      A                      A
 Frequencies --    980.3852               981.1593              1030.3644
 Red. masses --      1.7283                 1.9136                 1.6020
 Frc consts  --      0.9787                 1.0854                 1.0021
 IR Inten    --     15.2404                 7.3551                 3.4801

                     37                     38                     39
                      A                      A                      A
 Frequencies --   1039.1310              1040.4654              1054.4182
 Red. masses --      1.2647                 1.1320                 1.2408
 Frc consts  --      0.8046                 0.7220                 0.8128
 IR Inten    --     17.2477                13.4563                13.2047

                     40                     41                     42
                      A                      A                      A
 Frequencies --   1072.2774              1078.7739              1083.3034
 Red. masses --      2.1098                 1.7812                 3.7971
 Frc consts  --      1.4292                 1.2213                 2.6254
 IR Inten    --     97.2825                24.8704                95.0340

                     43                     44                     45
                      A                      A                      A
 Frequencies --   1101.2230              1158.6568              1173.2262
 Red. masses --      2.4098                 1.9333                 2.1686
 Frc consts  --      1.7218                 1.5292                 1.7587
 IR Inten    --     28.8397                 7.8556                 3.1911

                     46                     47                     48
                      A                      A                      A
 Frequencies --   1209.7785              1255.9328              1285.9215
 Red. masses --      1.2085                 1.2109                 1.8333
 Frc consts  --      1.0421                 1.1253                 1.7861
 IR Inten    --     16.8241                31.4084               190.3219

                     49                     50                     51
                      A                      A                      A
 Frequencies --   1290.5094              1294.8632              1331.9091
 Red. masses --      1.4957                 1.4036                 1.2613
 Frc consts  --      1.4676                 1.3866                 1.3183
 IR Inten    --     89.2639                88.5263                 4.4835

                     52                     53                     54
                      A                      A                      A
 Frequencies --   1333.7455              1375.7597              1379.3084
 Red. masses --      1.2251                 1.3659                 1.4017
 Frc consts  --      1.2840                 1.5232                 1.5712
 IR Inten    --      1.1618                 5.9799                 2.3257

                     55                     56                     57
                      A                      A                      A
 Frequencies --   1406.7060              1408.6322              1429.3845
 Red. masses --      1.2300                 1.2892                 1.2667
 Frc consts  --      1.4340                 1.5071                 1.5248
 IR Inten    --      3.9171                18.5856                41.7286

                     58                     59                     60
                      A                      A                      A
 Frequencies --   1430.2496              1474.3767              1477.0861
 Red. masses --      1.4654                 1.1773                 1.1764
 Frc consts  --      1.7662                 1.5079                 1.5122
 IR Inten    --     60.1753                 5.0885                 1.5313

                     61                     62                     63
                      A                      A                      A
 Frequencies --   1501.5581              1503.5723              1505.2280
 Red. masses --      1.0532                 1.1213                 1.0608
 Frc consts  --      1.3990                 1.4936                 1.4161
 IR Inten    --     13.3963                 7.1669                15.9684

                     64                     65                     66
                      A                      A                      A
 Frequencies --   1516.2862              1533.6667              1537.8308
 Red. masses --      1.1082                 1.0908                 1.0871
 Frc consts  --      1.5012                 1.5116                 1.5148
 IR Inten    --      8.7679                 0.6067                 4.2721

                     67                     68                     69
                      A                      A                      A
 Frequencies --   1725.4716              1735.0289              1821.5476
 Red. masses --      4.3784                 4.4952                10.8376
 Frc consts  --      7.6803                 7.9728                21.1867
 IR Inten    --      6.0556                 5.9381               222.1579

                     70                     71                     72
                      A                      A                      A
 Frequencies --   3008.6428              3037.6396              3043.6216
 Red. masses --      1.0702                 1.0629                 1.0620
 Frc consts  --      5.7075                 5.7784                 5.7962
 IR Inten    --     50.9284                21.2905                22.8509

                     73                     74                     75
                      A                      A                      A
 Frequencies --   3073.6816              3075.4091              3087.8773
 Red. masses --      1.0650                 1.0378                 1.0960
 Frc consts  --      5.9283                 5.7830                 6.1570
 IR Inten    --     19.8833                 3.6193                27.0368

                     76                     77                     78
                      A                      A                      A
 Frequencies --   3099.7880              3105.2583              3137.2310
 Red. masses --      1.0980                 1.0978                 1.1011
 Frc consts  --      6.2159                 6.2370                 6.3850
 IR Inten    --      8.5130                48.3745                29.3683

                     79                     80                     81
                      A                      A                      A
 Frequencies --   3138.1776              3142.7552              3154.4506
 Red. masses --      1.0890                 1.0998                 1.0589
 Frc consts  --      6.3185                 6.3998                 6.2079
 IR Inten    --     17.8966                 7.2893                12.5923

                     82                     83                     84
                      A                      A                      A
 Frequencies --   3168.5357              3174.9495              3184.4698
 Red. masses --      1.0632                 1.0914                 1.1041
 Frc consts  --      6.2888                 6.4819                 6.5965
 IR Inten    --      5.0747                 6.7947                 7.5310

                     85                     86                     87
                      A                      A                      A
 Frequencies --   3235.2777              3249.7539              3743.5517
 Red. masses --      1.1154                 1.1159                 1.0659
 Frc consts  --      6.8785                 6.9437                 8.8012
 IR Inten    --     20.0645                11.5420                 8.8759

 - Thermochemistry -
 -------------------
 Temperature   298.150 Kelvin.  Pressure   1.00000 Atm.
 Atom     1 has atomic number  6 and mass  12.00000

 Molecular mass:   186.12559 amu.
 Principal axes and moments of inertia in atomic units:
                           1         2         3
     Eigenvalues --  1797.425335067.158406251.59416
           X            0.99988  -0.01526   0.00190
           Y            0.01529   0.99969  -0.01950
           Z           -0.00160   0.01952   0.99981
 This molecule is an asymmetric top.
 Rotational symmetry number  1.
 Warning -- assumption of classical behavior for rotation
           may cause significant error
 Rotational temperatures (Kelvin)      0.04819     0.01709     0.01385
 Rotational constants (GHZ):           1.00407     0.35616     0.28868
 Zero-point vibrational energy     703909.5 (Joules/Mol)
                                  168.23841 (Kcal/Mol)
 Warning -- explicit consideration of  23 degrees of freedom as
           vibrations may cause significant error
 Vibrational temperatures:     32.98    49.30    55.95    68.42    81.09
          (Kelvin)             87.54   105.52   128.74   147.73   172.87
                              182.57   206.66   280.59   288.86   396.26
                              409.79   521.86   525.55   605.51   617.45
                              676.73   680.58   861.63   919.54   982.41
                              996.24  1189.52  1203.93  1248.79  1259.21
                             1358.05  1364.46  1379.97  1410.56  1411.67
                             1482.46  1495.08  1497.00  1517.07  1542.77
                             1552.12  1558.63  1584.41  1667.05  1688.01
                             1740.60  1807.01  1850.15  1856.76  1863.02
                             1916.32  1918.96  1979.41  1984.52  2023.94
                             2026.71  2056.57  2057.81  2121.30  2125.20
                             2160.41  2163.31  2165.69  2181.60  2206.60
                             2212.60  2482.57  2496.32  2620.80  4328.77
                             4370.49  4379.09  4422.34  4424.83  4442.77
                             4459.90  4467.77  4513.78  4515.14  4521.72
                             4538.55  4558.82  4568.04  4581.74  4654.84
                             4675.67  5386.14

 Zero-point correction=                           0.268105 (Hartree/Particle)
 Thermal correction to Energy=                    0.285563
 Thermal correction to Enthalpy=                  0.286508
 Thermal correction to Gibbs Free Energy=         0.219168
 Sum of electronic and zero-point Energies=           -617.302465
 Sum of electronic and thermal Energies=              -617.285007
 Sum of electronic and thermal Enthalpies=            -617.284063
 Sum of electronic and thermal Free Energies=         -617.351402

                     E (Thermal)             CV                S
                      KCal/Mol        Cal/Mol-Kelvin    Cal/Mol-Kelvin
 Total                  179.194             58.574            141.728
 Electronic               0.000              0.000              0.000
 Translational            0.889              2.981             41.570
 Rotational               0.889              2.981             32.410
 Vibrational            177.416             52.612             67.749
 Vibration     1          0.593              1.985              6.363
 Vibration     2          0.594              1.983              5.566
 Vibration     3          0.594              1.981              5.315
 Vibration     4          0.595              1.979              4.917
 Vibration     5          0.596              1.975              4.581
 Vibration     6          0.597              1.973              4.430
 Vibration     7          0.599              1.967              4.062
 Vibration     8          0.602              1.957              3.671
 Vibration     9          0.605              1.947              3.403
 Vibration    10          0.609              1.932              3.098
 Vibration    11          0.611              1.926              2.993
 Vibration    12          0.616              1.910              2.755
 Vibration    13          0.636              1.847              2.180
 Vibration    14          0.638              1.839              2.126
 Vibration    15          0.677              1.719              1.562
 Vibration    16          0.683              1.702              1.505
 Vibration    17          0.737              1.549              1.110
 Vibration    18          0.738              1.544              1.100
 Vibration    19          0.783              1.425              0.889
 Vibration    20          0.790              1.407              0.861
 Vibration    21          0.827              1.316              0.737
 Vibration    22          0.830              1.310              0.729
 Vibration    23          0.957              1.034              0.452

                           ! Non-Optimized Parameters !
 Normal termination of Gaussian 16 at Wed Dec  9 23:37:03 2020.

 ----------------------------------------------------------------------
 # B3LYP/6-311++G(d,p) empiricaldispersion=gd3bj scf=xqc pop=npa geom=c
 heck
 ----------------------------------------------------------------------

 --------------------------------------
 CID_23171251_JID_3648_Energie_neutraal
 --------------------------------------
 Structure from the checkpoint file:  "JID_3648.chk"
 Charge =  0 Multiplicity = 1

 SCF Done:  E(RB3LYP) =  -617.768162044     A.U. after   14 cycles
 Normal termination of Gaussian 16 at Wed Dec  9 23:40:27 2020.

 ----------------------------------------------------------------------
 # B3LYP/6-311++G(d,p) empiricaldispersion=gd3bj scf=xqc pop=npa geom=c
 heck
 ----------------------------------------------------------------------

 ------------------------------------
 CID_23171251_JID_3648_Energie_kation
 ------------------------------------
 Structure from the checkpoint file:  "JID_3648.chk"
 Charge =  1 Multiplicity = 2

 SCF Done:  E(UB3LYP) =  -617.441905018     A.U. after   23 cycles
 Normal termination of Gaussian 16 at Wed Dec  9 23:48:24 2020.
 Gaussian 16:  ES64L-G16RevA.03 25-Dec-2016

 ----------------------------------------------------------------------
 # B3LYP/6-311++G(d,p) empiricaldispersion=gd3bj scf=xqc pop=npa geom=c
 heck
 ----------------------------------------------------------------------

 -----------------------------------
 CID_23171251_JID_3648_Energie_anion
 -----------------------------------
 Structure from the checkpoint file:  "JID_3648.chk"
 Charge = -1 Multiplicity = 2

                         Standard orientation:
 ---------------------------------------------------------------------
 Center     Atomic      Atomic             Coordinates (Angstroms)
 Number     Number       Type             X           Y           Z
 ---------------------------------------------------------------------
      1          6           0        0.050824   -2.266624    1.313157
      2          6           0       -0.627794   -1.819115    0.043814
      3          8           0       -0.190910   -1.956812   -1.079449
      4          8           0       -1.798533   -1.203570    0.319780
      5          6           0       -2.520615   -0.656845   -0.803345
      6          6           0       -3.560342    0.310717   -0.246880
      7          6           0       -2.940818    1.468077    0.487647
      8          6           0       -3.090283    2.749015    0.150670
      9          6           0        0.689014    1.262886   -0.155125
     10          6           0        1.802576    0.879737    0.473676
     11          6           0        2.703444   -0.237434    0.017207
     12          6           0        3.971907    0.287430   -0.675100
     13          8           0        4.744674    1.146632    0.155473
     14          1           0        0.455573   -1.383864    1.819416
     15          1           0        0.866305   -2.948656    1.071376
     16          1           0       -0.663002   -2.745718    1.988629
     17          1           0       -1.818950   -0.152580   -1.471602
     18          1           0       -2.987879   -1.479666   -1.355154
     19          1           0       -4.171984    0.674202   -1.081704
     20          1           0       -4.226720   -0.247522    0.425342
     21          1           0       -2.320098    1.203979    1.342210
     22          1           0       -2.617555    3.548218    0.715180
     23          1           0       -3.697751    3.049824   -0.700746
     24          1           0        0.343370    0.744246   -1.045807
     25          1           0        0.079127    2.091886    0.191296
     26          1           0        2.118905    1.419888    1.367610
     27          1           0        3.012234   -0.841295    0.880656
     28          1           0        2.164546   -0.894111   -0.675739
     29          1           0        4.629387   -0.549742   -0.929921
     30          1           0        3.690966    0.791056   -1.613086
     31          1           0        4.234209    1.962789    0.271269
 ---------------------------------------------------------------------

 SCF Done:  E(UB3LYP) =  -617.754290580     A.U. after   33 cycles
 SCF Done:  E(UB3LYP) =  -617.754290580     a.u. after    1 cycles

 The electronic state is 2-A.
 Alpha  occ. eigenvalues --  -19.07258 -19.02938 -19.01896 -10.21082 -10.13328
 Alpha  occ. eigenvalues --  -10.12527 -10.08337 -10.08328 -10.08047 -10.07879
 Alpha  occ. eigenvalues --  -10.07473 -10.06946 -10.06691  -1.01376  -0.93063
 Alpha  occ. eigenvalues --   -0.92799  -0.71732  -0.70315  -0.67076  -0.63194
 Alpha  occ. eigenvalues --   -0.62868  -0.55056  -0.53931  -0.48766  -0.46044
 Alpha  occ. eigenvalues --   -0.45500  -0.41877  -0.40604  -0.40080  -0.38493
 Alpha  occ. eigenvalues --   -0.37958  -0.36973  -0.36162  -0.34922  -0.32763
 Alpha  occ. eigenvalues --   -0.32245  -0.31893  -0.31205  -0.30213  -0.28809
 Alpha  occ. eigenvalues --   -0.28477  -0.27561  -0.26205  -0.25360  -0.24798
 Alpha  occ. eigenvalues --   -0.23450  -0.21259  -0.19377  -0.18882  -0.17184
 Alpha  occ. eigenvalues --   -0.16464   0.04358
 Alpha virt. eigenvalues --    0.06122   0.06837   0.07334   0.07920   0.08110
 Alpha virt. eigenvalues --    0.08592   0.08922   0.09550   0.09673   0.10319
 Alpha virt. eigenvalues --    0.10598   0.11315   0.11839   0.11957   0.12683

  Beta  occ. eigenvalues --  -19.07248 -19.02907 -19.01891 -10.21080 -10.13309
  Beta  occ. eigenvalues --  -10.12516 -10.08305 -10.08305 -10.08024 -10.07853
  Beta  occ. eigenvalues --  -10.07467 -10.06908 -10.06660  -1.01363  -0.92996
  Beta  occ. eigenvalues --   -0.92786  -0.71682  -0.70267  -0.67033  -0.63140
  Beta  occ. eigenvalues --   -0.62815  -0.54994  -0.53870  -0.48705  -0.45969
  Beta  occ. eigenvalues --   -0.45421  -0.41819  -0.40574  -0.40040  -0.38470
  Beta  occ. eigenvalues --   -0.37913  -0.36929  -0.36121  -0.34879  -0.32720
  Beta  occ. eigenvalues --   -0.32208  -0.31855  -0.31170  -0.30173  -0.28778
  Beta  occ. eigenvalues --   -0.28447  -0.27516  -0.26170  -0.25322  -0.24758
  Beta  occ. eigenvalues --   -0.23423  -0.21241  -0.19323  -0.18867  -0.17050
  Beta  occ. eigenvalues --   -0.16364
  Beta virt. eigenvalues --    0.06527   0.07094   0.07423   0.07752   0.08111
  Beta virt. eigenvalues --    0.08577   0.08821   0.09282   0.09901   0.09997
  Beta virt. eigenvalues --    0.10568   0.10981   0.11518   0.12074   0.12323

 Mulliken charges and spin densities:
               1          2
     1  C    0.565770  -1.213834
     2  C   -0.660842   0.685008
     3  O   -0.231717  -0.010673
     4  O    0.049889   0.027266
     5  C    0.192126  -0.297203
     6  C    1.330743  -2.034943
     7  C   -1.259699   1.786828
     8  C    0.629153  -1.228009
     9  C    0.439527  -1.111994
    10  C   -0.430769   0.777393
    11  C   -0.234142   0.084966
    12  C    0.633563  -1.203383
    13  O   -0.273045   0.010683
    14  H    0.042764   0.164022
    15  H    0.086988   0.086922
    16  H   -0.464669   0.644725
    17  H    0.305010  -0.158590
    18  H   -0.448853   0.635467
    19  H   -0.323042   0.491235
    20  H   -0.187458   0.363397
    21  H   -0.144183   0.337295
    22  H   -0.175058   0.289190
    23  H   -0.119266   0.240388
    24  H   -0.123181   0.213516
    25  H    0.187452  -0.052854
    26  H   -0.599594   0.800292
    27  H    0.018029   0.127350
    28  H    0.132129   0.053407
    29  H    0.058381   0.099672
    30  H    0.057502   0.083067
    31  H   -0.053510   0.309395
 Sum of Mulliken charges =  -1.00000   1.00000

 Dipole moment (field-independent basis, Debye):
    X=              1.5545    Y=             -0.7329    Z=             -2.1721  Tot=              2.7698
 Quadrupole moment (field-independent basis, Debye-Ang):
   XX=           -172.5049   YY=           -127.1340   ZZ=           -113.6044
   XY=             -8.1445   XZ=             -5.0886   YZ=             -3.8535

 Summary of Natural Population Analysis:

                                       Natural Population
                Natural  -----------------------------------------------
    Atom  No    Charge         Core      Valence    Rydberg      Total
 -----------------------------------------------------------------------
      C    1   -0.33413      0.99961     2.32887    0.00565     3.33413
      C    2    0.41254      0.99971     1.56243    0.02532     2.58746
      O    3   -0.31138      0.99987     3.30599    0.00552     4.31138
      O    4   -0.28504      0.99986     3.27465    0.01053     4.28504
      C    5   -0.01011      0.99955     1.99819    0.01237     3.01011
      C    6   -0.21804      0.99960     2.20747    0.01097     3.21804
      C    7   -0.08200      0.99956     2.07112    0.01132     3.08200
      C    8   -0.18969      0.99956     2.18359    0.00654     3.18969
      C    9   -0.18427      0.99955     2.17572    0.00900     3.18427
      C   10   -0.09821      0.99957     2.08585    0.01280     3.09821
      C   11   -0.23057      0.99961     2.22030    0.01066     3.23057
      C   12   -0.00190      0.99960     1.99101    0.01129     3.00190
      O   13   -0.37048      0.99990     3.36392    0.00666     4.37048
      H   14    0.11938      0.00000     0.37939    0.00123     0.38062
      H   15    0.10893      0.00000     0.39024    0.00083     0.39107
      H   16    0.11388      0.00000     0.38483    0.00129     0.38612
      H   17    0.09275      0.00000     0.40568    0.00157     0.40725
      H   18    0.09318      0.00000     0.40520    0.00162     0.40682
      H   19    0.10318      0.00000     0.39534    0.00148     0.39682
      H   20    0.10797      0.00000     0.38974    0.00229     0.39203
      H   21    0.09821      0.00000     0.40015    0.00164     0.40179
      H   22    0.09385      0.00000     0.40495    0.00119     0.40615
      H   23    0.08850      0.00000     0.41022    0.00128     0.41150
      H   24    0.09159      0.00000     0.40681    0.00161     0.40841
      H   25    0.09761      0.00000     0.40110    0.00129     0.40239
      H   26    0.09444      0.00000     0.40385    0.00172     0.40556
      H   27    0.10119      0.00000     0.39746    0.00136     0.39881
      H   28    0.11030      0.00000     0.38779    0.00190     0.38970
      H   29    0.08377      0.00000     0.41501    0.00122     0.41623
      H   30    0.07456      0.00000     0.42412    0.00132     0.42544
      H   31    0.22998      0.00000     0.26579    0.00422     0.27002
 =======================================================================
   * Total *    0.00000     12.99554    37.83679    0.16767    51.00000

 Normal termination of Gaussian 16 at Thu Dec 10 00:00:10 2020.
