 Gaussian 16, Revision A.03,

 -----------------------------------------------------------
 # opt freq B3LYP/6-31G(d) empiricaldispersion=gd3bj scf=xqc
 -----------------------------------------------------------

 -------------------------------
 CID_149509613_JID_3746_neutraal
 -------------------------------
 Symbolic Z-matrix:
 Charge =  0 Multiplicity = 1

 SCF Done:  E(RB3LYP) =  -539.631988323     A.U. after   15 cycles
 SCF Done:  E(RB3LYP) =  -539.648031673     A.U. after   13 cycles
 SCF Done:  E(RB3LYP) =  -539.649975290     A.U. after   13 cycles
 SCF Done:  E(RB3LYP) =  -539.650233428     A.U. after   12 cycles
 SCF Done:  E(RB3LYP) =  -539.650341615     A.U. after   13 cycles
 SCF Done:  E(RB3LYP) =  -539.650381086     A.U. after   12 cycles
 SCF Done:  E(RB3LYP) =  -539.650420320     A.U. after   12 cycles
 SCF Done:  E(RB3LYP) =  -539.650423011     A.U. after   10 cycles
 SCF Done:  E(RB3LYP) =  -539.650423265     A.U. after    8 cycles
 Optimization completed.
    -- Stationary point found.
 Normal termination of Gaussian 16 at Wed Dec  9 23:26:30 2020.

 --------------------------------------------------------------------
 #N Geom=AllCheck Guess=TCheck SCRF=Check GenChk RB3LYP/6-31G(d) Freq
 --------------------------------------------------------------------

 Structure from the checkpoint file:  "JID_3746.chk"
 -------------------------------
 CID_149509613_JID_3746_neutraal
 -------------------------------
 Charge =  0 Multiplicity = 1

 SCF Done:  E(RB3LYP) =  -539.650423265     A.U. after    1 cycles

  Exact polarizability: 175.478  -8.363 140.691  -6.981  -2.625  75.301
 Approx polarizability: 288.033 -17.867 276.250 -20.839 -16.626 121.914

                      1                      2                      3
                      A                      A                      A
 Frequencies --     79.2585               107.9858               157.8901
 Red. masses --      3.9723                 3.3882                 3.7589
 Frc consts  --      0.0147                 0.0233                 0.0552
 IR Inten    --      0.0239                 0.0754                 1.9900

                      4                      5                      6
                      A                      A                      A
 Frequencies --    206.7207               266.5091               272.9152
 Red. masses --      1.0541                 4.0270                 3.5701
 Frc consts  --      0.0265                 0.1685                 0.1567
 IR Inten    --      1.3099                 1.9859                 1.8558

                      7                      8                      9
                      A                      A                      A
 Frequencies --    285.3656               322.8962               360.0294
 Red. masses --      3.2555                 2.3175                 3.8049
 Frc consts  --      0.1562                 0.1424                 0.2906
 IR Inten    --      0.3848                 3.2228                 8.3007

                     10                     11                     12
                      A                      A                      A
 Frequencies --    387.6475               408.9733               420.3990
 Red. masses --      1.8711                 1.8746                 2.0913
 Frc consts  --      0.1657                 0.1847                 0.2178
 IR Inten    --     11.5371                66.5527                54.4877

                     13                     14                     15
                      A                      A                      A
 Frequencies --    433.4915               448.1047               514.8971
 Red. masses --      2.7039                 3.8099                 2.9435
 Frc consts  --      0.2994                 0.4507                 0.4598
 IR Inten    --      0.9741                10.9353                 0.0924

                     16                     17                     18
                      A                      A                      A
 Frequencies --    551.8057               606.6204               646.5350
 Red. masses --      5.4462                 3.3345                 3.1488
 Frc consts  --      0.9771                 0.7230                 0.7755
 IR Inten    --     11.2946                 1.1946                 9.2812

                     19                     20                     21
                      A                      A                      A
 Frequencies --    676.4760               691.9908               713.7700
 Red. masses --      6.1265                 4.2192                 2.5956
 Frc consts  --      1.6518                 1.1904                 0.7791
 IR Inten    --      3.2892                12.2241                 2.6306

                     22                     23                     24
                      A                      A                      A
 Frequencies --    761.4160               795.0572               811.0325
 Red. masses --      1.7462                 1.4130                 2.1784
 Frc consts  --      0.5965                 0.5263                 0.8442
 IR Inten    --      0.1055                 0.8801                 8.5559

                     25                     26                     27
                      A                      A                      A
 Frequencies --    825.8223               839.9038               855.9600
 Red. masses --      2.4324                 2.2069                 1.9238
 Frc consts  --      0.9774                 0.9173                 0.8305
 IR Inten    --     40.9445                30.2072                 2.7288

                     28                     29                     30
                      A                      A                      A
 Frequencies --    879.0007               920.6214               956.6839
 Red. masses --      2.0219                 3.7110                 1.7471
 Frc consts  --      0.9204                 1.8531                 0.9421
 IR Inten    --     17.8438                 7.2462                 5.5904

                     31                     32                     33
                      A                      A                      A
 Frequencies --    970.9803              1022.1999              1035.6694
 Red. masses --      1.2593                 2.1577                 1.8576
 Frc consts  --      0.6995                 1.3283                 1.1739
 IR Inten    --      0.5046                 2.7085                 3.8064

                     34                     35                     36
                      A                      A                      A
 Frequencies --   1069.2178              1117.6094              1146.4311
 Red. masses --      1.6379                 1.7009                 1.8276
 Frc consts  --      1.1033                 1.2517                 1.4152
 IR Inten    --      3.6393                 2.3494                 4.6312

                     37                     38                     39
                      A                      A                      A
 Frequencies --   1171.3645              1198.7918              1213.4610
 Red. masses --      1.2012                 2.0101                 2.0078
 Frc consts  --      0.9710                 1.7019                 1.7419
 IR Inten    --      7.3407                92.0211               154.3659

                     40                     41                     42
                      A                      A                      A
 Frequencies --   1220.5503              1236.1901              1278.2865
 Red. masses --      1.9499                 1.3573                 2.0301
 Frc consts  --      1.7115                 1.2220                 1.9544
 IR Inten    --     10.6765                41.5735                42.9781

                     43                     44                     45
                      A                      A                      A
 Frequencies --   1305.5278              1339.0599              1370.8791
 Red. masses --      1.6051                 1.8406                 1.5319
 Frc consts  --      1.6119                 1.9445                 1.6962
 IR Inten    --     16.6156                 2.1229                11.0651

                     46                     47                     48
                      A                      A                      A
 Frequencies --   1402.3614              1421.3264              1435.7880
 Red. masses --      1.6132                 1.6021                 1.3646
 Frc consts  --      1.8692                 1.9069                 1.6574
 IR Inten    --      2.2397                15.9428                 7.9862

                     49                     50                     51
                      A                      A                      A
 Frequencies --   1495.3296              1502.0240              1508.0443
 Red. masses --      1.2300                 1.0582                 2.0109
 Frc consts  --      1.6205                 1.4066                 2.6944
 IR Inten    --      8.1818                10.7437                17.5256

                     52                     53                     54
                      A                      A                      A
 Frequencies --   1511.7593              1547.8482              1604.9118
 Red. masses --      1.1671                 3.6632                 5.7118
 Frc consts  --      1.5716                 5.1709                 8.6682
 IR Inten    --      5.8373                 4.9834                 1.7329

                     55                     56                     57
                      A                      A                      A
 Frequencies --   1636.8182              1673.3362              1723.7981
 Red. masses --      7.7997                 6.2903                 6.5445
 Frc consts  --     12.3120                10.3774                11.4577
 IR Inten    --     20.8749                 9.1324               131.9183

                     58                     59                     60
                      A                      A                      A
 Frequencies --   3016.1009              3026.4743              3050.2133
 Red. masses --      1.0583                 1.0418                 1.1023
 Frc consts  --      5.6723                 5.6222                 6.0422
 IR Inten    --     46.3931                32.5839                15.8207

                     61                     62                     63
                      A                      A                      A
 Frequencies --   3072.4393              3085.0568              3128.0456
 Red. masses --      1.0972                 1.0853                 1.0863
 Frc consts  --      6.1024                 6.0858                 6.2628
 IR Inten    --     18.8947                28.4007                25.7968

                     64                     65                     66
                      A                      A                      A
 Frequencies --   3142.9917              3145.9498              3161.0354
 Red. masses --      1.0980                 1.0892                 1.0892
 Frc consts  --      6.3904                 6.3514                 6.4121
 IR Inten    --      4.8061                33.2930                31.5520

                     67                     68                     69
                      A                      A                      A
 Frequencies --   3189.0765              3220.3577              3741.5894
 Red. masses --      1.0877                 1.0951                 1.0655
 Frc consts  --      6.5175                 6.6916                 8.7886
 IR Inten    --      7.0737                14.0532                30.7832

 - Thermochemistry -
 -------------------
 Temperature   298.150 Kelvin.  Pressure   1.00000 Atm.
 Atom     1 has atomic number  6 and mass  12.00000

 Molecular mass:   172.08882 amu.
 Principal axes and moments of inertia in atomic units:
                           1         2         3
     Eigenvalues --  1049.642823169.435313767.19619
           X            0.99994  -0.00762   0.00776
           Y            0.00754   0.99991   0.01065
           Z           -0.00784  -0.01059   0.99991
 This molecule is an asymmetric top.
 Rotational symmetry number  1.
 Warning -- assumption of classical behavior for rotation
           may cause significant error
 Rotational temperatures (Kelvin)      0.08252     0.02733     0.02299
 Rotational constants (GHZ):           1.71939     0.56942     0.47907
 Zero-point vibrational energy     540381.2 (Joules/Mol)
                                  129.15420 (Kcal/Mol)
 Warning -- explicit consideration of  17 degrees of freedom as
           vibrations may cause significant error
 Vibrational temperatures:    114.04   155.37   227.17   297.42   383.45
          (Kelvin)            392.66   410.58   464.58   518.00   557.74
                              588.42   604.86   623.70   644.72   740.82
                              793.93   872.79   930.22   973.30   995.62
                             1026.96  1095.51  1143.91  1166.89  1188.17
                             1208.43  1231.54  1264.69  1324.57  1376.45
                             1397.02  1470.72  1490.10  1538.37  1607.99
                             1649.46  1685.33  1724.79  1745.90  1756.10
                             1778.60  1839.17  1878.36  1926.61  1972.39
                             2017.69  2044.97  2065.78  2151.45  2161.08
                             2169.74  2175.08  2227.01  2309.11  2355.02
                             2407.56  2480.16  4339.50  4354.42  4388.58
                             4420.55  4438.71  4500.56  4522.06  4526.32
                             4548.02  4588.37  4633.38  5383.31

 Zero-point correction=                           0.205820 (Hartree/Particle)
 Thermal correction to Energy=                    0.216879
 Thermal correction to Enthalpy=                  0.217824
 Thermal correction to Gibbs Free Energy=         0.169801
 Sum of electronic and zero-point Energies=           -539.444603
 Sum of electronic and thermal Energies=              -539.433544
 Sum of electronic and thermal Enthalpies=            -539.432600
 Sum of electronic and thermal Free Energies=         -539.480622

                     E (Thermal)             CV                S
                      KCal/Mol        Cal/Mol-Kelvin    Cal/Mol-Kelvin
 Total                  136.094             45.393            101.071
 Electronic               0.000              0.000              0.000
 Translational            0.889              2.981             41.336
 Rotational               0.889              2.981             30.906
 Vibrational            134.316             39.432             28.829
 Vibration     1          0.600              1.963              3.909
 Vibration     2          0.606              1.943              3.305
 Vibration     3          0.621              1.894              2.575
 Vibration     4          0.641              1.830              2.072
 Vibration     5          0.672              1.735              1.619
 Vibration     6          0.676              1.723              1.578
 Vibration     7          0.683              1.701              1.501
 Vibration     8          0.708              1.630              1.295
 Vibration     9          0.735              1.555              1.122
 Vibration    10          0.756              1.497              1.009
 Vibration    11          0.773              1.451              0.930
 Vibration    12          0.783              1.426              0.891
 Vibration    13          0.794              1.397              0.847
 Vibration    14          0.807              1.365              0.802
 Vibration    15          0.870              1.217              0.622
 Vibration    16          0.907              1.136              0.540
 Vibration    17          0.965              1.018              0.438

 Optimization completed.
    -- Stationary point found.
 Normal termination of Gaussian 16 at Wed Dec  9 23:32:41 2020.

 ----------------------------------------------------------------------
 # B3LYP/6-311++G(d,p) empiricaldispersion=gd3bj scf=xqc pop=npa geom=c
 heck
 ----------------------------------------------------------------------

 ---------------------------------------
 CID_149509613_JID_3746_Energie_neutraal
 ---------------------------------------
 Structure from the checkpoint file:  "JID_3746.chk"
 Charge =  0 Multiplicity = 1

 SCF Done:  E(RB3LYP) =  -539.800423972     A.U. after   16 cycles
 Normal termination of Gaussian 16 at Wed Dec  9 23:35:02 2020.

 ----------------------------------------------------------------------
 # B3LYP/6-311++G(d,p) empiricaldispersion=gd3bj scf=xqc pop=npa geom=c
 heck
 ----------------------------------------------------------------------

 -------------------------------------
 CID_149509613_JID_3746_Energie_kation
 -------------------------------------
 Structure from the checkpoint file:  "JID_3746.chk"
 Charge =  1 Multiplicity = 2

 SCF Done:  E(UB3LYP) =  -539.547631159     A.U. after   26 cycles
 Normal termination of Gaussian 16 at Wed Dec  9 23:40:08 2020.
 Gaussian 16:  ES64L-G16RevA.03 25-Dec-2016

 ----------------------------------------------------------------------
 # B3LYP/6-311++G(d,p) empiricaldispersion=gd3bj scf=xqc pop=npa geom=c
 heck
 ----------------------------------------------------------------------

 ------------------------------------
 CID_149509613_JID_3746_Energie_anion
 ------------------------------------
 Structure from the checkpoint file:  "JID_3746.chk"
 Charge = -1 Multiplicity = 2

                         Standard orientation:
 ---------------------------------------------------------------------
 Center     Atomic      Atomic             Coordinates (Angstroms)
 Number     Number       Type             X           Y           Z
 ---------------------------------------------------------------------
      1          6           0        2.613129    0.252598    1.525348
      2          6           0        2.612654   -0.079516    0.060675
      3          6           0        2.265935    0.807839   -0.895780
      4          6           0        1.109507    1.644640   -0.571335
      5          6           0       -0.005828    0.932056   -0.209403
      6          6           0       -1.223156    1.694843    0.043224
      7          6           0       -2.441310    1.134653    0.186353
      8          6           0       -2.576316   -0.298817    0.082749
      9          6           0       -1.495662   -1.090051   -0.114404
     10          6           0       -0.122120   -0.588717   -0.200939
     11          6           0        0.835797   -1.576398   -0.294232
     12          6           0        2.360435   -1.515433   -0.270151
     13          8           0       -3.859366   -0.758405    0.205523
     14          1           0        3.569543   -0.058131    1.970359
     15          1           0        1.824398   -0.292757    2.060336
     16          1           0        2.485640    1.323336    1.701152
     17          1           0        2.340370    0.496959   -1.942646
     18          1           0        1.035208    2.720537   -0.727078
     19          1           0       -1.115082    2.774842    0.093202
     20          1           0       -3.334448    1.725471    0.361017
     21          1           0       -1.630949   -2.168929   -0.163648
     22          1           0        0.442386   -2.589615   -0.387595
     23          1           0        2.752187   -1.821317   -1.250795
     24          1           0        2.759022   -2.224435    0.470252
     25          1           0       -3.851751   -1.724903    0.118625
 ---------------------------------------------------------------------

 SCF Done:  E(UB3LYP) =  -539.820989186     A.U. after   26 cycles

 The electronic state is 2-A.
 Alpha  occ. eigenvalues --  -19.01886 -10.07227 -10.03164 -10.03047 -10.02244
 Alpha  occ. eigenvalues --  -10.01910 -10.01900 -10.01185 -10.00768 -10.00702
 Alpha  occ. eigenvalues --  -10.00167  -9.99882  -9.99713  -0.92704  -0.70489
 Alpha  occ. eigenvalues --   -0.67240  -0.62445  -0.60416  -0.57437  -0.55127
 Alpha  occ. eigenvalues --   -0.49583  -0.48801  -0.44608  -0.40751  -0.37076
 Alpha  occ. eigenvalues --   -0.36627  -0.33608  -0.32185  -0.30962  -0.29752
 Alpha  occ. eigenvalues --   -0.28483  -0.27204  -0.26905  -0.26060  -0.25395
 Alpha  occ. eigenvalues --   -0.24190  -0.22232  -0.21987  -0.21190  -0.19139
 Alpha  occ. eigenvalues --   -0.18205  -0.17657  -0.12689  -0.10800  -0.06594
 Alpha  occ. eigenvalues --   -0.03498   0.03798
 Alpha virt. eigenvalues --    0.08699   0.09529   0.10320   0.11018   0.11635
 Alpha virt. eigenvalues --    0.11997   0.12974   0.13102   0.13753   0.13870
 Alpha virt. eigenvalues --    0.14682   0.15075   0.16310   0.16503   0.17278

  Beta  occ. eigenvalues --  -19.01851 -10.07158 -10.03204 -10.03105 -10.02258
  Beta  occ. eigenvalues --  -10.01898 -10.01619 -10.01032 -10.00691 -10.00566
  Beta  occ. eigenvalues --   -9.99982  -9.99771  -9.99275  -0.92619  -0.70111
  Beta  occ. eigenvalues --   -0.66894  -0.61960  -0.60060  -0.57136  -0.54967
  Beta  occ. eigenvalues --   -0.49423  -0.48440  -0.44116  -0.40424  -0.36714
  Beta  occ. eigenvalues --   -0.36323  -0.33393  -0.31920  -0.30732  -0.29509
  Beta  occ. eigenvalues --   -0.28192  -0.27029  -0.26527  -0.25875  -0.25139
  Beta  occ. eigenvalues --   -0.24019  -0.21947  -0.21720  -0.21011  -0.18516
  Beta  occ. eigenvalues --   -0.17993  -0.17401  -0.11718  -0.09623  -0.06074
  Beta  occ. eigenvalues --   -0.01653
  Beta virt. eigenvalues --    0.08650   0.09216   0.09774   0.10298   0.11030
  Beta virt. eigenvalues --    0.11718   0.12006   0.13045   0.13400   0.13778
  Beta virt. eigenvalues --    0.14245   0.15046   0.15278   0.16462   0.16599

 Mulliken charges and spin densities:
               1          2
     1  C   -0.818062   0.001597
     2  C    0.849547   0.236414
     3  C   -0.402260  -0.152461
     4  C   -0.331365   0.384370
     5  C    0.174779  -0.025508
     6  C   -0.285620   0.102339
     7  C   -0.219067   0.092008
     8  C   -0.241608   0.048438
     9  C   -0.134890   0.060496
    10  C    0.421704  -0.079838
    11  C   -0.181445   0.278946
    12  C   -0.898847  -0.048942
    13  O   -0.270782   0.006651
    14  H    0.114609   0.014407
    15  H    0.135912   0.007588
    16  H    0.148120   0.006191
    17  H    0.064603   0.051692
    18  H    0.103745  -0.017155
    19  H    0.099037  -0.010459
    20  H    0.130978  -0.008980
    21  H    0.032854  -0.002440
    22  H    0.078264  -0.008692
    23  H    0.091665   0.059689
    24  H    0.101076   0.003307
    25  H    0.237051   0.000340
 Sum of Mulliken charges =  -1.00000   1.00000

 Dipole moment (field-independent basis, Debye):
    X=             -0.7837    Y=             -2.1283    Z=              0.7498  Tot=              2.3887
 Quadrupole moment (field-independent basis, Debye-Ang):
   XX=           -114.4263   YY=            -86.5312   ZZ=            -89.9455
   XY=              2.5713   XZ=              2.7957   YZ=              0.5979

 Summary of Natural Population Analysis:

                                       Natural Population
                Natural  -----------------------------------------------
    Atom  No    Charge         Core      Valence    Rydberg      Total
 -----------------------------------------------------------------------
      C    1   -0.30475      0.99962     2.29962    0.00551     3.30475
      C    2    0.07558      0.99944     1.91314    0.01184     2.92442
      C    3   -0.16740      0.99939     2.15420    0.01381     3.16740
      C    4   -0.00548      0.99947     1.99532    0.01069     3.00548
      C    5   -0.04295      0.99946     2.03420    0.00930     3.04295
      C    6   -0.05193      0.99953     2.04323    0.00916     3.05193
      C    7   -0.11615      0.99951     2.10587    0.01077     3.11615
      C    8    0.15493      0.99936     1.83315    0.01256     2.84507
      C    9   -0.13538      0.99948     2.12645    0.00945     3.13538
      C   10   -0.05369      0.99947     2.04526    0.00896     3.05369
      C   11   -0.01486      0.99953     2.00615    0.00919     3.01486
      C   12   -0.22181      0.99957     2.21376    0.00848     3.22181
      O   13   -0.34849      0.99988     3.34231    0.00630     4.34849
      H   14    0.09449      0.00000     0.40423    0.00128     0.40551
      H   15    0.10371      0.00000     0.39503    0.00126     0.39629
      H   16    0.10363      0.00000     0.39531    0.00106     0.39637
      H   17    0.09393      0.00000     0.40434    0.00173     0.40607
      H   18    0.07844      0.00000     0.41918    0.00237     0.42156
      H   19    0.08635      0.00000     0.41193    0.00171     0.41365
      H   20    0.09180      0.00000     0.40655    0.00165     0.40820
      H   21    0.08237      0.00000     0.41552    0.00211     0.41763
      H   22    0.07502      0.00000     0.42268    0.00230     0.42498
      H   23    0.10737      0.00000     0.39053    0.00211     0.39263
      H   24    0.09032      0.00000     0.40791    0.00177     0.40968
      H   25    0.22496      0.00000     0.27260    0.00244     0.27504
 =======================================================================
   * Total *   -0.00000     12.99371    32.85846    0.14783    46.00000

 Normal termination of Gaussian 16 at Wed Dec  9 23:45:12 2020.
