 Gaussian 16, Revision A.03,

 -----------------------------------------------------------
 # opt freq B3LYP/6-31G(d) empiricaldispersion=gd3bj scf=xqc
 -----------------------------------------------------------

 -------------------------------
 CID_122192381_JID_6031_neutraal
 -------------------------------
 Symbolic Z-matrix:
 Charge =  0 Multiplicity = 1

 SCF Done:  E(RB3LYP) =  -724.541550231     A.U. after   15 cycles
 SCF Done:  E(RB3LYP) =  -724.547502348     A.U. after   13 cycles
 SCF Done:  E(RB3LYP) =  -724.548741540     A.U. after   12 cycles
 SCF Done:  E(RB3LYP) =  -724.550236833     A.U. after   13 cycles
 SCF Done:  E(RB3LYP) =  -724.551270517     A.U. after   15 cycles
 SCF Done:  E(RB3LYP) =  -724.551904102     A.U. after   13 cycles
 SCF Done:  E(RB3LYP) =  -724.551377910     A.U. after   12 cycles
 SCF Done:  E(RB3LYP) =  -724.552210879     A.U. after   12 cycles
 SCF Done:  E(RB3LYP) =  -724.552320872     A.U. after   12 cycles
 SCF Done:  E(RB3LYP) =  -724.552340443     A.U. after   10 cycles
 SCF Done:  E(RB3LYP) =  -724.552375985     A.U. after    6 cycles
 SCF Done:  E(RB3LYP) =  -724.552375989     A.U. after    6 cycles
 SCF Done:  E(RB3LYP) =  -724.552375991     A.U. after    6 cycles
 SCF Done:  E(RB3LYP) =  -724.552375993     A.U. after    6 cycles
 SCF Done:  E(RB3LYP) =  -724.552375994     A.U. after    6 cycles
 SCF Done:  E(RB3LYP) =  -724.552375994     A.U. after    6 cycles
 Optimization completed on the basis of negligible forces.
    -- Stationary point found.
 Normal termination of Gaussian 16 at Thu Dec 10 21:28:00 2020.

 --------------------------------------------------------------------
 #N Geom=AllCheck Guess=TCheck SCRF=Check GenChk RB3LYP/6-31G(d) Freq
 --------------------------------------------------------------------

 Structure from the checkpoint file:  "JID_6031.chk"
 -------------------------------
 CID_122192381_JID_6031_neutraal
 -------------------------------
 Charge =  0 Multiplicity = 1

 SCF Done:  E(RB3LYP) =  -724.552375994     A.U. after    1 cycles

  Exact polarizability: 277.923   0.704 151.397  -0.020   0.084  60.863
 Approx polarizability: 422.024   0.574 249.250   0.086  -0.020  93.358

                      1                      2                      3
                      A                      A                      A
 Frequencies --      4.1252                12.0764                31.2965
 Red. masses --      1.0677                 1.0338                 3.9819
 Frc consts  --      0.0000                 0.0001                 0.0023
 IR Inten    --      0.0112                 0.4427                 0.5109

                      4                      5                      6
                      A                      A                      A
 Frequencies --     45.8039               105.3595               129.6754
 Red. masses --      7.4631                 4.9168                 7.0663
 Frc consts  --      0.0092                 0.0322                 0.0700
 IR Inten    --      0.3046                 1.0606                 0.0629

                      7                      8                      9
                      A                      A                      A
 Frequencies --    150.6076               194.9206               204.0299
 Red. masses --      8.8146                 3.0238                 7.3426
 Frc consts  --      0.1178                 0.0677                 0.1801
 IR Inten    --      0.0195                 2.3457                 1.3558

                     10                     11                     12
                      A                      A                      A
 Frequencies --    233.8492               236.5000               303.5455
 Red. masses --      3.0211                 3.7041                 3.7172
 Frc consts  --      0.0973                 0.1221                 0.2018
 IR Inten    --      0.0476                 0.7543                 0.2051

                     13                     14                     15
                      A                      A                      A
 Frequencies --    311.4218               350.4126               391.5787
 Red. masses --      4.2652                 1.5104                 6.4853
 Frc consts  --      0.2437                 0.1093                 0.5859
 IR Inten    --      4.7480                32.6298                15.7159

                     16                     17                     18
                      A                      A                      A
 Frequencies --    446.6433               462.2806               521.7039
 Red. masses --      3.6712                 2.2209                 4.7001
 Frc consts  --      0.4315                 0.2796                 0.7537
 IR Inten    --     13.4561                17.5868                 1.5966

                     19                     20                     21
                      A                      A                      A
 Frequencies --    526.0150               546.6772               565.6536
 Red. masses --      3.3804                 4.9190                 1.0933
 Frc consts  --      0.5511                 0.8661                 0.2061
 IR Inten    --      0.3921                 6.6531               195.2132

                     22                     23                     24
                      A                      A                      A
 Frequencies --    570.5802               577.6453               643.3575
 Red. masses --      3.6310                 4.6631                10.3598
 Frc consts  --      0.6965                 0.9167                 2.5264
 IR Inten    --      0.5561                 1.9291                19.5883

                     25                     26                     27
                      A                      A                      A
 Frequencies --    680.4608               709.1092               740.0371
 Red. masses --      6.7486                 2.4861                 9.8066
 Frc consts  --      1.8411                 0.7365                 3.1643
 IR Inten    --     62.2645                 4.3970                 5.6482

                     28                     29                     30
                      A                      A                      A
 Frequencies --    765.0752               770.9625               805.3579
 Red. masses --      5.5207                10.2392                 4.7037
 Frc consts  --      1.9039                 3.5858                 1.7975
 IR Inten    --      4.0434                16.0841                28.8544

                     31                     32                     33
                      A                      A                      A
 Frequencies --    862.8379               897.6582               926.5633
 Red. masses --      1.3435                 1.3206                 1.3818
 Frc consts  --      0.5893                 0.6270                 0.6989
 IR Inten    --      3.5326                 7.6386                 9.7498

                     34                     35                     36
                      A                      A                      A
 Frequencies --    947.1718               974.1022               983.8733
 Red. masses --      1.4133                 3.4971                 2.2866
 Frc consts  --      0.7470                 1.9551                 1.3041
 IR Inten    --     13.8080                 5.8664                 2.9951

                     37                     38                     39
                      A                      A                      A
 Frequencies --   1014.4012              1020.3108              1053.4284
 Red. masses --      2.4982                 5.7995                 1.5064
 Frc consts  --      1.5146                 3.5572                 0.9849
 IR Inten    --     71.4965                 4.3608                 0.3538

                     40                     41                     42
                      A                      A                      A
 Frequencies --   1066.6667              1075.8746              1079.4834
 Red. masses --      2.1265                 1.5009                 1.5263
 Frc consts  --      1.4255                 1.0236                 1.0479
 IR Inten    --      1.7683                 1.9951                 7.5519

                     43                     44                     45
                      A                      A                      A
 Frequencies --   1143.6123              1206.8201              1223.5996
 Red. masses --      3.0302                 1.4947                 1.6225
 Frc consts  --      2.3350                 1.2826                 1.4312
 IR Inten    --      9.3832                 0.0973                54.4685

                     46                     47                     48
                      A                      A                      A
 Frequencies --   1243.0436              1320.6574              1346.5189
 Red. masses --      2.4105                 3.6646                 1.9243
 Frc consts  --      2.1945                 3.7658                 2.0557
 IR Inten    --    168.0129                22.1164                42.7265

                     49                     50                     51
                      A                      A                      A
 Frequencies --   1359.3166              1371.6070              1377.7675
 Red. masses --      1.8873                 2.2376                 3.1211
 Frc consts  --      2.0547                 2.4803                 3.4906
 IR Inten    --     13.8752                45.9941                26.5783

                     52                     53                     54
                      A                      A                      A
 Frequencies --   1386.5785              1441.9904              1444.0807
 Red. masses --      4.9493                 1.2459                 1.2718
 Frc consts  --      5.6063                 1.5264                 1.5626
 IR Inten    --    471.9589                 0.2189                 0.0731

                     55                     56                     57
                      A                      A                      A
 Frequencies --   1458.6898              1484.5239              1501.3635
 Red. masses --      2.2244                 1.9679                 1.8466
 Frc consts  --      2.7886                 2.5552                 2.4524
 IR Inten    --      1.4336                 0.0348                 1.9200

                     58                     59                     60
                      A                      A                      A
 Frequencies --   1515.3529              1517.6398              1530.7003
 Red. masses --      1.0442                 1.0460                 1.2233
 Frc consts  --      1.4128                 1.4195                 1.6887
 IR Inten    --      6.5345                 5.1968                10.8885

                     61                     62                     63
                      A                      A                      A
 Frequencies --   1540.7027              1650.6521              1656.9234
 Red. masses --      1.3495                 5.1383                 5.1407
 Frc consts  --      1.8874                 8.2487                 8.3153
 IR Inten    --     11.8593                43.2540                 3.4875

                     64                     65                     66
                      A                      A                      A
 Frequencies --   1702.6925              1820.2924              1880.6415
 Red. masses --      7.3284                10.0196                10.1207
 Frc consts  --     12.5180                19.5606                21.0898
 IR Inten    --     44.4618               259.0900               969.0015

                     67                     68                     69
                      A                      A                      A
 Frequencies --   3045.1686              3046.0897              3097.3331
 Red. masses --      1.0383                 1.0373                 1.1001
 Frc consts  --      5.6729                 5.6710                 6.2184
 IR Inten    --     34.0440                35.8450                18.8507

                     70                     71                     72
                      A                      A                      A
 Frequencies --   3099.1290              3126.6551              3132.9244
 Red. masses --      1.1010                 1.1013                 1.0861
 Frc consts  --      6.2306                 6.3430                 6.2807
 IR Inten    --     21.7775                15.3621                18.2700

                     73                     74                     75
                      A                      A                      A
 Frequencies --   3135.4891              3166.0749              3172.4005
 Red. masses --      1.1006                 1.0898                 1.0896
 Frc consts  --      6.3753                 6.4362                 6.4611
 IR Inten    --     11.3450                22.6586                17.6631

                     76                     77                     78
                      A                      A                      A
 Frequencies --   3250.3646              3661.6806              3663.8731
 Red. masses --      1.0914                 1.0802                 1.0798
 Frc consts  --      6.7936                 8.5332                 8.5406
 IR Inten    --     25.5802               105.2154                53.0099

 - Thermochemistry -
 -------------------
 Temperature   298.150 Kelvin.  Pressure   1.00000 Atm.
 Atom     1 has atomic number  6 and mass  12.00000

 Molecular mass:   216.08988 amu.
 Principal axes and moments of inertia in atomic units:
                           1         2         3
     Eigenvalues --  1508.058197011.375848497.00864
           X            1.00000   0.00299  -0.00002
           Y           -0.00299   1.00000   0.00020
           Z            0.00002  -0.00020   1.00000
 This molecule is an asymmetric top.
 Rotational symmetry number  1.
 Warning -- assumption of classical behavior for rotation
           may cause significant error
 Rotational temperatures (Kelvin)      0.05743     0.01235     0.01019
 Rotational constants (GHZ):           1.19673     0.25740     0.21240
 Zero-point vibrational energy     584149.0 (Joules/Mol)
                                  139.61496 (Kcal/Mol)
 Warning -- explicit consideration of  23 degrees of freedom as
           vibrations may cause significant error
 Vibrational temperatures:      5.94    17.38    45.03    65.90   151.59
          (Kelvin)            186.57   216.69   280.45   293.55   336.46
                              340.27   436.73   448.07   504.17   563.39
                              642.62   665.12   750.62   756.82   786.55
                              813.85   820.94   831.10   925.65   979.03
                             1020.25  1064.75  1100.77  1109.24  1158.73
                             1241.43  1291.53  1333.12  1362.77  1401.52
                             1415.57  1459.50  1468.00  1515.65  1534.70
                             1547.94  1553.14  1645.40  1736.35  1760.49
                             1788.46  1900.13  1937.34  1955.75  1973.44
                             1982.30  1994.98  2074.70  2077.71  2098.73
                             2135.90  2160.13  2180.25  2183.55  2202.34
                             2216.73  2374.92  2383.94  2449.79  2618.99
                             2705.82  4381.32  4382.64  4456.37  4458.96
                             4498.56  4507.58  4511.27  4555.28  4564.38
                             4676.55  5268.34  5271.50

 Zero-point correction=                           0.222491 (Hartree/Particle)
 Thermal correction to Energy=                    0.237599
 Thermal correction to Enthalpy=                  0.238543
 Thermal correction to Gibbs Free Energy=         0.175231
 Sum of electronic and zero-point Energies=           -724.329885
 Sum of electronic and thermal Energies=              -724.314777
 Sum of electronic and thermal Enthalpies=            -724.313833
 Sum of electronic and thermal Free Energies=         -724.377145

                     E (Thermal)             CV                S
                      KCal/Mol        Cal/Mol-Kelvin    Cal/Mol-Kelvin
 Total                  149.096             55.369            133.251
 Electronic               0.000              0.000              0.000
 Translational            0.889              2.981             42.015
 Rotational               0.889              2.981             32.863
 Vibrational            147.318             49.407             58.373
 Vibration     1          0.593              1.987              9.771
 Vibration     2          0.593              1.987              7.636
 Vibration     3          0.594              1.983              5.745
 Vibration     4          0.595              1.979              4.991
 Vibration     5          0.605              1.945              3.353
 Vibration     6          0.612              1.924              2.951
 Vibration     7          0.618              1.902              2.665
 Vibration     8          0.636              1.847              2.181
 Vibration     9          0.640              1.834              2.096
 Vibration    10          0.654              1.789              1.849
 Vibration    11          0.655              1.785              1.829
 Vibration    12          0.695              1.667              1.397
 Vibration    13          0.700              1.652              1.355
 Vibration    14          0.727              1.574              1.164
 Vibration    15          0.759              1.488              0.994
 Vibration    16          0.806              1.368              0.806
 Vibration    17          0.820              1.334              0.759
 Vibration    18          0.877              1.202              0.606
 Vibration    19          0.881              1.192              0.596
 Vibration    20          0.902              1.147              0.551
 Vibration    21          0.922              1.106              0.513
 Vibration    22          0.927              1.095              0.503
 Vibration    23          0.934              1.080              0.490

 Optimization completed on the basis of negligible forces.
    -- Stationary point found.
 Normal termination of Gaussian 16 at Thu Dec 10 21:35:59 2020.

 ----------------------------------------------------------------------
 # B3LYP/6-311++G(d,p) empiricaldispersion=gd3bj scf=xqc pop=npa geom=c
 heck
 ----------------------------------------------------------------------

 ---------------------------------------
 CID_122192381_JID_6031_Energie_neutraal
 ---------------------------------------
 Structure from the checkpoint file:  "JID_6031.chk"
 Charge =  0 Multiplicity = 1

 SCF Done:  E(RB3LYP) =  -724.754714135     A.U. after   15 cycles
 Normal termination of Gaussian 16 at Thu Dec 10 21:39:14 2020.

 ----------------------------------------------------------------------
 # B3LYP/6-311++G(d,p) empiricaldispersion=gd3bj scf=xqc pop=npa geom=c
 heck
 ----------------------------------------------------------------------

 -------------------------------------
 CID_122192381_JID_6031_Energie_kation
 -------------------------------------
 Structure from the checkpoint file:  "JID_6031.chk"
 Charge =  1 Multiplicity = 2

 SCF Done:  E(UB3LYP) =  -724.468411938     A.U. after   24 cycles
 Normal termination of Gaussian 16 at Thu Dec 10 21:47:39 2020.
 Gaussian 16:  ES64L-G16RevA.03 25-Dec-2016

 ----------------------------------------------------------------------
 # B3LYP/6-311++G(d,p) empiricaldispersion=gd3bj scf=xqc pop=npa geom=c
 heck
 ----------------------------------------------------------------------

 ------------------------------------
 CID_122192381_JID_6031_Energie_anion
 ------------------------------------
 Structure from the checkpoint file:  "JID_6031.chk"
 Charge = -1 Multiplicity = 2

                         Standard orientation:
 ---------------------------------------------------------------------
 Center     Atomic      Atomic             Coordinates (Angstroms)
 Number     Number       Type             X           Y           Z
 ---------------------------------------------------------------------
      1          6           0       -2.945671    2.733954    0.007960
      2          6           0       -2.588414    1.266578   -0.001879
      3          6           0       -3.595294    0.294238   -0.004486
      4          6           0       -3.293359   -1.072091   -0.002041
      5          6           0       -1.953116   -1.451459    0.001425
      6          6           0       -0.911652   -0.500427    0.002210
      7          6           0       -1.252423    0.864877    0.000162
      8          6           0        0.444756   -1.029022    0.003501
      9          6           0        1.676852   -0.464612    0.001618
     10          6           0        2.156789    0.955498   -0.003542
     11          8           0        1.538127    2.005217   -0.006980
     12          7           0        3.541950    0.851922   -0.003838
     13          6           0        4.007850   -0.469969    0.000667
     14          8           0        5.160562   -0.846647    0.001523
     15          7           0        2.857256   -1.231035    0.003890
     16          6           0       -4.396556   -2.102946   -0.003249
     17          1           0       -3.651027    2.978166   -0.795112
     18          1           0       -3.422962    3.019199    0.953963
     19          1           0       -2.057035    3.358537   -0.118970
     20          1           0       -4.638024    0.607516   -0.009261
     21          1           0       -1.703080   -2.510209    0.001727
     22          1           0       -0.466170    1.608168   -0.000442
     23          1           0        0.470451   -2.119612    0.006688
     24          1           0        4.160419    1.650257   -0.006838
     25          1           0        2.897197   -2.238956    0.007230
     26          1           0       -5.029024   -2.010170    0.887989
     27          1           0       -5.050352   -1.985482   -0.875799
     28          1           0       -3.992924   -3.119883   -0.021960
 ---------------------------------------------------------------------

 SCF Done:  E(UB3LYP) =  -724.786287061     A.U. after   19 cycles

 The electronic state is 2-A.
 Alpha  occ. eigenvalues --  -18.96523 -18.94295 -14.22114 -14.21775 -10.16939
 Alpha  occ. eigenvalues --  -10.12221 -10.06401 -10.06299 -10.05207 -10.05119
 Alpha  occ. eigenvalues --  -10.04685 -10.04205 -10.03153 -10.02774 -10.02303
 Alpha  occ. eigenvalues --  -10.01512  -0.93854  -0.89735  -0.84226  -0.76813
 Alpha  occ. eigenvalues --   -0.72833  -0.65863  -0.65689  -0.60782  -0.57285
 Alpha  occ. eigenvalues --   -0.55545  -0.53733  -0.51144  -0.47520  -0.44665
 Alpha  occ. eigenvalues --   -0.42113  -0.38008  -0.37309  -0.36762  -0.34462
 Alpha  occ. eigenvalues --   -0.34185  -0.32153  -0.31470  -0.30997  -0.30265
 Alpha  occ. eigenvalues --   -0.29648  -0.29315  -0.28313  -0.26991  -0.26400
 Alpha  occ. eigenvalues --   -0.25913  -0.24367  -0.23064  -0.21296  -0.20561
 Alpha  occ. eigenvalues --   -0.20387  -0.16093  -0.15647  -0.14291  -0.12003
 Alpha  occ. eigenvalues --   -0.11317  -0.07734   0.02598
 Alpha virt. eigenvalues --    0.07527   0.08784   0.09281   0.10335   0.10351
 Alpha virt. eigenvalues --    0.10718   0.11497   0.12073   0.13062   0.13127
 Alpha virt. eigenvalues --    0.13652   0.14287   0.14787   0.15097   0.15437

  Beta  occ. eigenvalues --  -18.96365 -18.93891 -14.22164 -14.21810 -10.16824
  Beta  occ. eigenvalues --  -10.11982 -10.06296 -10.06201 -10.05203 -10.05176
  Beta  occ. eigenvalues --  -10.04753 -10.04221 -10.03022 -10.02545 -10.01967
  Beta  occ. eigenvalues --  -10.01356  -0.93584  -0.89135  -0.83938  -0.76755
  Beta  occ. eigenvalues --   -0.72642  -0.65773  -0.65318  -0.60434  -0.57020
  Beta  occ. eigenvalues --   -0.55334  -0.53293  -0.50745  -0.47208  -0.44641
  Beta  occ. eigenvalues --   -0.41904  -0.37739  -0.37235  -0.36606  -0.34302
  Beta  occ. eigenvalues --   -0.33415  -0.31934  -0.31431  -0.30831  -0.30270
  Beta  occ. eigenvalues --   -0.29539  -0.28977  -0.28220  -0.26853  -0.26255
  Beta  occ. eigenvalues --   -0.24347  -0.24225  -0.22304  -0.21133  -0.20306
  Beta  occ. eigenvalues --   -0.19971  -0.15943  -0.14569  -0.13216  -0.11623
  Beta  occ. eigenvalues --   -0.10731  -0.06143
  Beta virt. eigenvalues --    0.07493   0.08294   0.08750   0.09270   0.10335
  Beta virt. eigenvalues --    0.10613   0.10696   0.11602   0.12043   0.13112
  Beta virt. eigenvalues --    0.13565   0.14112   0.14304   0.14785   0.15094

 Mulliken charges and spin densities:
               1          2
     1  C   -0.548827   0.011110
     2  C    0.034444  -0.061683
     3  C   -0.326175   0.216665
     4  C    0.514167  -0.052889
     5  C   -0.697371   0.090622
     6  C    0.806400  -0.024133
     7  C   -1.110361   0.111310
     8  C   -0.308214   0.290389
     9  C    0.094419   0.133488
    10  C    0.431802   0.115116
    11  O   -0.428838   0.145265
    12  N   -0.377724  -0.028608
    13  C    0.316102   0.067640
    14  O   -0.458992   0.052907
    15  N   -0.314991  -0.027287
    16  C   -0.381824   0.007374
    17  H    0.114659   0.002255
    18  H    0.128005   0.001014
    19  H    0.162758  -0.000221
    20  H    0.109266  -0.015746
    21  H    0.026213  -0.006420
    22  H    0.118610  -0.012337
    23  H    0.103060  -0.021061
    24  H    0.322910  -0.000933
    25  H    0.277581  -0.000068
    26  H    0.131438   0.003268
    27  H    0.128782   0.003304
    28  H    0.132699  -0.000342
 Sum of Mulliken charges =  -1.00000   1.00000

 Dipole moment (field-independent basis, Debye):
    X=             -4.2768    Y=             -1.4982    Z=              0.0168  Tot=              4.5316
 Quadrupole moment (field-independent basis, Debye-Ang):
   XX=           -157.2946   YY=           -104.4552   ZZ=           -102.8417
   XY=              4.6241   XZ=             -0.0298   YZ=              0.0071

 Summary of Natural Population Analysis:

                                       Natural Population
                Natural  -----------------------------------------------
    Atom  No    Charge         Core      Valence    Rydberg      Total
 -----------------------------------------------------------------------
      C    1   -0.28905      0.99964     2.28468    0.00473     3.28905
      C    2   -0.03339      0.99952     2.02604    0.00783     3.03339
      C    3   -0.06677      0.99947     2.05845    0.00885     3.06677
      C    4   -0.03980      0.99951     2.03246    0.00782     3.03980
      C    5   -0.07025      0.99949     2.06295    0.00781     3.07025
      C    6   -0.03525      0.99952     2.02681    0.00892     3.03525
      C    7   -0.06701      0.99947     2.05969    0.00784     3.06701
      C    8   -0.03425      0.99944     2.02498    0.00984     3.03425
      C    9    0.07319      0.99939     1.91680    0.01063     2.92681
      C   10    0.35535      0.99966     1.62329    0.02170     2.64465
      O   11   -0.28061      0.99987     3.27322    0.00752     4.28061
      N   12   -0.34555      0.99966     2.83424    0.01165     3.84555
      C   13    0.43946      0.99975     1.53886    0.02194     2.56054
      O   14   -0.33196      0.99988     3.32254    0.00954     4.33196
      N   15   -0.32732      0.99967     2.81720    0.01046     3.82732
      C   16   -0.28710      0.99964     2.28287    0.00459     3.28710
      H   17    0.09428      0.00000     0.40467    0.00104     0.40572
      H   18    0.09524      0.00000     0.40371    0.00105     0.40476
      H   19    0.10329      0.00000     0.39586    0.00085     0.39671
      H   20    0.08407      0.00000     0.41458    0.00135     0.41593
      H   21    0.08632      0.00000     0.41223    0.00145     0.41368
      H   22    0.12004      0.00000     0.37848    0.00148     0.37996
      H   23    0.07870      0.00000     0.41882    0.00248     0.42130
      H   24    0.19704      0.00000     0.30020    0.00276     0.30296
      H   25    0.19401      0.00000     0.30318    0.00280     0.30599
      H   26    0.09603      0.00000     0.40292    0.00105     0.40397
      H   27    0.09604      0.00000     0.40292    0.00104     0.40396
      H   28    0.09627      0.00000     0.40286    0.00087     0.40373
 =======================================================================
   * Total *    0.00101     15.99358    40.82549    0.17992    56.99899

 Normal termination of Gaussian 16 at Thu Dec 10 21:53:58 2020.
