 Gaussian 16, Revision A.03,

 -----------------------------------------------------------
 # opt freq B3LYP/6-31G(d) empiricaldispersion=gd3bj scf=xqc
 -----------------------------------------------------------

 ------------------------------
 CID_13209664_JID_9223_neutraal
 ------------------------------
 Symbolic Z-matrix:
 Charge =  0 Multiplicity = 1

 SCF Done:  E(RB3LYP) =  -1484.77356833     A.U. after   16 cycles
 SCF Done:  E(RB3LYP) =  -1484.77816865     A.U. after   13 cycles
 SCF Done:  E(RB3LYP) =  -1484.77903716     A.U. after   13 cycles
 SCF Done:  E(RB3LYP) =  -1484.77930120     A.U. after   13 cycles
 SCF Done:  E(RB3LYP) =  -1484.77946947     A.U. after   11 cycles
 SCF Done:  E(RB3LYP) =  -1484.77950365     A.U. after   11 cycles
 SCF Done:  E(RB3LYP) =  -1484.77950849     A.U. after    9 cycles
 SCF Done:  E(RB3LYP) =  -1484.77950963     A.U. after    8 cycles
 SCF Done:  E(RB3LYP) =  -1484.77950996     A.U. after    8 cycles
 SCF Done:  E(RB3LYP) =  -1484.77951005     A.U. after    7 cycles
 SCF Done:  E(RB3LYP) =  -1484.77951007     A.U. after    7 cycles
 Optimization completed.
    -- Stationary point found.
 Normal termination of Gaussian 16 at Thu Dec 17 20:07:35 2020.

 --------------------------------------------------------------------
 #N Geom=AllCheck Guess=TCheck SCRF=Check GenChk RB3LYP/6-31G(d) Freq
 --------------------------------------------------------------------

 Structure from the checkpoint file:  "JID_9223.chk"
 ------------------------------
 CID_13209664_JID_9223_neutraal
 ------------------------------
 Charge =  0 Multiplicity = 1

 SCF Done:  E(RB3LYP) =  -1484.77951007     A.U. after    1 cycles

  Exact polarizability: 277.533  -5.979 242.194   4.111  22.915 110.946
 Approx polarizability: 412.621 -13.952 401.894   5.001  52.874 195.239

                      1                      2                      3
                      A                      A                      A
 Frequencies --     37.6426                42.9885                44.0100
 Red. masses --      3.9357                 3.8919                 4.3158
 Frc consts  --      0.0033                 0.0042                 0.0049
 IR Inten    --      0.2616                 2.4618                 0.6585

                      4                      5                      6
                      A                      A                      A
 Frequencies --     62.6039                74.7398                88.1679
 Red. masses --      6.4544                 5.7920                 5.6013
 Frc consts  --      0.0149                 0.0191                 0.0257
 IR Inten    --      0.0546                 0.7503                 0.8053

                      7                      8                      9
                      A                      A                      A
 Frequencies --    109.0679               168.1419               184.2886
 Red. masses --      7.3789                 3.4304                 2.7430
 Frc consts  --      0.0517                 0.0571                 0.0549
 IR Inten    --      0.9441                 0.1216                 0.3436

                     10                     11                     12
                      A                      A                      A
 Frequencies --    212.6177               237.5120               248.1633
 Red. masses --      1.4812                 4.4262                 5.0128
 Frc consts  --      0.0395                 0.1471                 0.1819
 IR Inten    --      0.1117                 0.5529                 0.5107

                     13                     14                     15
                      A                      A                      A
 Frequencies --    272.5838               296.3747               341.7271
 Red. masses --      8.1869                 5.9923                 7.3868
 Frc consts  --      0.3584                 0.3101                 0.5082
 IR Inten    --      0.2537                 1.4098                 2.0582

                     16                     17                     18
                      A                      A                      A
 Frequencies --    378.0177               412.3937               418.1088
 Red. masses --      6.1761                 3.2174                 3.0731
 Frc consts  --      0.5200                 0.3224                 0.3165
 IR Inten    --      3.1532                 1.6065                 0.2616

                     19                     20                     21
                      A                      A                      A
 Frequencies --    431.3709               493.3359               515.9245
 Red. masses --     10.4422                 5.0303                 5.0760
 Frc consts  --      1.1448                 0.7213                 0.7961
 IR Inten    --      2.1434                 2.1939                 3.6349

                     22                     23                     24
                      A                      A                      A
 Frequencies --    568.0789               574.8056               630.1153
 Red. masses --      8.6880                 6.5202                 8.1654
 Frc consts  --      1.6519                 1.2693                 1.9101
 IR Inten    --      0.2611                 1.3876                 4.8707

                     25                     26                     27
                      A                      A                      A
 Frequencies --    636.1163               647.7361               703.6661
 Red. masses --      6.5229                10.7750                 7.3858
 Frc consts  --      1.5551                 2.6636                 2.1547
 IR Inten    --      0.7998                 2.4861                 3.7292

                     28                     29                     30
                      A                      A                      A
 Frequencies --    710.2653               713.0384               715.5649
 Red. masses --      5.1954                 2.2131                 6.3374
 Frc consts  --      1.5442                 0.6629                 1.9119
 IR Inten    --      5.1764                16.9922                13.2544

                     31                     32                     33
                      A                      A                      A
 Frequencies --    721.6814               730.9114               775.6578
 Red. masses --      5.3106                 2.1126                 1.9627
 Frc consts  --      1.6296                 0.6650                 0.6957
 IR Inten    --      4.1407                21.2609                34.7811

                     34                     35                     36
                      A                      A                      A
 Frequencies --    832.2513               859.1949               872.2133
 Red. masses --      1.7764                 1.2568                 6.2195
 Frc consts  --      0.7249                 0.5466                 2.7877
 IR Inten    --     11.7763                 0.6985                27.2982

                     37                     38                     39
                      A                      A                      A
 Frequencies --    932.7486               950.2121               970.9747
 Red. masses --      1.4494                 1.3226                 1.3495
 Frc consts  --      0.7429                 0.7036                 0.7496
 IR Inten    --      1.8731                 1.3335                 0.2888

                     40                     41                     42
                      A                      A                      A
 Frequencies --    975.4261               985.1946               995.1006
 Red. masses --      1.5228                 5.6335                 1.1868
 Frc consts  --      0.8536                 3.2216                 0.6924
 IR Inten    --      1.8707                 9.5499                 4.5222

                     43                     44                     45
                      A                      A                      A
 Frequencies --    996.6625               998.0233               998.7909
 Red. masses --      1.3782                 1.3227                 1.4382
 Frc consts  --      0.8066                 0.7763                 0.8453
 IR Inten    --      8.6538                 8.0008                16.5044

                     46                     47                     48
                      A                      A                      A
 Frequencies --   1021.0195              1043.4218              1063.8222
 Red. masses --      6.1150                 4.3515                 2.1636
 Frc consts  --      3.7559                 2.7913                 1.4427
 IR Inten    --      0.7368                 7.5777                 9.8890

                     49                     50                     51
                      A                      A                      A
 Frequencies --   1064.5404              1075.5396              1114.2803
 Red. masses --      4.6140                 2.8242                 1.6381
 Frc consts  --      3.0807                 1.9248                 1.1984
 IR Inten    --     37.4667                 9.8780                 3.2296

                     52                     53                     54
                      A                      A                      A
 Frequencies --   1145.5423              1166.2842              1195.4303
 Red. masses --      1.7306                 2.3973                 1.0963
 Frc consts  --      1.3381                 1.9212                 0.9231
 IR Inten    --      8.9547                 6.4903                 0.0280

                     55                     56                     57
                      A                      A                      A
 Frequencies --   1217.9810              1237.4112              1269.0956
 Red. masses --      1.1351                 1.5633                 4.3421
 Frc consts  --      0.9921                 1.4103                 4.1204
 IR Inten    --      0.5142                 7.8539                 9.4215

                     58                     59                     60
                      A                      A                      A
 Frequencies --   1308.6800              1335.8908              1358.8753
 Red. masses --      7.4655                 3.3036                 3.0510
 Frc consts  --      7.5332                 3.4736                 3.3193
 IR Inten    --      2.4638                 2.7112                18.0835

                     61                     62                     63
                      A                      A                      A
 Frequencies --   1369.4255              1388.5406              1394.8407
 Red. masses --      1.7006                 1.4173                 1.2300
 Frc consts  --      1.8790                 1.6100                 1.4100
 IR Inten    --      0.4275                 7.3973                 0.0329

                     64                     65                     66
                      A                      A                      A
 Frequencies --   1467.8992              1488.5730              1497.6769
 Red. masses --      2.6689                 2.6625                 1.0647
 Frc consts  --      3.3883                 3.4761                 1.4071
 IR Inten    --     22.5182                12.8006                14.3385

                     67                     68                     69
                      A                      A                      A
 Frequencies --   1500.0434              1511.8647              1519.5327
 Red. masses --      3.6775                 1.0714                 2.8747
 Frc consts  --      4.8754                 1.4429                 3.9108
 IR Inten    --     90.5719                57.0022                85.7613

                     70                     71                     72
                      A                      A                      A
 Frequencies --   1542.0284              1579.1910              1625.1985
 Red. masses --      2.3758                 5.9476                 5.2945
 Frc consts  --      3.3285                 8.7390                 8.2392
 IR Inten    --      9.7481                 4.5456                 8.6500

                     73                     74                     75
                      A                      A                      A
 Frequencies --   1635.5689              1649.2567              1662.4122
 Red. masses --      5.3896                 5.5804                 5.5379
 Frc consts  --      8.4946                 8.9432                 9.0173
 IR Inten    --      3.1883                 1.7888                 6.4207

                     76                     77                     78
                      A                      A                      A
 Frequencies --   3068.6131              3153.4780              3166.1082
 Red. masses --      1.0301                 1.1083                 1.1042
 Frc consts  --      5.7148                 6.4935                 6.5213
 IR Inten    --     11.0943                 5.0652                 4.0501

                     79                     80                     81
                      A                      A                      A
 Frequencies --   3174.0030              3186.4507              3193.9717
 Red. masses --      1.0887                 1.0853                 1.0880
 Frc consts  --      6.4619                 6.4926                 6.5395
 IR Inten    --     24.5537                 3.1618                 1.8977

                     82                     83                     84
                      A                      A                      A
 Frequencies --   3199.6507              3202.8445              3206.0539
 Red. masses --      1.0905                 1.0922                 1.0917
 Frc consts  --      6.5777                 6.6009                 6.6116
 IR Inten    --     19.9869                20.3979                20.4314

                     85                     86                     87
                      A                      A                      A
 Frequencies --   3212.2474              3220.4986              3226.0278
 Red. masses --      1.0951                 1.0960                 1.0946
 Frc consts  --      6.6579                 6.6973                 6.7119
 IR Inten    --     29.7054                 8.6424                 6.0600

 - Thermochemistry -
 -------------------
 Temperature   298.150 Kelvin.  Pressure   1.00000 Atm.
 Atom     1 has atomic number  6 and mass  12.00000

 Molecular mass:   284.04419 amu.
 Principal axes and moments of inertia in atomic units:
                           1         2         3
     Eigenvalues --  4705.079887092.69403**********
           X            0.99994   0.01061   0.00226
           Y           -0.01063   0.99991   0.00814
           Z           -0.00217  -0.00816   0.99996
 This molecule is an asymmetric top.
 Rotational symmetry number  1.
 Warning -- assumption of classical behavior for rotation
           may cause significant error
 Rotational temperatures (Kelvin)      0.01841     0.01221     0.00771
 Rotational constants (GHZ):           0.38357     0.25445     0.16058
 Zero-point vibrational energy     617416.8 (Joules/Mol)
                                  147.56615 (Kcal/Mol)
 Warning -- explicit consideration of  23 degrees of freedom as
           vibrations may cause significant error
 Vibrational temperatures:     54.16    61.85    63.32    90.07   107.53
          (Kelvin)            126.85   156.92   241.92   265.15   305.91
                              341.73   357.05   392.19   426.42   491.67
                              543.88   593.34   601.57   620.65   709.80
                              742.30   817.34   827.02   906.60   915.23
                              931.95  1012.42  1021.91  1025.90  1029.54
                             1038.34  1051.62  1116.00  1197.42  1236.19
                             1254.92  1342.02  1367.14  1397.02  1403.42
                             1417.48  1431.73  1433.98  1435.93  1437.04
                             1469.02  1501.25  1530.60  1531.64  1547.46
                             1603.20  1648.18  1678.02  1719.96  1752.40
                             1780.36  1825.95  1882.90  1922.05  1955.12
                             1970.30  1997.80  2006.86  2111.98  2141.72
                             2154.82  2158.23  2175.24  2186.27  2218.63
                             2272.10  2338.30  2353.22  2372.91  2391.84
                             4415.05  4537.15  4555.32  4566.68  4584.59
                             4595.41  4603.58  4608.18  4612.80  4621.71
                             4633.58  4641.53

 Zero-point correction=                           0.235162 (Hartree/Particle)
 Thermal correction to Energy=                    0.251674
 Thermal correction to Enthalpy=                  0.252618
 Thermal correction to Gibbs Free Energy=         0.188902
 Sum of electronic and zero-point Energies=          -1484.544348
 Sum of electronic and thermal Energies=             -1484.527836
 Sum of electronic and thermal Enthalpies=           -1484.526892
 Sum of electronic and thermal Free Energies=        -1484.590608

                     E (Thermal)             CV                S
                      KCal/Mol        Cal/Mol-Kelvin    Cal/Mol-Kelvin
 Total                  157.928             62.559            134.101
 Electronic               0.000              0.000              0.000
 Translational            0.889              2.981             42.830
 Rotational               0.889              2.981             34.283
 Vibrational            156.150             56.598             56.988
 Vibration     1          0.594              1.982              5.379
 Vibration     2          0.595              1.980              5.116
 Vibration     3          0.595              1.980              5.070
 Vibration     4          0.597              1.972              4.373
 Vibration     5          0.599              1.966              4.024
 Vibration     6          0.601              1.957              3.700
 Vibration     7          0.606              1.942              3.285
 Vibration     8          0.625              1.882              2.456
 Vibration     9          0.631              1.861              2.285
 Vibration    10          0.644              1.822              2.021
 Vibration    11          0.656              1.783              1.821
 Vibration    12          0.662              1.766              1.744
 Vibration    13          0.676              1.724              1.580
 Vibration    14          0.690              1.680              1.437
 Vibration    15          0.721              1.592              1.204
 Vibration    16          0.748              1.517              1.047
 Vibration    17          0.776              1.443              0.918
 Vibration    18          0.781              1.431              0.898
 Vibration    19          0.792              1.402              0.854
 Vibration    20          0.849              1.265              0.675
 Vibration    21          0.871              1.215              0.619
 Vibration    22          0.924              1.100              0.508
 Vibration    23          0.931              1.086              0.495

                           ! Non-Optimized Parameters !
 Normal termination of Gaussian 16 at Thu Dec 17 20:22:13 2020.

 ----------------------------------------------------------------------
 # B3LYP/6-311++G(d,p) empiricaldispersion=gd3bj scf=xqc pop=npa geom=c
 heck
 ----------------------------------------------------------------------

 --------------------------------------
 CID_13209664_JID_9223_Energie_neutraal
 --------------------------------------
 Structure from the checkpoint file:  "JID_9223.chk"
 Charge =  0 Multiplicity = 1

 SCF Done:  E(RB3LYP) =  -1485.00337905     A.U. after   18 cycles
 Normal termination of Gaussian 16 at Thu Dec 17 20:29:55 2020.

 ----------------------------------------------------------------------
 # B3LYP/6-311++G(d,p) empiricaldispersion=gd3bj scf=xqc pop=npa geom=c
 heck
 ----------------------------------------------------------------------

 ------------------------------------
 CID_13209664_JID_9223_Energie_kation
 ------------------------------------
 Structure from the checkpoint file:  "JID_9223.chk"
 Charge =  1 Multiplicity = 2

 SCF Done:  E(UB3LYP) =  -1484.73372802     A.U. after   27 cycles
 Normal termination of Gaussian 16 at Thu Dec 17 20:45:46 2020.
 Gaussian 16:  ES64L-G16RevA.03 25-Dec-2016

 ----------------------------------------------------------------------
 # B3LYP/6-311++G(d,p) empiricaldispersion=gd3bj scf=xqc pop=npa geom=c
 heck
 ----------------------------------------------------------------------

 -----------------------------------
 CID_13209664_JID_9223_Energie_anion
 -----------------------------------
 Structure from the checkpoint file:  "JID_9223.chk"
 Charge = -1 Multiplicity = 2

                         Standard orientation:
 ---------------------------------------------------------------------
 Center     Atomic      Atomic             Coordinates (Angstroms)
 Number     Number       Type             X           Y           Z
 ---------------------------------------------------------------------
      1          6           0       -4.923161   -0.834539    0.089859
      2         16           0       -4.137579    0.809096   -0.006174
      3          6           0       -2.432084    0.375196   -0.001959
      4          7           0       -1.506818    1.286331   -0.004669
      5          6           0       -0.237311    0.735801   -0.035186
      6          6           0       -0.189823   -0.643750   -0.027047
      7         16           0       -1.826970   -1.281603   -0.019783
      8          6           0        0.951037   -1.566209    0.064046
      9          6           0        1.028424   -2.701370   -0.758032
     10          6           0        2.106810   -3.578464   -0.656161
     11          6           0        3.125882   -3.332911    0.264408
     12          6           0        3.055504   -2.208584    1.090372
     13          6           0        1.974646   -1.336937    0.998941
     14          6           0        0.905057    1.665202   -0.095264
     15          6           0        2.093170    1.357640   -0.779004
     16          7           0        3.143123    2.178056   -0.860132
     17          6           0        3.043587    3.371092   -0.259092
     18          6           0        1.901098    3.795240    0.419639
     19          6           0        0.813965    2.931158    0.498300
     20          1           0       -5.999918   -0.651218    0.104610
     21          1           0       -4.637027   -1.358070    1.005672
     22          1           0       -4.678484   -1.442913   -0.784900
     23          1           0        0.246525   -2.883332   -1.489917
     24          1           0        2.153814   -4.449775   -1.303063
     25          1           0        3.968896   -4.013450    0.340041
     26          1           0        3.841151   -2.014359    1.814741
     27          1           0        1.913518   -0.471154    1.649741
     28          1           0        2.191460    0.405932   -1.293630
     29          1           0        3.915125    4.018854   -0.334311
     30          1           0        1.865518    4.780889    0.873670
     31          1           0       -0.102731    3.216605    1.003347
 ---------------------------------------------------------------------

 SCF Done:  E(UB3LYP) =  -1485.01751106     A.U. after   32 cycles

 The electronic state is 2-A.
 Alpha  occ. eigenvalues --  -88.75667 -88.74635 -14.18388 -14.18146 -10.12344
 Alpha  occ. eigenvalues --  -10.11071 -10.07152 -10.07087 -10.06819 -10.05934
 Alpha  occ. eigenvalues --  -10.05759 -10.05688 -10.05674 -10.05502 -10.05483
 Alpha  occ. eigenvalues --  -10.05444 -10.04946 -10.04790 -10.04767  -7.84254
 Alpha  occ. eigenvalues --   -7.83292  -5.80654  -5.80274  -5.79629  -5.79600
 Alpha  occ. eigenvalues --   -5.79228  -5.78879  -0.83797  -0.81298  -0.73894
 Alpha  occ. eigenvalues --   -0.70832  -0.68079  -0.67813  -0.64767  -0.62688
 Alpha  occ. eigenvalues --   -0.62320  -0.59978  -0.55305  -0.51347  -0.50161
 Alpha  occ. eigenvalues --   -0.48660  -0.48221  -0.44154  -0.41421  -0.40554
 Alpha  occ. eigenvalues --   -0.38504  -0.36371  -0.35201  -0.34676  -0.34411
 Alpha  occ. eigenvalues --   -0.33718  -0.33054  -0.31673  -0.30513  -0.29783
 Alpha  occ. eigenvalues --   -0.29168  -0.28796  -0.27520  -0.27183  -0.25840
 Alpha  occ. eigenvalues --   -0.25402  -0.24332  -0.23028  -0.22450  -0.21978
 Alpha  occ. eigenvalues --   -0.18772  -0.17131  -0.15935  -0.15223  -0.13941
 Alpha  occ. eigenvalues --   -0.13709  -0.13283  -0.13076  -0.08435   0.03495
 Alpha virt. eigenvalues --    0.06393   0.08031   0.08471   0.08728   0.09358
 Alpha virt. eigenvalues --    0.09730   0.09965   0.10396   0.10470   0.10711
 Alpha virt. eigenvalues --    0.10905   0.11332   0.11638   0.12106   0.12845

  Beta  occ. eigenvalues --  -88.75662 -88.74580 -14.18467 -14.18185 -10.12130
  Beta  occ. eigenvalues --  -10.11065 -10.07083 -10.06891 -10.06693 -10.05729
  Beta  occ. eigenvalues --  -10.05707 -10.05676 -10.05608 -10.05518 -10.05415
  Beta  occ. eigenvalues --  -10.05363 -10.04841 -10.04675 -10.04587  -7.84249
  Beta  occ. eigenvalues --   -7.83241  -5.80654  -5.80276  -5.79609  -5.79566
  Beta  occ. eigenvalues --   -5.79202  -5.78710  -0.83638  -0.81192  -0.73643
  Beta  occ. eigenvalues --   -0.70701  -0.67918  -0.67435  -0.64536  -0.62521
  Beta  occ. eigenvalues --   -0.62052  -0.59736  -0.55085  -0.51004  -0.49934
  Beta  occ. eigenvalues --   -0.48568  -0.47962  -0.43904  -0.41231  -0.40442
  Beta  occ. eigenvalues --   -0.38361  -0.36196  -0.35044  -0.34620  -0.34322
  Beta  occ. eigenvalues --   -0.33593  -0.32865  -0.31587  -0.30453  -0.29623
  Beta  occ. eigenvalues --   -0.28926  -0.28318  -0.27405  -0.26776  -0.25586
  Beta  occ. eigenvalues --   -0.24969  -0.24189  -0.22885  -0.22311  -0.21715
  Beta  occ. eigenvalues --   -0.17970  -0.16403  -0.15639  -0.15012  -0.13530
  Beta  occ. eigenvalues --   -0.13365  -0.12844  -0.12601  -0.07231
  Beta virt. eigenvalues --    0.06330   0.07993   0.08126   0.08452   0.09048
  Beta virt. eigenvalues --    0.09330   0.09905   0.10373   0.10462   0.10811
  Beta virt. eigenvalues --    0.10941   0.11119   0.11565   0.12024   0.12248

 Mulliken charges and spin densities:
               1          2
     1  C   -0.633441  -0.046195
     2  S   -0.347874   0.041223
     3  C    0.345136   0.090099
     4  N    0.244751  -0.045937
     5  C   -1.741690   0.072137
     6  C    1.567249   0.122562
     7  S   -0.561074   0.130619
     8  C    1.075995   0.050399
     9  C   -0.300115   0.101423
    10  C   -0.342780  -0.024051
    11  C   -0.406022   0.153306
    12  C   -0.282008  -0.018535
    13  C   -0.497728   0.073932
    14  C    0.689146   0.031861
    15  C   -1.327596   0.063504
    16  N    0.012699  -0.025095
    17  C   -0.222129   0.139496
    18  C   -0.479908  -0.015737
    19  C    0.400059   0.079635
    20  H    0.124037   0.026348
    21  H    0.175193  -0.000992
    22  H    0.151185   0.029335
    23  H    0.130656   0.001661
    24  H    0.133689   0.002264
    25  H    0.100246  -0.012722
    26  H    0.147290   0.002032
    27  H    0.160995  -0.004277
    28  H    0.222463  -0.005761
    29  H    0.135865  -0.011717
    30  H    0.128033   0.001852
    31  H    0.197681  -0.002671
 Sum of Mulliken charges =  -1.00000   1.00000

 Dipole moment (field-independent basis, Debye):
    X=             -3.7880    Y=             -1.8984    Z=              1.3748  Tot=              4.4545
 Quadrupole moment (field-independent basis, Debye-Ang):
   XX=           -162.5858   YY=           -155.3260   ZZ=           -136.4728
   XY=              3.6427   XZ=              4.0457   YZ=              6.7409

 Summary of Natural Population Analysis:

                                       Natural Population
                Natural  -----------------------------------------------
    Atom  No    Charge         Core      Valence    Rydberg      Total
 -----------------------------------------------------------------------
      C    1   -0.35666      0.99962     2.35175    0.00530     3.35666
      S    2    0.13716      4.99947     2.84046    0.02290     7.86284
      C    3   -0.03166      0.99960     2.01457    0.01749     3.03166
      N    4   -0.26894      0.99961     2.75720    0.01213     3.76894
      C    5    0.07365      0.99942     1.91177    0.01516     2.92635
      C    6   -0.04328      0.99942     2.03172    0.01215     3.04328
      S    7    0.19212      4.99938     2.78862    0.01988     7.80788
      C    8   -0.02863      0.99949     2.01811    0.01103     3.02863
      C    9   -0.07712      0.99953     2.06942    0.00818     3.07712
      C   10   -0.11761      0.99957     2.10870    0.00933     3.11761
      C   11   -0.07467      0.99957     2.06550    0.00960     3.07467
      C   12   -0.11411      0.99957     2.10533    0.00920     3.11411
      C   13   -0.06956      0.99953     2.06220    0.00783     3.06956
      C   14   -0.03575      0.99948     2.02762    0.00864     3.03575
      C   15    0.04951      0.99955     1.93740    0.01354     2.95049
      N   16   -0.24606      0.99972     2.73433    0.01202     3.74606
      C   17    0.04715      0.99960     1.93802    0.01522     2.95285
      C   18   -0.13944      0.99957     2.13135    0.00852     3.13944
      C   19   -0.05770      0.99954     2.04979    0.00838     3.05770
      H   20    0.10290      0.00000     0.39555    0.00155     0.39710
      H   21    0.10466      0.00000     0.39397    0.00138     0.39534
      H   22    0.10469      0.00000     0.39328    0.00203     0.39531
      H   23    0.09753      0.00000     0.40144    0.00103     0.40247
      H   24    0.09288      0.00000     0.40610    0.00101     0.40712
      H   25    0.08998      0.00000     0.40901    0.00101     0.41002
      H   26    0.09439      0.00000     0.40459    0.00102     0.40561
      H   27    0.10233      0.00000     0.39647    0.00121     0.39767
      H   28    0.09431      0.00000     0.40419    0.00150     0.40569
      H   29    0.07875      0.00000     0.41998    0.00127     0.42125
      H   30    0.09466      0.00000     0.40415    0.00119     0.40534
      H   31    0.10453      0.00000     0.39441    0.00107     0.39547
 =======================================================================
   * Total *   -0.00000     26.99124    46.76699    0.24177    74.00000

 Normal termination of Gaussian 16 at Thu Dec 17 21:04:52 2020.
