 Gaussian 16, Revision A.03,

 -----------------------------------------------------------
 # opt freq B3LYP/6-31G(d) empiricaldispersion=gd3bj scf=xqc
 -----------------------------------------------------------

 ------------------------------
 CID_140089862_JID_916_neutraal
 ------------------------------
 Symbolic Z-matrix:
 Charge =  0 Multiplicity = 1

 SCF Done:  E(RB3LYP) =  -500.854198838     A.U. after   13 cycles
 SCF Done:  E(RB3LYP) =  -500.858764440     A.U. after   11 cycles
 SCF Done:  E(RB3LYP) =  -500.859250835     A.U. after   10 cycles
 SCF Done:  E(RB3LYP) =  -500.859361205     A.U. after   10 cycles
 SCF Done:  E(RB3LYP) =  -500.859423520     A.U. after   10 cycles
 SCF Done:  E(RB3LYP) =  -500.859457803     A.U. after   10 cycles
 SCF Done:  E(RB3LYP) =  -500.859497408     A.U. after   10 cycles
 SCF Done:  E(RB3LYP) =  -500.859506795     A.U. after    9 cycles
 SCF Done:  E(RB3LYP) =  -500.859507714     A.U. after    7 cycles
 SCF Done:  E(RB3LYP) =  -500.859508162     A.U. after    9 cycles
 SCF Done:  E(RB3LYP) =  -500.859508297     A.U. after    7 cycles
 SCF Done:  E(RB3LYP) =  -500.859508332     A.U. after    6 cycles
 Optimization completed.
    -- Stationary point found.

 1\1\GINC-NODE207\FOpt\RB3LYP\6-31G(d)\C7H14O3\VSC10255\08-Dec-2020\0\\
 # opt freq B3LYP/6-31G(d) empiricaldispersion=gd3bj scf=xqc\\CID_14008
 9862_JID_916_neutraal\\0,1\C,1.1710218157,-0.1391269889,0.0562745281\C
 ,0.6786154263,-1.0047891961,-1.1049337268\C,1.4667258669,-2.2994464365
 ,-1.3255024275\C,1.4335549506,-3.2975352005,-0.1607871787\O,2.69353149
 87,-3.9565181962,-0.2640502523\C,3.6160478989,-2.9812798583,-0.7203908
 598\O,2.8698704131,-1.9999573474,-1.4405386841\C,4.379097284,-2.324087
 0709,0.4189995648\C,1.0467602921,-2.9906108277,-2.6276606718\O,-0.3436

 Normal termination of Gaussian 16 at Tue Dec  8 13:42:12 2020.

 --------------------------------------------------------------------
 #N Geom=AllCheck Guess=TCheck SCRF=Check GenChk RB3LYP/6-31G(d) Freq
 --------------------------------------------------------------------

 Structure from the checkpoint file:  "JID_916.chk"
 ------------------------------
 CID_140089862_JID_916_neutraal
 ------------------------------
 Charge =  0 Multiplicity = 1

 SCF Done:  E(RB3LYP) =  -500.859508332     A.U. after    1 cycles

  Exact polarizability:  90.930  -0.228  80.578  -2.140   2.209  71.429
 Approx polarizability: 114.126  -2.387 107.530  -4.911   0.990 108.493

                      1                      2                      3
                      A                      A                      A
 Frequencies --     55.8943                91.8241               113.2740
 Red. masses --      2.8379                 1.9616                 4.6378
 Frc consts  --      0.0052                 0.0097                 0.0351
 IR Inten    --      0.6958                 0.5402                 0.6757

                      4                      5                      6
                      A                      A                      A
 Frequencies --    150.2612               209.3323               227.3719
 Red. masses --      3.4344                 1.7107                 1.1466
 Frc consts  --      0.0457                 0.0442                 0.0349
 IR Inten    --      6.1594                16.1150                73.5923

                      7                      8                      9
                      A                      A                      A
 Frequencies --    241.5645               253.7695               273.3650
 Red. masses --      1.7253                 1.1224                 2.2492
 Frc consts  --      0.0593                 0.0426                 0.0990
 IR Inten    --     26.8681                 3.7142                 5.8930

                     10                     11                     12
                      A                      A                      A
 Frequencies --    314.4020               330.1272               388.0188
 Red. masses --      2.4669                 3.6304                 2.1710
 Frc consts  --      0.1437                 0.2331                 0.1926
 IR Inten    --      0.8961                 2.6315                 1.0303

                     13                     14                     15
                      A                      A                      A
 Frequencies --    438.2376               502.9219               562.7557
 Red. masses --      3.3253                 3.4509                 2.9365
 Frc consts  --      0.3763                 0.5143                 0.5479
 IR Inten    --      3.3355                13.2968                 2.7321

                     16                     17                     18
                      A                      A                      A
 Frequencies --    604.5862               744.4509               784.0763
 Red. masses --      3.6480                 4.0441                 1.3106
 Frc consts  --      0.7856                 1.3205                 0.4747
 IR Inten    --      4.1952                 3.3318                 2.9330

                     19                     20                     21
                      A                      A                      A
 Frequencies --    800.8723               854.6021               917.3178
 Red. masses --      3.5225                 2.7225                 2.2074
 Frc consts  --      1.3311                 1.1715                 1.0944
 IR Inten    --     12.3489                 5.5262                34.6012

                     22                     23                     24
                      A                      A                      A
 Frequencies --    939.6116               962.7589               998.4714
 Red. masses --      1.9454                 2.1859                 1.8909
 Frc consts  --      1.0119                 1.1937                 1.1107
 IR Inten    --      2.2435                11.0629                45.5812

                     25                     26                     27
                      A                      A                      A
 Frequencies --   1037.2413              1050.7214              1081.8716
 Red. masses --      3.3730                 1.6107                 5.7635
 Frc consts  --      2.1381                 1.0477                 3.9745
 IR Inten    --      7.4252                10.1259                60.9370

                     28                     29                     30
                      A                      A                      A
 Frequencies --   1086.5971              1100.6100              1143.9319
 Red. masses --      2.2734                 2.0123                 2.6768
 Frc consts  --      1.5815                 1.4362                 2.0638
 IR Inten    --      7.5231                66.4370                78.0324

                     31                     32                     33
                      A                      A                      A
 Frequencies --   1155.2230              1175.9049              1198.9469
 Red. masses --      1.8160                 2.6321                 2.2451
 Frc consts  --      1.4279                 2.1443                 1.9014
 IR Inten    --     11.8062               202.9534                22.1068

                     34                     35                     36
                      A                      A                      A
 Frequencies --   1221.3212              1256.9727              1279.5177
 Red. masses --      1.4760                 1.2174                 1.4882
 Frc consts  --      1.2972                 1.1333                 1.4355
 IR Inten    --     14.4344                 6.1510                27.4612

                     37                     38                     39
                      A                      A                      A
 Frequencies --   1294.5707              1333.7080              1378.0984
 Red. masses --      1.3259                 1.2262                 1.4556
 Frc consts  --      1.3093                 1.2851                 1.6288
 IR Inten    --      6.2986                 3.5320                12.0170

                     40                     41                     42
                      A                      A                      A
 Frequencies --   1399.8071              1407.2899              1416.0524
 Red. masses --      1.5861                 1.4777                 1.2298
 Frc consts  --      1.8311                 1.7242                 1.4529
 IR Inten    --      6.8008                 1.3164                 6.8276

                     43                     44                     45
                      A                      A                      A
 Frequencies --   1436.7468              1442.0290              1466.8229
 Red. masses --      1.2830                 1.3371                 1.4944
 Frc consts  --      1.5603                 1.6382                 1.8944
 IR Inten    --      9.0619                39.5228                 3.3041

                     46                     47                     48
                      A                      A                      A
 Frequencies --   1512.8021              1515.1660              1518.4519
 Red. masses --      1.0617                 1.0649                 1.0523
 Frc consts  --      1.4316                 1.4404                 1.4295
 IR Inten    --      0.3829                 3.6310                 3.1871

                     49                     50                     51
                      A                      A                      A
 Frequencies --   1528.5508              1541.5292              1546.9955
 Red. masses --      1.0468                 1.0598                 1.0811
 Frc consts  --      1.4410                 1.4838                 1.5244
 IR Inten    --      3.9646                 7.4540                 8.4569

                     52                     53                     54
                      A                      A                      A
 Frequencies --   1551.5453              3012.0119              3045.6296
 Red. masses --      1.0851                 1.0552                 1.0666
 Frc consts  --      1.5391                 5.6403                 5.8292
 IR Inten    --      5.1156                41.3359                42.6873

                     55                     56                     57
                      A                      A                      A
 Frequencies --   3049.0159              3050.8925              3054.4012
 Red. masses --      1.0850                 1.0815                 1.0925
 Frc consts  --      5.9431                 5.9312                 6.0051
 IR Inten    --     13.4949                42.3827                67.1655

                     58                     59                     60
                      A                      A                      A
 Frequencies --   3059.4338              3063.1424              3098.3306
 Red. masses --      1.0390                 1.0378                 1.0964
 Frc consts  --      5.7300                 5.7374                 6.2010
 IR Inten    --     29.0532                22.8823                 6.1362

                     61                     62                     63
                      A                      A                      A
 Frequencies --   3117.5487              3137.0409              3141.0947
 Red. masses --      1.1014                 1.1032                 1.1019
 Frc consts  --      6.3070                 6.3963                 6.4055
 IR Inten    --     48.6233                19.1961                58.6440

                     64                     65                     66
                      A                      A                      A
 Frequencies --   3143.5161              3148.5844              3764.9728
 Red. masses --      1.1021                 1.0976                 1.0667
 Frc consts  --      6.4163                 6.4112                 8.9085
 IR Inten    --      4.1343                13.9702                19.7263

 - Thermochemistry -
 -------------------
 Temperature   298.150 Kelvin.  Pressure   1.00000 Atm.
 Atom     1 has atomic number  6 and mass  12.00000

 Molecular mass:   146.09429 amu.
 Principal axes and moments of inertia in atomic units:
                           1         2         3
     Eigenvalues --   996.072291588.634902098.05402
           X            0.99982   0.01813   0.00462
           Y           -0.01827   0.99932   0.03210
           Z           -0.00404  -0.03218   0.99947
 This molecule is an asymmetric top.
 Rotational symmetry number  1.
 Warning -- assumption of classical behavior for rotation
           may cause significant error
 Rotational temperatures (Kelvin)      0.08696     0.05452     0.04128
 Rotational constants (GHZ):           1.81186     1.13603     0.86020
 Zero-point vibrational energy     554615.7 (Joules/Mol)
                                  132.55634 (Kcal/Mol)
 Warning -- explicit consideration of  16 degrees of freedom as
           vibrations may cause significant error
 Vibrational temperatures:     80.42   132.11   162.98   216.19   301.18
          (Kelvin)            327.14   347.56   365.12   393.31   452.35
                              474.98   558.27   630.53   723.59   809.68
                              869.86  1071.10  1128.11  1152.28  1229.58
                             1319.82  1351.89  1385.20  1436.58  1492.36
                             1511.75  1556.57  1563.37  1583.53  1645.86
                             1662.11  1691.86  1725.02  1757.21  1808.50
                             1840.94  1862.60  1918.91  1982.78  2014.01
                             2024.78  2037.38  2067.16  2074.76  2110.43
                             2176.58  2179.99  2184.71  2199.24  2217.92
                             2225.78  2232.33  4333.61  4381.98  4386.85
                             4389.55  4394.60  4401.84  4407.18  4457.81
                             4485.46  4513.50  4519.33  4522.82  4530.11
                             5416.96

 Zero-point correction=                           0.211242 (Hartree/Particle)
 Thermal correction to Energy=                    0.222297
 Thermal correction to Enthalpy=                  0.223241
 Thermal correction to Gibbs Free Energy=         0.174878
 Sum of electronic and zero-point Energies=           -500.648266
 Sum of electronic and thermal Energies=              -500.637212
 Sum of electronic and thermal Enthalpies=            -500.636268
 Sum of electronic and thermal Free Energies=         -500.684630

                     E (Thermal)             CV                S
                      KCal/Mol        Cal/Mol-Kelvin    Cal/Mol-Kelvin
 Total                  139.493             40.903            101.787
 Electronic               0.000              0.000              0.000
 Translational            0.889              2.981             40.848
 Rotational               0.889              2.981             29.586
 Vibrational            137.716             34.942             31.353
 Vibration     1          0.596              1.975              4.597
 Vibration     2          0.602              1.955              3.621
 Vibration     3          0.607              1.938              3.212
 Vibration     4          0.618              1.902              2.669
 Vibration     5          0.642              1.827              2.049
 Vibration     6          0.651              1.799              1.900
 Vibration     7          0.658              1.777              1.791
 Vibration     8          0.665              1.756              1.704
 Vibration     9          0.676              1.722              1.575
 Vibration    10          0.702              1.646              1.339
 Vibration    11          0.713              1.615              1.259
 Vibration    12          0.756              1.496              1.008
 Vibration    13          0.798              1.387              0.832
 Vibration    14          0.858              1.244              0.651
 Vibration    15          0.918              1.112              0.518
 Vibration    16          0.963              1.022              0.442

 Optimization completed.
    -- Stationary point found.

 1\1\GINC-NODE207\Freq\RB3LYP\6-31G(d)\C7H14O3\VSC10255\08-Dec-2020\0\\
 #N Geom=AllCheck Guess=TCheck SCRF=Check GenChk RB3LYP/6-31G(d) Freq\\
 CID_140089862_JID_916_neutraal\\0,1\C,1.1710218157,-0.1391269889,0.056
 2745281\C,0.6786154263,-1.0047891961,-1.1049337268\C,1.4667258669,-2.2
 994464365,-1.3255024275\C,1.4335549506,-3.2975352005,-0.1607871787\O,2
 .6935314987,-3.9565181962,-0.2640502523\C,3.6160478989,-2.9812798583,-
 0.7203908598\O,2.8698704131,-1.9999573474,-1.4405386841\C,4.379097284,
 -2.3240870709,0.4189995648\C,1.0467602921,-2.9906108277,-2.6276606718\

 Normal termination of Gaussian 16 at Tue Dec  8 13:48:25 2020.

 ----------------------------------------------------------------------
 # B3LYP/6-311++G(d,p) empiricaldispersion=gd3bj scf=xqc pop=npa geom=c
 heck
 ----------------------------------------------------------------------

 --------------------------------------
 CID_140089862_JID_916_Energie_neutraal
 --------------------------------------
 Structure from the checkpoint file:  "JID_916.chk"
 Charge =  0 Multiplicity = 1

 SCF Done:  E(RB3LYP) =  -501.016438459     A.U. after   13 cycles
 Normal termination of Gaussian 16 at Tue Dec  8 13:53:53 2020.

 ----------------------------------------------------------------------
 # B3LYP/6-311++G(d,p) empiricaldispersion=gd3bj scf=xqc pop=npa geom=c
 heck
 ----------------------------------------------------------------------

 ------------------------------------
 CID_140089862_JID_916_Energie_kation
 ------------------------------------
 Structure from the checkpoint file:  "JID_916.chk"
 Charge =  1 Multiplicity = 2

 SCF Done:  E(UB3LYP) =  -500.678712217     A.U. after   22 cycles
 Normal termination of Gaussian 16 at Tue Dec  8 14:02:37 2020.
 Gaussian 16:  ES64L-G16RevA.03 25-Dec-2016

 -----------------------------------
 CID_140089862_JID_916_Energie_anion
 -----------------------------------
 Structure from the checkpoint file:  "JID_916.chk"
 Charge = -1 Multiplicity = 2

                         Standard orientation:
 ---------------------------------------------------------------------
 Center     Atomic      Atomic             Coordinates (Angstroms)
 Number     Number       Type             X           Y           Z
 ---------------------------------------------------------------------
      1          6           0       -0.041181    2.575494    0.234952
      2          6           0       -1.083711    1.504214   -0.090209
      3          6           0       -0.547841    0.069761   -0.123271
      4          6           0        0.025921   -0.449931    1.201327
      5          8           0        1.032710   -1.366994    0.779622
      6          6           0        1.587852   -0.829031   -0.408985
      7          8           0        0.586813   -0.004320   -1.005776
      8          6           0        2.845959   -0.015955   -0.147386
      9          6           0       -1.601000   -0.904526   -0.663009
     10          8           0       -2.741714   -0.844168    0.188461
     11          1           0        0.366735    2.464753    1.245792
     12          1           0       -0.489453    3.572773    0.172762
     13          1           0        0.791537    2.528365   -0.472212
     14          1           0       -1.913561    1.534463    0.624376
     15          1           0       -1.519568    1.716171   -1.074869
     16          1           0       -0.713184   -0.994402    1.791339
     17          1           0        0.454058    0.356734    1.810081
     18          1           0        1.799911   -1.676121   -1.073631
     19          1           0        3.626607   -0.656416    0.275406
     20          1           0        3.212452    0.419567   -1.082509
     21          1           0        2.634237    0.796756    0.554170
     22          1           0       -1.846577   -0.615672   -1.695634
     23          1           0       -1.164974   -1.913660   -0.680184
     24          1           0       -3.376684   -1.509606   -0.113850
 ---------------------------------------------------------------------

 SCF Done:  E(UB3LYP) =  -500.999249848     A.U. after   32 cycles

 The electronic state is 2-A.
 Alpha  occ. eigenvalues --  -19.02979 -19.02401 -19.01048 -10.16823 -10.12474
 Alpha  occ. eigenvalues --  -10.11234 -10.10115 -10.06248 -10.06244 -10.05545
 Alpha  occ. eigenvalues --   -0.98924  -0.91160  -0.89450  -0.70921  -0.65200
 Alpha  occ. eigenvalues --   -0.61356  -0.58061  -0.52787  -0.50565  -0.46740
 Alpha  occ. eigenvalues --   -0.41152  -0.40482  -0.39785  -0.35167  -0.34220
 Alpha  occ. eigenvalues --   -0.33939  -0.33107  -0.32286  -0.29685  -0.29576
 Alpha  occ. eigenvalues --   -0.28048  -0.27039  -0.25906  -0.24756  -0.23843
 Alpha  occ. eigenvalues --   -0.23114  -0.22212  -0.17091  -0.16586  -0.15624
 Alpha  occ. eigenvalues --    0.04911
 Alpha virt. eigenvalues --    0.06657   0.07508   0.08658   0.09596   0.10284
 Alpha virt. eigenvalues --    0.10421   0.10797   0.11566   0.12933   0.13290
 Alpha virt. eigenvalues --    0.13756   0.14434   0.14837   0.15688   0.16509

  Beta  occ. eigenvalues --  -19.02976 -19.02394 -19.00991 -10.16814 -10.12476
  Beta  occ. eigenvalues --  -10.11214 -10.10084 -10.06234 -10.06218 -10.05520
  Beta  occ. eigenvalues --   -0.98914  -0.91047  -0.89437  -0.70893  -0.65170
  Beta  occ. eigenvalues --   -0.61300  -0.57998  -0.52716  -0.50524  -0.46706
  Beta  occ. eigenvalues --   -0.41091  -0.40378  -0.39740  -0.35135  -0.34195
  Beta  occ. eigenvalues --   -0.33902  -0.33067  -0.32256  -0.29655  -0.29548
  Beta  occ. eigenvalues --   -0.28017  -0.27003  -0.25849  -0.24727  -0.23827
  Beta  occ. eigenvalues --   -0.23064  -0.22191  -0.17063  -0.16538  -0.15593
  Beta virt. eigenvalues --    0.07063   0.08093   0.08404   0.09223   0.10182
  Beta virt. eigenvalues --    0.10714   0.11046   0.11256   0.11829   0.13653
  Beta virt. eigenvalues --    0.13812   0.14070   0.14809   0.15176   0.15639

 Mulliken charges and spin densities:
               1          2
     1  C    0.297528  -0.887852
     2  C   -1.697110   1.476745
     3  C   -1.395021   1.117759
     4  C    0.965810  -1.322248
     5  O   -0.075913   0.021935
     6  C   -0.911404   0.657893
     7  O   -0.035411   0.023738
     8  C    1.415388  -1.785953
     9  C    3.099208  -3.120522
    10  O   -0.368108   0.118733
    11  H   -0.073196   0.198398
    12  H   -0.456412   0.607250
    13  H    0.019796   0.145369
    14  H    0.148906   0.011192
    15  H    0.014871   0.156555
    16  H   -0.024010   0.218799
    17  H   -0.037879   0.193956
    18  H   -0.312308   0.491828
    19  H   -0.077761   0.229609
    20  H   -0.141405   0.303253
    21  H   -0.149668   0.294051
    22  H   -0.277936   0.452866
    23  H   -0.532761   0.716636
    24  H   -0.395206   0.680009
 Sum of Mulliken charges =  -1.00000   1.00000

 Dipole moment (field-independent basis, Debye):
    X=              3.8022    Y=              1.9235    Z=              1.2295  Tot=              4.4349
 Quadrupole moment (field-independent basis, Debye-Ang):
   XX=           -120.8724   YY=           -108.0956   ZZ=            -91.5358
   XY=            -10.8792   XZ=             -2.4847   YZ=             -2.4169

 Summary of Natural Population Analysis:

                                       Natural Population
                Natural  -----------------------------------------------
    Atom  No    Charge         Core      Valence    Rydberg      Total
 -----------------------------------------------------------------------
      C    1   -0.28768      0.99966     2.28275    0.00527     3.28768
      C    2   -0.19826      0.99957     2.18994    0.00874     3.19826
      C    3    0.11579      0.99952     1.86504    0.01966     2.88421
      C    4   -0.02291      0.99950     2.01200    0.01141     3.02291
      O    5   -0.30104      0.99989     3.29296    0.00819     4.30104
      C    6    0.22273      0.99960     1.75735    0.02032     2.77727
      O    7   -0.31287      0.99987     3.30436    0.00864     4.31287
      C    8   -0.30218      0.99964     2.29728    0.00526     3.30218
      C    9   -0.01377      0.99951     1.99964    0.01462     3.01377
      O   10   -0.37650      0.99989     3.36970    0.00691     4.37650
      H   11    0.09391      0.00000     0.40477    0.00131     0.40609
      H   12    0.09876      0.00000     0.40034    0.00090     0.40124
      H   13    0.10258      0.00000     0.39599    0.00142     0.39742
      H   14    0.10829      0.00000     0.39023    0.00148     0.39171
      H   15    0.10050      0.00000     0.39825    0.00126     0.39950
      H   16    0.10363      0.00000     0.39472    0.00165     0.39637
      H   17    0.08278      0.00000     0.41571    0.00151     0.41722
      H   18    0.07651      0.00000     0.42206    0.00143     0.42349
      H   19    0.10040      0.00000     0.39823    0.00137     0.39960
      H   20    0.10305      0.00000     0.39558    0.00137     0.39695
      H   21    0.10160      0.00000     0.39698    0.00142     0.39840
      H   22    0.08182      0.00000     0.41600    0.00218     0.41818
      H   23    0.08356      0.00000     0.41395    0.00249     0.41644
      H   24    0.23932      0.00000     0.23947    0.02121     0.26068
 =======================================================================
   * Total *   -0.00000      9.99666    29.85332    0.15002    40.00000

 Normal termination of Gaussian 16 at Tue Dec  8 14:15:04 2020.
