 Gaussian 16, Revision A.03,

 -----------------------------------------------------------
 # opt freq B3LYP/6-31G(d) empiricaldispersion=gd3bj scf=xqc
 -----------------------------------------------------------

 ------------------------------
 CID_64926572_JID_9198_neutraal
 ------------------------------
 Symbolic Z-matrix:
 Charge =  0 Multiplicity = 1

 SCF Done:  E(RB3LYP) =  -846.032039109     A.U. after   14 cycles
 SCF Done:  E(RB3LYP) =  -846.038261265     A.U. after   12 cycles
 SCF Done:  E(RB3LYP) =  -846.038519830     A.U. after   11 cycles
 SCF Done:  E(RB3LYP) =  -846.039313443     A.U. after   11 cycles
 SCF Done:  E(RB3LYP) =  -846.039586958     A.U. after   11 cycles
 SCF Done:  E(RB3LYP) =  -846.039700169     A.U. after   11 cycles
 SCF Done:  E(RB3LYP) =  -846.039731676     A.U. after    9 cycles
 SCF Done:  E(RB3LYP) =  -846.039739825     A.U. after    9 cycles
 SCF Done:  E(RB3LYP) =  -846.039741761     A.U. after    8 cycles
 SCF Done:  E(RB3LYP) =  -846.039742193     A.U. after    7 cycles
 SCF Done:  E(RB3LYP) =  -846.039742273     A.U. after    7 cycles
 Optimization completed.
    -- Stationary point found.
 Normal termination of Gaussian 16 at Sun Dec 13 12:33:59 2020.

 --------------------------------------------------------------------
 #N Geom=AllCheck Guess=TCheck SCRF=Check GenChk RB3LYP/6-31G(d) Freq
 --------------------------------------------------------------------

 Structure from the checkpoint file:  "JID_9198.chk"
 ------------------------------
 CID_64926572_JID_9198_neutraal
 ------------------------------
 Charge =  0 Multiplicity = 1

 SCF Done:  E(RB3LYP) =  -846.039742273     A.U. after    1 cycles

  Exact polarizability: 228.189  14.649 189.292  -7.070   4.142 122.505
 Approx polarizability: 302.979  22.273 286.258 -17.145  12.451 186.071

                      1                      2                      3
                      A                      A                      A
 Frequencies --     36.2078                42.5830                64.2511
 Red. masses --      4.0383                 2.8443                 2.9194
 Frc consts  --      0.0031                 0.0030                 0.0071
 IR Inten    --      0.1370                 0.4433                 1.3590

                      4                      5                      6
                      A                      A                      A
 Frequencies --     75.8193                85.2485                98.2115
 Red. masses --      3.8122                 3.5566                 2.6964
 Frc consts  --      0.0129                 0.0152                 0.0153
 IR Inten    --      0.9277                 2.0585                 2.2318

                      7                      8                      9
                      A                      A                      A
 Frequencies --    129.2916               162.6374               165.0624
 Red. masses --      3.5484                 2.5668                 1.2075
 Frc consts  --      0.0349                 0.0400                 0.0194
 IR Inten    --      0.3618                 2.5724                 0.3175

                     10                     11                     12
                      A                      A                      A
 Frequencies --    174.5708               196.0932               218.1370
 Red. masses --      3.6106                 2.8254                 1.3367
 Frc consts  --      0.0648                 0.0640                 0.0375
 IR Inten    --      0.9408                 2.3264                 2.6101

                     13                     14                     15
                      A                      A                      A
 Frequencies --    243.8319               251.3851               255.1769
 Red. masses --      1.5021                 2.7038                 1.1893
 Frc consts  --      0.0526                 0.1007                 0.0456
 IR Inten    --      0.3042                 5.4074                 0.2752

                     16                     17                     18
                      A                      A                      A
 Frequencies --    261.2455               282.1315               318.3329
 Red. masses --      1.6483                 2.8473                 3.1242
 Frc consts  --      0.0663                 0.1335                 0.1865
 IR Inten    --      0.5017                 2.8579                 3.7622

                     19                     20                     21
                      A                      A                      A
 Frequencies --    327.5166               346.8261               360.2208
 Red. masses --      2.4845                 3.7918                 3.8189
 Frc consts  --      0.1570                 0.2687                 0.2920
 IR Inten    --      0.0799                 2.5527                 8.5057

                     22                     23                     24
                      A                      A                      A
 Frequencies --    393.6179               415.8995               453.4922
 Red. masses --      3.3185                 2.5053                 3.5302
 Frc consts  --      0.3029                 0.2553                 0.4277
 IR Inten    --      2.5183                 1.9421                 2.3101

                     25                     26                     27
                      A                      A                      A
 Frequencies --    471.6734               485.8013               488.1558
 Red. masses --      3.5670                 2.9150                 3.9923
 Frc consts  --      0.4676                 0.4053                 0.5605
 IR Inten    --      6.0741                 2.4852                 1.2504

                     28                     29                     30
                      A                      A                      A
 Frequencies --    523.2111               563.5004               568.5762
 Red. masses --      2.8717                 2.1001                 4.2654
 Frc consts  --      0.4632                 0.3929                 0.8124
 IR Inten    --      3.2768                 6.2804                 6.6016

                     31                     32                     33
                      A                      A                      A
 Frequencies --    602.3437               630.7334               649.1053
 Red. masses --      2.4215                 3.9889                 4.0510
 Frc consts  --      0.5176                 0.9350                 1.0056
 IR Inten    --      7.4656                 6.0070                 6.9263

                     34                     35                     36
                      A                      A                      A
 Frequencies --    701.4326               742.7100               745.3608
 Red. masses --      4.0669                 4.1290                 4.6623
 Frc consts  --      1.1789                 1.3419                 1.5261
 IR Inten    --     11.0443                 6.4849                 5.3857

                     37                     38                     39
                      A                      A                      A
 Frequencies --    808.6268               814.6159               850.4256
 Red. masses --      1.8186                 2.1814                 1.9308
 Frc consts  --      0.7006                 0.8529                 0.8227
 IR Inten    --     46.3252                24.7046                80.8421

                     40                     41                     42
                      A                      A                      A
 Frequencies --    868.2961               882.4126               904.5234
 Red. masses --      2.0196                 1.4429                 2.3960
 Frc consts  --      0.8971                 0.6620                 1.1550
 IR Inten    --     40.6546                15.3685                 4.6492

                     43                     44                     45
                      A                      A                      A
 Frequencies --    910.7790               935.7264               939.4059
 Red. masses --      1.3355                 1.7170                 1.8407
 Frc consts  --      0.6527                 0.8858                 0.9570
 IR Inten    --      3.5208                 5.0816                 4.1789

                     46                     47                     48
                      A                      A                      A
 Frequencies --    961.8377               977.4805               989.4251
 Red. masses --      1.9551                 1.5493                 2.0478
 Frc consts  --      1.0656                 0.8722                 1.1812
 IR Inten    --      5.6980                 0.8648                11.0319

                     49                     50                     51
                      A                      A                      A
 Frequencies --   1000.8204              1021.4887              1053.5662
 Red. masses --      2.7017                 2.2625                 4.3715
 Frc consts  --      1.5944                 1.3909                 2.8590
 IR Inten    --     15.9668                 9.3417                52.3853

                     52                     53                     54
                      A                      A                      A
 Frequencies --   1073.4612              1084.0826              1098.5723
 Red. masses --      1.9267                 3.1057                 1.9939
 Frc consts  --      1.3081                 2.1505                 1.4178
 IR Inten    --     15.4162                29.9134                18.9179

                     55                     56                     57
                      A                      A                      A
 Frequencies --   1126.8179              1148.7779              1173.8424
 Red. masses --      3.3466                 2.9921                 2.4906
 Frc consts  --      2.5036                 2.3265                 2.0220
 IR Inten    --     43.9531                55.1884                28.2932

                     58                     59                     60
                      A                      A                      A
 Frequencies --   1185.8701              1187.6921              1191.1760
 Red. masses --      1.6255                 1.2726                 1.7390
 Frc consts  --      1.3468                 1.0576                 1.4538
 IR Inten    --     74.2353                 0.7683                44.7188

                     61                     62                     63
                      A                      A                      A
 Frequencies --   1197.5040              1204.5268              1221.1904
 Red. masses --      1.8126                 1.6204                 1.8328
 Frc consts  --      1.5315                 1.3852                 1.6104
 IR Inten    --      4.7087                55.5633                14.5367

                     64                     65                     66
                      A                      A                      A
 Frequencies --   1223.0892              1234.8771              1246.0001
 Red. masses --      1.3715                 1.6227                 1.5445
 Frc consts  --      1.2088                 1.4579                 1.4128
 IR Inten    --      6.0690               122.7094                98.5524

                     67                     68                     69
                      A                      A                      A
 Frequencies --   1249.8661              1295.9674              1305.3089
 Red. masses --      1.6210                 1.8662                 1.6215
 Frc consts  --      1.4920                 1.8467                 1.6277
 IR Inten    --     30.3272                40.4635                15.8013

                     70                     71                     72
                      A                      A                      A
 Frequencies --   1321.0416              1328.8583              1355.0615
 Red. masses --      1.2525                 2.1893                 5.4421
 Frc consts  --      1.2878                 2.2778                 5.8876
 IR Inten    --      8.3117                97.0946                56.4288

                     73                     74                     75
                      A                      A                      A
 Frequencies --   1371.6770              1379.4555              1385.3425
 Red. masses --      1.3255                 1.4569                 1.3455
 Frc consts  --      1.4694                 1.6334                 1.5214
 IR Inten    --      0.3544                 1.9750                 6.6664

                     76                     77                     78
                      A                      A                      A
 Frequencies --   1401.2931              1411.4500              1422.9117
 Red. masses --      1.3029                 1.3705                 1.5063
 Frc consts  --      1.5074                 1.6087                 1.7969
 IR Inten    --      6.9464                 1.3203                17.4701

                     79                     80                     81
                      A                      A                      A
 Frequencies --   1425.6353              1431.4493              1449.8141
 Red. masses --      1.4534                 1.3518                 1.2492
 Frc consts  --      1.7404                 1.6320                 1.5470
 IR Inten    --     13.7074                 6.6632                 5.2001

                     82                     83                     84
                      A                      A                      A
 Frequencies --   1467.7132              1494.3339              1500.9742
 Red. masses --      2.0217                 1.3117                 1.1185
 Frc consts  --      2.5660                 1.7258                 1.4847
 IR Inten    --      3.9957                49.9393                18.8665

                     85                     86                     87
                      A                      A                      A
 Frequencies --   1505.8287              1509.6743              1514.0285
 Red. masses --      1.3081                 1.1529                 1.1033
 Frc consts  --      1.7476                 1.5481                 1.4901
 IR Inten    --     12.1390                 8.0736                 5.7051

                     88                     89                     90
                      A                      A                      A
 Frequencies --   1515.9003              1519.2265              1519.5723
 Red. masses --      1.1051                 1.0556                 1.0480
 Frc consts  --      1.4962                 1.4355                 1.4258
 IR Inten    --      2.5697                 4.1196                 5.2722

                     91                     92                     93
                      A                      A                      A
 Frequencies --   1525.1889              1526.0025              1537.4553
 Red. masses --      1.1218                 1.0665                 1.0971
 Frc consts  --      1.5375                 1.4633                 1.5279
 IR Inten    --      0.2719                 1.2050                75.0206

                     94                     95                     96
                      A                      A                      A
 Frequencies --   1541.4532              1543.2366              1546.1784
 Red. masses --      1.0516                 1.0689                 1.0639
 Frc consts  --      1.4722                 1.4999                 1.4986
 IR Inten    --     13.1629                 1.5768                 1.2001

                     97                     98                     99
                      A                      A                      A
 Frequencies --   1554.3578              1623.4258              1677.8998
 Red. masses --      2.5138                 6.5045                 6.2876
 Frc consts  --      3.5784                10.1002                10.4295
 IR Inten    --    237.6843                38.0947                41.3296

                    100                    101                    102
                      A                      A                      A
 Frequencies --   3009.7578              3010.7864              3019.4215
 Red. masses --      1.0804                 1.0750                 1.0357
 Frc consts  --      5.7662                 5.7415                 5.5633
 IR Inten    --     10.6981                54.0620                67.5866

                    103                    104                    105
                      A                      A                      A
 Frequencies --   3021.9996              3037.2126              3043.2941
 Red. masses --      1.0690                 1.0351                 1.0641
 Frc consts  --      5.7519                 5.6257                 5.8065
 IR Inten    --     36.8588                69.5649                20.9044

                    106                    107                    108
                      A                      A                      A
 Frequencies --   3045.3784              3047.9589              3050.9778
 Red. masses --      1.0465                 1.0561                 1.0460
 Frc consts  --      5.7185                 5.7809                 5.7366
 IR Inten    --     23.6320                83.3219                18.1708

                    109                    110                    111
                      A                      A                      A
 Frequencies --   3075.2296              3089.3394              3098.1763
 Red. masses --      1.1063                 1.1063                 1.0964
 Frc consts  --      6.1642                 6.2209                 6.2007
 IR Inten    --     47.7545                47.8687                27.9405

                    112                    113                    114
                      A                      A                      A
 Frequencies --   3108.4326              3109.8477              3110.4612
 Red. masses --      1.1022                 1.1012                 1.1012
 Frc consts  --      6.2745                 6.2747                 6.2770
 IR Inten    --     22.2167                30.6556                52.8027

                    115                    116                    117
                      A                      A                      A
 Frequencies --   3118.4396              3133.6973              3151.8223
 Red. masses --      1.1018                 1.1010                 1.1048
 Frc consts  --      6.3129                 6.3702                 6.4665
 IR Inten    --     40.0461                26.1652                28.2129

                    118                    119                    120
                      A                      A                      A
 Frequencies --   3155.2019              3161.8098              3219.4604
 Red. masses --      1.0991                 1.0913                 1.0863
 Frc consts  --      6.4470                 6.4277                 6.6341
 IR Inten    --     32.0155                 5.3656                17.8149

                    121                    122                    123
                      A                      A                      A
 Frequencies --   3226.8070              3235.2338              3453.9798
 Red. masses --      1.0912                 1.0924                 1.0725
 Frc consts  --      6.6945                 6.7368                 7.5384
 IR Inten    --      1.7346                10.9718                 3.3716

 - Thermochemistry -
 -------------------
 Temperature   298.150 Kelvin.  Pressure   1.00000 Atm.
 Atom     1 has atomic number  6 and mass  12.00000

 Molecular mass:   264.18378 amu.
 Principal axes and moments of inertia in atomic units:
                           1         2         3
     Eigenvalues --  3064.144488493.48561**********
           X            1.00000  -0.00152  -0.00114
           Y            0.00151   0.99997  -0.00694
           Z            0.00115   0.00694   0.99998
 This molecule is an asymmetric top.
 Rotational symmetry number  1.
 Warning -- assumption of classical behavior for rotation
           may cause significant error
 Rotational temperatures (Kelvin)      0.02827     0.01020     0.00828
 Rotational constants (GHZ):           0.58899     0.21249     0.17255
 Zero-point vibrational energy     998520.6 (Joules/Mol)
                                  238.65216 (Kcal/Mol)
 Warning -- explicit consideration of  31 degrees of freedom as
           vibrations may cause significant error
 Vibrational temperatures:     52.09    61.27    92.44   109.09   122.65
          (Kelvin)            141.30   186.02   234.00   237.49   251.17
                              282.13   313.85   350.82   361.69   367.14
                              375.87   405.92   458.01   471.22   499.01
                              518.28   566.33   598.39   652.47   678.63
                              698.96   702.35   752.78   810.75   818.05
                              866.64   907.48   933.92  1009.21  1068.59
                             1072.41  1163.43  1172.05  1223.57  1249.28
                             1269.59  1301.41  1310.41  1346.30  1351.60
                             1383.87  1406.38  1423.56  1439.96  1469.69
                             1515.85  1544.47  1559.75  1580.60  1621.24
                             1652.84  1688.90  1706.20  1708.82  1713.84
                             1722.94  1733.05  1757.02  1759.75  1776.71
                             1792.72  1798.28  1864.61  1878.05  1900.68
                             1911.93  1949.63  1973.54  1984.73  1993.20
                             2016.15  2030.76  2047.25  2051.17  2059.54
                             2085.96  2111.71  2150.01  2159.57  2166.55
                             2172.08  2178.35  2181.04  2185.83  2186.33
                             2194.41  2195.58  2212.06  2217.81  2220.37
                             2224.61  2236.37  2335.75  2414.12  4330.37
                             4331.85  4344.27  4347.98  4369.87  4378.62
                             4381.62  4385.33  4389.68  4424.57  4444.87
                             4457.58  4472.34  4474.38  4475.26  4486.74
                             4508.69  4534.77  4539.63  4549.14  4632.09
                             4642.66  4654.78  4969.51

 Zero-point correction=                           0.380316 (Hartree/Particle)
 Thermal correction to Energy=                    0.399587
 Thermal correction to Enthalpy=                  0.400531
 Thermal correction to Gibbs Free Energy=         0.333007
 Sum of electronic and zero-point Energies=           -845.659426
 Sum of electronic and thermal Energies=              -845.640156
 Sum of electronic and thermal Enthalpies=            -845.639212
 Sum of electronic and thermal Free Energies=         -845.706735

                     E (Thermal)             CV                S
                      KCal/Mol        Cal/Mol-Kelvin    Cal/Mol-Kelvin
 Total                  250.744             74.372            142.116
 Electronic               0.000              0.000              0.000
 Translational            0.889              2.981             42.614
 Rotational               0.889              2.981             33.964
 Vibrational            248.967             68.411             65.538
 Vibration     1          0.594              1.982              5.456
 Vibration     2          0.595              1.980              5.135
 Vibration     3          0.597              1.971              4.322
 Vibration     4          0.599              1.965              3.996
 Vibration     5          0.601              1.959              3.766
 Vibration     6          0.604              1.950              3.490
 Vibration     7          0.612              1.924              2.957
 Vibration     8          0.623              1.888              2.519
 Vibration     9          0.623              1.885              2.491
 Vibration    10          0.627              1.874              2.386
 Vibration    11          0.636              1.845              2.169
 Vibration    12          0.646              1.813              1.975
 Vibration    13          0.659              1.773              1.775
 Vibration    14          0.663              1.760              1.721
 Vibration    15          0.666              1.754              1.695
 Vibration    16          0.669              1.744              1.653
 Vibration    17          0.681              1.707              1.521
 Vibration    18          0.705              1.639              1.319
 Vibration    19          0.711              1.621              1.272
 Vibration    20          0.725              1.582              1.181
 Vibration    21          0.735              1.554              1.121
 Vibration    22          0.761              1.484              0.986
 Vibration    23          0.779              1.436              0.906
 Vibration    24          0.812              1.353              0.785
 Vibration    25          0.829              1.313              0.733
 Vibration    26          0.842              1.282              0.695
 Vibration    27          0.844              1.276              0.688
 Vibration    28          0.878              1.199              0.603
 Vibration    29          0.919              1.110              0.517
 Vibration    30          0.925              1.099              0.507
 Vibration    31          0.961              1.027              0.446

 Optimization completed.
    -- Stationary point found.
 Normal termination of Gaussian 16 at Sun Dec 13 12:56:56 2020.

 ----------------------------------------------------------------------
 # B3LYP/6-311++G(d,p) empiricaldispersion=gd3bj scf=xqc pop=npa geom=c
 heck
 ----------------------------------------------------------------------

 --------------------------------------
 CID_64926572_JID_9198_Energie_neutraal
 --------------------------------------
 Structure from the checkpoint file:  "JID_9198.chk"
 Charge =  0 Multiplicity = 1

 SCF Done:  E(RB3LYP) =  -846.272722441     A.U. after   15 cycles
 Normal termination of Gaussian 16 at Sun Dec 13 13:08:25 2020.

 ----------------------------------------------------------------------
 # B3LYP/6-311++G(d,p) empiricaldispersion=gd3bj scf=xqc pop=npa geom=c
 heck
 ----------------------------------------------------------------------

 ------------------------------------
 CID_64926572_JID_9198_Energie_kation
 ------------------------------------
 Structure from the checkpoint file:  "JID_9198.chk"
 Charge =  1 Multiplicity = 2

 SCF Done:  E(UB3LYP) =  -846.030367808     A.U. after   23 cycles
 Normal termination of Gaussian 16 at Sun Dec 13 13:32:26 2020.
 Gaussian 16:  ES64L-G16RevA.03 25-Dec-2016

 ----------------------------------------------------------------------
 # B3LYP/6-311++G(d,p) empiricaldispersion=gd3bj scf=xqc pop=npa geom=c
 heck
 ----------------------------------------------------------------------

 -----------------------------------
 CID_64926572_JID_9198_Energie_anion
 -----------------------------------
 Structure from the checkpoint file:  "JID_9198.chk"
 Charge = -1 Multiplicity = 2

                         Standard orientation:
 ---------------------------------------------------------------------
 Center     Atomic      Atomic             Coordinates (Angstroms)
 Number     Number       Type             X           Y           Z
 ---------------------------------------------------------------------
      1          6           0        4.739397   -0.454112   -1.104047
      2          6           0        3.607775   -1.338039   -0.556738
      3          6           0        4.160906   -2.357901    0.446373
      4          6           0        2.448113   -0.536985    0.069362
      5          6           0        1.646335    0.285079   -0.963162
      6          7           0        0.539415    1.033497   -0.367044
      7          6           0        1.011367    1.874775    0.745872
      8          6           0        1.797054    1.054532    1.776224
      9          7           0        2.911168    0.304018    1.184427
     10          6           0       -0.707988    0.385779   -0.209505
     11          6           0       -1.875159    1.150586    0.056362
     12          6           0       -3.114632    0.549234    0.209868
     13          6           0       -3.264350   -0.835077    0.064639
     14          6           0       -2.145393   -1.605248   -0.248017
     15          6           0       -0.893063   -0.993480   -0.368851
     16          8           0       -4.533502   -1.319647    0.229880
     17          6           0       -4.723063   -2.714526    0.081989
     18          8           0       -1.820510    2.524518    0.195915
     19          6           0       -1.583905    3.220868   -1.031115
     20          1           0        5.256590    0.074998   -0.294567
     21          1           0        4.381531    0.288957   -1.824919
     22          1           0        5.488655   -1.070698   -1.612566
     23          1           0        3.176802   -1.889182   -1.406330
     24          1           0        4.529270   -1.845806    1.340529
     25          1           0        3.382595   -3.062349    0.762342
     26          1           0        4.983366   -2.935730    0.009187
     27          1           0        1.760150   -1.264256    0.520033
     28          1           0        1.258205   -0.346243   -1.768810
     29          1           0        2.316311    1.022993   -1.426884
     30          1           0        1.670783    2.647335    0.321414
     31          1           0        0.158077    2.380652    1.197240
     32          1           0        1.122203    0.333789    2.255764
     33          1           0        2.192105    1.708761    2.563080
     34          1           0        3.587027    0.977568    0.820907
     35          1           0       -3.979436    1.167935    0.421988
     36          1           0       -2.218330   -2.677982   -0.380755
     37          1           0       -0.042225   -1.627820   -0.584731
     38          1           0       -4.453978   -3.054350   -0.927562
     39          1           0       -4.136410   -3.282181    0.817105
     40          1           0       -5.786090   -2.894877    0.251876
     41          1           0       -0.632097    2.917318   -1.478977
     42          1           0       -2.400539    3.033368   -1.740120
     43          1           0       -1.556911    4.283322   -0.778807
 ---------------------------------------------------------------------

 SCF Done:  E(UB3LYP) =  -846.260170000     A.U. after   33 cycles
 SCF Done:  E(UB3LYP) =  -846.260170000     a.u. after    1 cycles

 The electronic state is 2-A.
 Alpha  occ. eigenvalues --  -19.06361 -19.05451 -14.23140 -14.20847 -10.14136
 Alpha  occ. eigenvalues --  -10.13902 -10.13187 -10.13082 -10.11920 -10.10572
 Alpha  occ. eigenvalues --  -10.10529 -10.10455 -10.10403 -10.08614 -10.08451
 Alpha  occ. eigenvalues --  -10.08157 -10.08087 -10.06939 -10.06444  -0.97942
 Alpha  occ. eigenvalues --   -0.97035  -0.86338  -0.81161  -0.75730  -0.71508
 Alpha  occ. eigenvalues --   -0.67127  -0.66608  -0.65756  -0.62083  -0.60070
 Alpha  occ. eigenvalues --   -0.59578  -0.57755  -0.55905  -0.52631  -0.51516
 Alpha  occ. eigenvalues --   -0.48560  -0.47480  -0.45065  -0.42430  -0.41800
 Alpha  occ. eigenvalues --   -0.40037  -0.38899  -0.38441  -0.37960  -0.37724
 Alpha  occ. eigenvalues --   -0.36825  -0.36109  -0.35761  -0.35383  -0.33510
 Alpha  occ. eigenvalues --   -0.33148  -0.32732  -0.32406  -0.31530  -0.30422
 Alpha  occ. eigenvalues --   -0.29625  -0.29442  -0.28713  -0.28110  -0.27068
 Alpha  occ. eigenvalues --   -0.26609  -0.26198  -0.24829  -0.24514  -0.23873
 Alpha  occ. eigenvalues --   -0.23820  -0.23109  -0.19638  -0.18258  -0.15809
 Alpha  occ. eigenvalues --   -0.14124  -0.09730   0.03907
 Alpha virt. eigenvalues --    0.05232   0.06033   0.06813   0.07168   0.07421
 Alpha virt. eigenvalues --    0.07846   0.08608   0.08896   0.08963   0.09102
 Alpha virt. eigenvalues --    0.09733   0.09786   0.10182   0.10507   0.11040

  Beta  occ. eigenvalues --  -19.06354 -19.05449 -14.23139 -14.20835 -10.14137
  Beta  occ. eigenvalues --  -10.13902 -10.13144 -10.13068 -10.11918 -10.10568
  Beta  occ. eigenvalues --  -10.10514 -10.10443 -10.10396 -10.08603 -10.08445
  Beta  occ. eigenvalues --  -10.08141 -10.08086 -10.06905 -10.06429  -0.97926
  Beta  occ. eigenvalues --   -0.97029  -0.86327  -0.81142  -0.75719  -0.71483
  Beta  occ. eigenvalues --   -0.67107  -0.66590  -0.65732  -0.62045  -0.60037
  Beta  occ. eigenvalues --   -0.59527  -0.57727  -0.55877  -0.52604  -0.51489
  Beta  occ. eigenvalues --   -0.48530  -0.47436  -0.45037  -0.42410  -0.41782
  Beta  occ. eigenvalues --   -0.40018  -0.38868  -0.38419  -0.37936  -0.37703
  Beta  occ. eigenvalues --   -0.36801  -0.36083  -0.35741  -0.35361  -0.33485
  Beta  occ. eigenvalues --   -0.33122  -0.32705  -0.32382  -0.31503  -0.30398
  Beta  occ. eigenvalues --   -0.29605  -0.29415  -0.28693  -0.28088  -0.27039
  Beta  occ. eigenvalues --   -0.26588  -0.26178  -0.24800  -0.24484  -0.23842
  Beta  occ. eigenvalues --   -0.23793  -0.23088  -0.19628  -0.18241  -0.15801
  Beta  occ. eigenvalues --   -0.14110  -0.09714
  Beta virt. eigenvalues --    0.05831   0.06288   0.06469   0.07189   0.07310
  Beta virt. eigenvalues --    0.07765   0.08171   0.08792   0.09111   0.09329
  Beta virt. eigenvalues --    0.09497   0.09863   0.09907   0.10465   0.10728

 Mulliken charges and spin densities:
               1          2
     1  C    0.810290  -1.521207
     2  C   -1.183639   1.306693
     3  C   -0.059731  -0.613022
     4  C    0.763318  -0.468724
     5  C   -0.717459  -0.201735
     6  N    0.369713   0.064617
     7  C    0.285326  -0.210915
     8  C   -0.232577  -0.314975
     9  N    0.032264  -0.021103
    10  C    0.555223  -0.661523
    11  C   -0.550679   0.075685
    12  C   -0.493785   0.375241
    13  C   -0.484117  -0.015508
    14  C    0.463198  -0.384028
    15  C   -0.064589  -0.086733
    16  O   -0.209568   0.048006
    17  C    0.745073  -1.086561
    18  O   -0.110041   0.006687
    19  C    0.099832  -0.308297
    20  H   -0.142187   0.272524
    21  H   -0.298559   0.427532
    22  H   -0.240354   0.395916
    23  H   -0.107290   0.282454
    24  H    0.143900   0.033448
    25  H   -0.091559   0.204196
    26  H   -0.104401   0.255006
    27  H    0.311429  -0.111679
    28  H   -0.121367   0.303039
    29  H    0.215310   0.001412
    30  H   -0.234540   0.400097
    31  H    0.299107  -0.105107
    32  H    0.129017   0.021360
    33  H   -0.036945   0.222471
    34  H    0.176892   0.051332
    35  H    0.157408   0.034348
    36  H   -0.381830   0.598782
    37  H    0.003880   0.129942
    38  H   -0.217337   0.369320
    39  H   -0.172468   0.326841
    40  H   -0.353991   0.522407
    41  H   -0.008363   0.158344
    42  H    0.021321   0.101912
    43  H    0.034874   0.121508
 Sum of Mulliken charges =  -1.00000   1.00000

 Dipole moment (field-independent basis, Debye):
    X=             -0.8007    Y=              4.5010    Z=              1.8284  Tot=              4.9237
 Quadrupole moment (field-independent basis, Debye-Ang):
   XX=           -225.9044   YY=           -176.1376   ZZ=           -152.5949
   XY=            -14.4247   XZ=              7.5517   YZ=             -2.1397

 Summary of Natural Population Analysis:

                                       Natural Population
                Natural  -----------------------------------------------
    Atom  No    Charge         Core      Valence    Rydberg      Total
 -----------------------------------------------------------------------
      C    1   -0.28957      0.99965     2.28348    0.00645     3.28957
      C    2   -0.11521      0.99959     2.10463    0.01099     3.11521
      C    3   -0.28243      0.99965     2.27786    0.00492     3.28243
      C    4   -0.01690      0.99956     2.00475    0.01258     3.01690
      C    5   -0.09246      0.99959     2.08128    0.01160     3.09246
      N    6   -0.26880      0.99969     2.75567    0.01344     3.76880
      C    7   -0.09507      0.99959     2.08454    0.01093     3.09507
      C    8   -0.09530      0.99962     2.08512    0.01055     3.09530
      N    9   -0.33998      0.99975     2.82870    0.01153     3.83998
      C   10    0.05889      0.99942     1.93046    0.01124     2.94111
      C   11    0.14628      0.99934     1.84079    0.01359     2.85372
      C   12   -0.13167      0.99947     2.12335    0.00884     3.13167
      C   13    0.15206      0.99938     1.83501    0.01355     2.84794
      C   14   -0.14143      0.99952     2.13293    0.00898     3.14143
      C   15   -0.11005      0.99954     2.10201    0.00850     3.11005
      O   16   -0.27470      0.99986     3.26522    0.00961     4.27470
      C   17   -0.10080      0.99960     2.09204    0.00915     3.10080
      O   18   -0.29446      0.99987     3.28525    0.00935     4.29446
      C   19   -0.09893      0.99959     2.09176    0.00758     3.09893
      H   20    0.09607      0.00000     0.40282    0.00111     0.40393
      H   21    0.10054      0.00000     0.39813    0.00132     0.39946
      H   22    0.10247      0.00000     0.39653    0.00100     0.39753
      H   23    0.09542      0.00000     0.40262    0.00196     0.40458
      H   24    0.10400      0.00000     0.39474    0.00126     0.39600
      H   25    0.09835      0.00000     0.40078    0.00088     0.40165
      H   26    0.09690      0.00000     0.40228    0.00082     0.40310
      H   27    0.09387      0.00000     0.40366    0.00247     0.40613
      H   28    0.10291      0.00000     0.39553    0.00156     0.39709
      H   29    0.09679      0.00000     0.40165    0.00156     0.40321
      H   30    0.09004      0.00000     0.40829    0.00167     0.40996
      H   31    0.10994      0.00000     0.38851    0.00155     0.39006
      H   32    0.09276      0.00000     0.40609    0.00114     0.40724
      H   33    0.09432      0.00000     0.40484    0.00085     0.40568
      H   34    0.16938      0.00000     0.32788    0.00274     0.33062
      H   35    0.10931      0.00000     0.38910    0.00159     0.39069
      H   36    0.10838      0.00000     0.39004    0.00158     0.39162
      H   37    0.10338      0.00000     0.39486    0.00176     0.39662
      H   38    0.08569      0.00000     0.41248    0.00183     0.41431
      H   39    0.08509      0.00000     0.41326    0.00165     0.41491
      H   40    0.09326      0.00000     0.40554    0.00120     0.40674
      H   41    0.09274      0.00000     0.40556    0.00170     0.40726
      H   42    0.08140      0.00000     0.41729    0.00131     0.41860
      H   43    0.08751      0.00000     0.41140    0.00108     0.41249
 =======================================================================
   * Total *    0.00000     18.99229    52.77871    0.22900    72.00000

 Normal termination of Gaussian 16 at Sun Dec 13 14:07:27 2020.
