 Gaussian 16, Revision A.03,

 -----------------------------------------------------------
 # opt freq B3LYP/6-31G(d) empiricaldispersion=gd3bj scf=xqc
 -----------------------------------------------------------

 ------------------------------
 CID_89857615_JID_1465_neutraal
 ------------------------------
 Symbolic Z-matrix:
 Charge =  0 Multiplicity = 1

 SCF Done:  E(RB3LYP) =  -1220.81376287     A.U. after   13 cycles
 SCF Done:  E(RB3LYP) =  -1220.81650871     A.U. after   11 cycles
 SCF Done:  E(RB3LYP) =  -1220.81684493     A.U. after   10 cycles
 SCF Done:  E(RB3LYP) =  -1220.81695762     A.U. after   10 cycles
 SCF Done:  E(RB3LYP) =  -1220.81706187     A.U. after   10 cycles
 SCF Done:  E(RB3LYP) =  -1220.81714653     A.U. after   10 cycles
 SCF Done:  E(RB3LYP) =  -1220.81724063     A.U. after   10 cycles
 SCF Done:  E(RB3LYP) =  -1220.81728432     A.U. after   10 cycles
 SCF Done:  E(RB3LYP) =  -1220.81729169     A.U. after   10 cycles
 SCF Done:  E(RB3LYP) =  -1220.81729349     A.U. after    8 cycles
 SCF Done:  E(RB3LYP) =  -1220.81729391     A.U. after    7 cycles
 SCF Done:  E(RB3LYP) =  -1220.81729405     A.U. after    7 cycles
 Optimization completed.
    -- Stationary point found.
 Normal termination of Gaussian 16 at Tue Dec  8 20:05:00 2020.

 --------------------------------------------------------------------
 #N Geom=AllCheck Guess=TCheck SCRF=Check GenChk RB3LYP/6-31G(d) Freq
 --------------------------------------------------------------------

 Structure from the checkpoint file:  "JID_1465.chk"
 ------------------------------
 CID_89857615_JID_1465_neutraal
 ------------------------------
 Charge =  0 Multiplicity = 1

 SCF Done:  E(RB3LYP) =  -1220.81729405     A.U. after    1 cycles

  Exact polarizability: 132.631   0.945 101.820   0.366   0.865  87.989
 Approx polarizability: 176.657   4.616 156.810  -0.018   6.455 139.471

                      1                      2                      3
                      A                      A                      A
 Frequencies --     63.2257                66.5963                89.5218
 Red. masses --      4.9778                 3.4087                 4.8856
 Frc consts  --      0.0117                 0.0089                 0.0231
 IR Inten    --      0.3319                 1.0164                 1.4010

                      4                      5                      6
                      A                      A                      A
 Frequencies --    140.6447               194.2778               228.3374
 Red. masses --      4.1692                 4.6394                 3.3693
 Frc consts  --      0.0486                 0.1032                 0.1035
 IR Inten    --      1.7150                 5.8860                 3.1909

                      7                      8                      9
                      A                      A                      A
 Frequencies --    257.1382               278.4870               309.4135
 Red. masses --      4.0221                 2.5196                 5.9519
 Frc consts  --      0.1567                 0.1151                 0.3357
 IR Inten    --      2.9315                 5.2971                 0.2421

                     10                     11                     12
                      A                      A                      A
 Frequencies --    331.0792               380.2799               462.6394
 Red. masses --      2.3817                 3.3349                 2.4788
 Frc consts  --      0.1538                 0.2841                 0.3126
 IR Inten    --      5.9624                 0.3516                 1.2801

                     13                     14                     15
                      A                      A                      A
 Frequencies --    563.9201               648.7628               683.3621
 Red. masses --      4.5203                 4.7341                 3.5388
 Frc consts  --      0.8469                 1.1740                 0.9737
 IR Inten    --      5.3813                 0.5440                 3.7681

                     16                     17                     18
                      A                      A                      A
 Frequencies --    690.6454               736.5389               751.0344
 Red. masses --      3.6286                 7.0935                 5.5348
 Frc consts  --      1.0198                 2.2673                 1.8394
 IR Inten    --      6.0196                 1.1814                 4.5726

                     19                     20                     21
                      A                      A                      A
 Frequencies --    803.7885               847.6259               875.4128
 Red. masses --      4.3066                 2.9600                 1.7853
 Frc consts  --      1.6393                 1.2530                 0.8061
 IR Inten    --      5.6427                 7.0997                 2.6985

                     22                     23                     24
                      A                      A                      A
 Frequencies --    925.6321               963.4353               971.3799
 Red. masses --      1.8122                 2.2287                 2.2182
 Frc consts  --      0.9148                 1.2189                 1.2332
 IR Inten    --      7.0908                29.9147                26.5066

                     25                     26                     27
                      A                      A                      A
 Frequencies --    988.2554              1015.7222              1023.4409
 Red. masses --      3.1200                 3.4555                 3.0157
 Frc consts  --      1.7953                 2.1004                 1.8611
 IR Inten    --     18.6449                28.7661                 9.3268

                     28                     29                     30
                      A                      A                      A
 Frequencies --   1038.6155              1074.6923              1122.7544
 Red. masses --      2.1580                 5.1365                 3.3627
 Frc consts  --      1.3715                 3.4953                 2.4975
 IR Inten    --      7.2459                46.4431               157.0369

                     31                     32                     33
                      A                      A                      A
 Frequencies --   1135.3173              1164.8651              1189.3090
 Red. masses --      1.4720                 1.2974                 1.8540
 Frc consts  --      1.1179                 1.0372                 1.5451
 IR Inten    --     10.0674                 4.3513                86.5521

                     34                     35                     36
                      A                      A                      A
 Frequencies --   1198.7161              1218.8923              1227.0125
 Red. masses --      1.1700                 1.1273                 1.2100
 Frc consts  --      0.9906                 0.9868                 1.0733
 IR Inten    --      5.5340                 2.4030                11.1171

                     37                     38                     39
                      A                      A                      A
 Frequencies --   1259.3748              1281.2698              1296.6705
 Red. masses --      1.2097                 1.2398                 1.2222
 Frc consts  --      1.1304                 1.1992                 1.2107
 IR Inten    --      5.1876                 5.8210                12.4820

                     40                     41                     42
                      A                      A                      A
 Frequencies --   1329.4386              1331.5012              1349.8627
 Red. masses --      1.2831                 1.2740                 1.2584
 Frc consts  --      1.3362                 1.3307                 1.3510
 IR Inten    --      7.2287                20.9804                 7.4597

                     43                     44                     45
                      A                      A                      A
 Frequencies --   1365.7579              1370.1350              1404.8898
 Red. masses --      1.5153                 1.2434                 1.3049
 Frc consts  --      1.6653                 1.3753                 1.5174
 IR Inten    --      5.0259                 2.9220                14.9822

                     46                     47                     48
                      A                      A                      A
 Frequencies --   1448.9951              1482.2148              1488.2122
 Red. masses --      1.2988                 1.0814                 1.0887
 Frc consts  --      1.6067                 1.3998                 1.4206
 IR Inten    --      7.9574                 5.2037                 8.5148

                     49                     50                     51
                      A                      A                      A
 Frequencies --   1492.4875              1540.3562              1570.7477
 Red. masses --      1.0924                 1.0883                 1.1075
 Frc consts  --      1.4337                 1.5214                 1.6100
 IR Inten    --      3.5791                 4.4092                 4.5182

                     52                     53                     54
                      A                      A                      A
 Frequencies --   2974.5150              3021.9308              3053.3628
 Red. masses --      1.0710                 1.0718                 1.0840
 Frc consts  --      5.5829                 5.7669                 5.9541
 IR Inten    --    136.6448                53.4218                14.7830

                     55                     56                     57
                      A                      A                      A
 Frequencies --   3060.4964              3062.4911              3067.7288
 Red. masses --      1.0794                 1.0640                 1.0590
 Frc consts  --      5.9568                 5.8796                 5.8717
 IR Inten    --     54.8261                 4.7200                30.2682

                     58                     59                     60
                      A                      A                      A
 Frequencies --   3086.9126              3111.5388              3122.9594
 Red. masses --      1.0592                 1.1066                 1.1076
 Frc consts  --      5.9469                 6.3125                 6.3643
 IR Inten    --     10.3983                 4.3938                16.7428

                     61                     62                     63
                      A                      A                      A
 Frequencies --   3126.4605              3136.7504              3142.8040
 Red. masses --      1.0956                 1.0966                 1.1050
 Frc consts  --      6.3097                 6.3571                 6.4307
 IR Inten    --     37.8762                14.1835                 4.9240

 - Thermochemistry -
 -------------------
 Temperature   298.150 Kelvin.  Pressure   1.00000 Atm.
 Atom     1 has atomic number  6 and mass  12.00000

 Molecular mass:   192.02787 amu.
 Principal axes and moments of inertia in atomic units:
                           1         2         3
     Eigenvalues --  1174.149543238.538253906.84643
           X            0.99996   0.00785   0.00455
           Y           -0.00777   0.99982  -0.01713
           Z           -0.00469   0.01709   0.99984
 This molecule is an asymmetric top.
 Rotational symmetry number  1.
 Warning -- assumption of classical behavior for rotation
           may cause significant error
 Rotational temperatures (Kelvin)      0.07377     0.02674     0.02217
 Rotational constants (GHZ):           1.53706     0.55727     0.46194
 Zero-point vibrational energy     500282.1 (Joules/Mol)
                                  119.57029 (Kcal/Mol)
 Warning -- explicit consideration of  13 degrees of freedom as
           vibrations may cause significant error
 Vibrational temperatures:     90.97    95.82   128.80   202.36   279.52
          (Kelvin)            328.53   369.96   400.68   445.18   476.35
                              547.14   665.63   811.36   933.42   983.21
                              993.68  1059.72  1080.57  1156.47  1219.54
                             1259.52  1331.78  1386.17  1397.60  1421.88
                             1461.40  1472.50  1494.34  1546.24  1615.39
                             1633.47  1675.98  1711.15  1724.69  1753.71
                             1765.40  1811.96  1843.46  1865.62  1912.77
                             1915.73  1942.15  1965.02  1971.32  2021.32
                             2084.78  2132.58  2141.21  2147.36  2216.23
                             2259.96  4279.66  4347.88  4393.11  4403.37
                             4406.24  4413.78  4441.38  4476.81  4493.24
                             4498.28  4513.08  4521.79

 Zero-point correction=                           0.190547 (Hartree/Particle)
 Thermal correction to Energy=                    0.201281
 Thermal correction to Enthalpy=                  0.202225
 Thermal correction to Gibbs Free Energy=         0.153061
 Sum of electronic and zero-point Energies=          -1220.626747
 Sum of electronic and thermal Energies=             -1220.616013
 Sum of electronic and thermal Enthalpies=           -1220.615069
 Sum of electronic and thermal Free Energies=        -1220.664233

                     E (Thermal)             CV                S
                      KCal/Mol        Cal/Mol-Kelvin    Cal/Mol-Kelvin
 Total                  126.306             40.230            103.475
 Electronic               0.000              0.000              0.000
 Translational            0.889              2.981             41.663
 Rotational               0.889              2.981             31.075
 Vibrational            124.528             34.269             30.737
 Vibration     1          0.597              1.972              4.354
 Vibration     2          0.598              1.970              4.252
 Vibration     3          0.602              1.957              3.670
 Vibration     4          0.615              1.913              2.795
 Vibration     5          0.635              1.848              2.187
 Vibration     6          0.651              1.798              1.892
 Vibration     7          0.667              1.751              1.681
 Vibration     8          0.679              1.713              1.543
 Vibration     9          0.699              1.656              1.365
 Vibration    10          0.713              1.613              1.255
 Vibration    11          0.750              1.512              1.038
 Vibration    12          0.820              1.333              0.758
 Vibration    13          0.920              1.109              0.516

 Optimization completed.
    -- Stationary point found.
 Normal termination of Gaussian 16 at Tue Dec  8 20:10:04 2020.

 ----------------------------------------------------------------------
 # B3LYP/6-311++G(d,p) empiricaldispersion=gd3bj scf=xqc pop=npa geom=c
 heck
 ----------------------------------------------------------------------

 --------------------------------------
 CID_89857615_JID_1465_Energie_neutraal
 --------------------------------------
 Structure from the checkpoint file:  "JID_1465.chk"
 Charge =  0 Multiplicity = 1

 SCF Done:  E(RB3LYP) =  -1220.99196837     A.U. after   13 cycles
 Normal termination of Gaussian 16 at Tue Dec  8 20:13:28 2020.

 ----------------------------------------------------------------------
 # B3LYP/6-311++G(d,p) empiricaldispersion=gd3bj scf=xqc pop=npa geom=c
 heck
 ----------------------------------------------------------------------

 ------------------------------------
 CID_89857615_JID_1465_Energie_kation
 ------------------------------------
 Structure from the checkpoint file:  "JID_1465.chk"
 Charge =  1 Multiplicity = 2

 SCF Done:  E(UB3LYP) =  -1220.69499969     A.U. after   23 cycles
 Normal termination of Gaussian 16 at Tue Dec  8 20:19:36 2020.
 Gaussian 16:  ES64L-G16RevA.03 25-Dec-2016

 ----------------------------------------------------------------------
 # B3LYP/6-311++G(d,p) empiricaldispersion=gd3bj scf=xqc pop=npa geom=c
 heck
 ----------------------------------------------------------------------

 -----------------------------------
 CID_89857615_JID_1465_Energie_anion
 -----------------------------------
 Structure from the checkpoint file:  "JID_1465.chk"
 Charge = -1 Multiplicity = 2

                         Standard orientation:
 ---------------------------------------------------------------------
 Center     Atomic      Atomic             Coordinates (Angstroms)
 Number     Number       Type             X           Y           Z
 ---------------------------------------------------------------------
      1          6           0       -2.941419    0.299619   -0.518797
      2          6           0       -2.681538   -0.993183    0.248698
      3         16           0       -1.010948   -1.689186   -0.045101
      4          6           0        0.012211   -0.282564    0.572356
      5          6           0       -0.246167    1.001024   -0.218475
      6         16           0       -1.915275    1.705438    0.053896
      7          6           0        1.484611   -0.713055    0.528614
      8          6           0        2.448055    0.321215    1.155615
      9          8           0        2.946633    1.036137    0.031061
     10          6           0        3.052402    0.054551   -0.971224
     11          8           0        1.939932   -0.811323   -0.825896
     12          1           0       -3.976606    0.624786   -0.366719
     13          1           0       -2.785177    0.145053   -1.591092
     14          1           0       -2.834941   -0.839868    1.321900
     15          1           0       -3.373092   -1.774326   -0.086345
     16          1           0       -0.254516   -0.124895    1.624729
     17          1           0       -0.085782    0.815504   -1.282961
     18          1           0        0.448063    1.789038    0.089665
     19          1           0        1.587057   -1.690138    1.016794
     20          1           0        3.265844   -0.183722    1.690677
     21          1           0        1.963081    1.031198    1.828916
     22          1           0        3.014049    0.540644   -1.949216
     23          1           0        3.990130   -0.517462   -0.859113
 ---------------------------------------------------------------------

 SCF Done:  E(UB3LYP) =  -1220.97615387     A.U. after   32 cycles

 The electronic state is 2-A.
 Alpha  occ. eigenvalues --  -88.74484 -88.74089 -19.04761 -19.04001 -10.17431
 Alpha  occ. eigenvalues --  -10.14028 -10.13025 -10.11483 -10.10778 -10.10642
 Alpha  occ. eigenvalues --  -10.10524  -7.83108  -7.82725  -5.79500  -5.79147
 Alpha  occ. eigenvalues --   -5.79114  -5.78769  -5.78469  -5.78074  -1.00753
 Alpha  occ. eigenvalues --   -0.91272  -0.75453  -0.70441  -0.66712  -0.65055
 Alpha  occ. eigenvalues --   -0.56301  -0.55131  -0.53734  -0.50545  -0.46370
 Alpha  occ. eigenvalues --   -0.42404  -0.42248  -0.38416  -0.37406  -0.36530
 Alpha  occ. eigenvalues --   -0.36108  -0.34693  -0.31985  -0.31418  -0.30796
 Alpha  occ. eigenvalues --   -0.30324  -0.27670  -0.25888  -0.25634  -0.23689
 Alpha  occ. eigenvalues --   -0.22965  -0.20576  -0.18647  -0.17654  -0.13792
 Alpha  occ. eigenvalues --   -0.12712   0.04574
 Alpha virt. eigenvalues --    0.05921   0.07479   0.08301   0.08735   0.09159
 Alpha virt. eigenvalues --    0.09586   0.10471   0.10952   0.11111   0.11896
 Alpha virt. eigenvalues --    0.12825   0.12961   0.13489   0.14169   0.14850

  Beta  occ. eigenvalues --  -88.74481 -88.74087 -19.04756 -19.03999 -10.17405
  Beta  occ. eigenvalues --  -10.14016 -10.12980 -10.11473 -10.10753 -10.10613
  Beta  occ. eigenvalues --  -10.10517  -7.83105  -7.82722  -5.79498  -5.79140
  Beta  occ. eigenvalues --   -5.79113  -5.78762  -5.78465  -5.78072  -1.00742
  Beta  occ. eigenvalues --   -0.91261  -0.75428  -0.70401  -0.66684  -0.65011
  Beta  occ. eigenvalues --   -0.56257  -0.55060  -0.53697  -0.50496  -0.46325
  Beta  occ. eigenvalues --   -0.42373  -0.42199  -0.38373  -0.37347  -0.36490
  Beta  occ. eigenvalues --   -0.36061  -0.34649  -0.31954  -0.31378  -0.30763
  Beta  occ. eigenvalues --   -0.30300  -0.27635  -0.25868  -0.25600  -0.23663
  Beta  occ. eigenvalues --   -0.22934  -0.20546  -0.18614  -0.17617  -0.13771
  Beta  occ. eigenvalues --   -0.12697
  Beta virt. eigenvalues --    0.07052   0.07314   0.08113   0.08849   0.09256
  Beta virt. eigenvalues --    0.09699   0.10105   0.10780   0.11475   0.11624
  Beta virt. eigenvalues --    0.12004   0.12952   0.13078   0.13787   0.14466

 Mulliken charges and spin densities:
               1          2
     1  C    0.140738  -0.520034
     2  C    0.187557  -0.528262
     3  S   -0.069675  -0.202653
     4  C    1.014305  -0.371317
     5  C   -0.336770  -0.397811
     6  S    0.098917  -0.155492
     7  C   -1.714898   1.544092
     8  C    1.785794  -2.498711
     9  O   -0.143123   0.047527
    10  C    0.668872  -0.789616
    11  O   -0.095326  -0.016770
    12  H   -0.645823   0.857276
    13  H    0.182724  -0.034828
    14  H    0.024411   0.137542
    15  H   -0.441960   0.655523
    16  H   -0.119920   0.357591
    17  H    0.154808   0.072261
    18  H    0.373665  -0.150815
    19  H   -0.475064   0.706302
    20  H   -0.863748   1.046298
    21  H   -0.277578   0.464190
    22  H   -0.047583   0.225560
    23  H   -0.400324   0.552146
 Sum of Mulliken charges =  -1.00000   1.00000

 Dipole moment (field-independent basis, Debye):
    X=             -1.1873    Y=              2.2757    Z=             -3.2757  Tot=              4.1616
 Quadrupole moment (field-independent basis, Debye-Ang):
   XX=           -169.5038   YY=           -117.7630   ZZ=           -114.5421
   XY=              2.8765   XZ=             -9.8876   YZ=              1.4835

 Summary of Natural Population Analysis:

                                       Natural Population
                Natural  -----------------------------------------------
    Atom  No    Charge         Core      Valence    Rydberg      Total
 -----------------------------------------------------------------------
      C    1   -0.25732      0.99958     2.24494    0.01280     3.25732
      C    2   -0.25838      0.99958     2.24595    0.01286     3.25838
      S    3    0.09770      4.99961     2.88592    0.01677     7.90230
      C    4   -0.17946      0.99951     2.16372    0.01623     3.17946
      C    5   -0.26015      0.99953     2.24935    0.01128     3.26015
      S    6    0.08744      4.99964     2.89404    0.01888     7.91256
      C    7    0.04803      0.99952     1.93481    0.01764     2.95197
      C    8   -0.02548      0.99958     2.01165    0.01425     3.02548
      O    9   -0.29489      0.99989     3.28623    0.00877     4.29489
      C   10    0.14934      0.99965     1.83395    0.01706     2.85066
      O   11   -0.30332      0.99989     3.29564    0.00779     4.30332
      H   12    0.11157      0.00000     0.38586    0.00257     0.38843
      H   13    0.10191      0.00000     0.39646    0.00163     0.39809
      H   14    0.10349      0.00000     0.39442    0.00208     0.39651
      H   15    0.11130      0.00000     0.38661    0.00209     0.38870
      H   16    0.10699      0.00000     0.39098    0.00202     0.39301
      H   17    0.10929      0.00000     0.38894    0.00177     0.39071
      H   18    0.11388      0.00000     0.38464    0.00147     0.38612
      H   19    0.09864      0.00000     0.39911    0.00225     0.40136
      H   20    0.09313      0.00000     0.40063    0.00624     0.40687
      H   21    0.09659      0.00000     0.40162    0.00179     0.40341
      H   22    0.08060      0.00000     0.41821    0.00120     0.41940
      H   23    0.06909      0.00000     0.42904    0.00187     0.43091
 =======================================================================
   * Total *   -0.00000     18.99596    31.82272    0.18132    51.00000

 Normal termination of Gaussian 16 at Tue Dec  8 20:28:12 2020.
