 Gaussian 16, Revision A.03,

 -----------------------------------------------------------
 # opt freq B3LYP/6-31G(d) empiricaldispersion=gd3bj scf=xqc
 -----------------------------------------------------------

 ------------------------------
 CID_22643474_JID_2398_neutraal
 ------------------------------
 Symbolic Z-matrix:
 Charge =  0 Multiplicity = 1

 SCF Done:  E(RB3LYP) =  -571.975208857     A.U. after   15 cycles
 SCF Done:  E(RB3LYP) =  -571.959916006     A.U. after   16 cycles
 SCF Done:  E(RB3LYP) =  -571.977538076     A.U. after   14 cycles
 SCF Done:  E(RB3LYP) =  -571.976022817     A.U. after   16 cycles
 SCF Done:  E(RB3LYP) =  -571.978398098     A.U. after   14 cycles
 SCF Done:  E(RB3LYP) =  -571.978625606     A.U. after   12 cycles
 SCF Done:  E(RB3LYP) =  -571.978903895     A.U. after   14 cycles
 SCF Done:  E(RB3LYP) =  -571.978958813     A.U. after   11 cycles
 SCF Done:  E(RB3LYP) =  -571.978979075     A.U. after   11 cycles
 SCF Done:  E(RB3LYP) =  -571.978986087     A.U. after    9 cycles
 SCF Done:  E(RB3LYP) =  -571.979462886     A.U. after    9 cycles
 SCF Done:  E(RB3LYP) =  -571.979463096     A.U. after    8 cycles
 SCF Done:  E(RB3LYP) =  -571.979463280     A.U. after    9 cycles
 SCF Done:  E(RB3LYP) =  -571.979463354     A.U. after    8 cycles
 SCF Done:  E(RB3LYP) =  -571.979463377     A.U. after    7 cycles
 SCF Done:  E(RB3LYP) =  -571.979463379     A.U. after    6 cycles
 Optimization completed.
    -- Stationary point found.
 Normal termination of Gaussian 16 at Mon Dec 14 17:06:41 2020.

 --------------------------------------------------------------------
 #N Geom=AllCheck Guess=TCheck SCRF=Check GenChk RB3LYP/6-31G(d) Freq
 --------------------------------------------------------------------

 Structure from the checkpoint file:  "JID_2398.chk"
 ------------------------------
 CID_22643474_JID_2398_neutraal
 ------------------------------
 Charge =  0 Multiplicity = 1

 SCF Done:  E(RB3LYP) =  -571.979463379     A.U. after    1 cycles

  Exact polarizability: 145.927 -27.864  73.531  -5.628 -12.164 103.034
 Approx polarizability: 237.714 -58.881 111.969 -12.131 -29.708 193.698

                      1                      2                      3
                      A                      A                      A
 Frequencies --     24.3248                30.4192                40.2645
 Red. masses --      2.1523                 3.9599                 3.1863
 Frc consts  --      0.0008                 0.0022                 0.0030
 IR Inten    --      0.2142                 1.3339                 0.3504

                      4                      5                      6
                      A                      A                      A
 Frequencies --     59.5830                79.2618                90.0511
 Red. masses --      1.3165                 5.1259                 3.5211
 Frc consts  --      0.0028                 0.0190                 0.0168
 IR Inten    --      0.0149                 0.2790                 0.3108

                      7                      8                      9
                      A                      A                      A
 Frequencies --    103.3095               122.9799               228.8361
 Red. masses --      2.4773                 4.0749                 6.5362
 Frc consts  --      0.0156                 0.0363                 0.2017
 IR Inten    --      0.1609                 0.7147                 0.5169

                     10                     11                     12
                      A                      A                      A
 Frequencies --    295.6242               318.3259               366.4468
 Red. masses --      5.1112                 1.0106                 1.1170
 Frc consts  --      0.2632                 0.0603                 0.0884
 IR Inten    --      9.1638                 0.1580                17.0340

                     13                     14                     15
                      A                      A                      A
 Frequencies --    367.3419               395.4101               424.9055
 Red. masses --      5.8164                 3.2401                 3.2216
 Frc consts  --      0.4624                 0.2985                 0.3427
 IR Inten    --      1.6788                 0.2265                 0.0470

                     16                     17                     18
                      A                      A                      A
 Frequencies --    482.6658               523.3490               541.4627
 Red. masses --      1.5138                 2.1433                 6.8166
 Frc consts  --      0.2078                 0.3459                 1.1775
 IR Inten    --    334.3967               193.0011                 2.0277

                     19                     20                     21
                      A                      A                      A
 Frequencies --    645.9460               651.2325               702.4925
 Red. masses --      6.3023                 6.9000                 3.5506
 Frc consts  --      1.5493                 1.7241                 1.0324
 IR Inten    --      5.9624                 0.6528                 6.2663

                     22                     23                     24
                      A                      A                      A
 Frequencies --    759.7448               823.0391               826.1212
 Red. masses --      6.7851                 1.2566                 5.7575
 Frc consts  --      2.3075                 0.5015                 2.3151
 IR Inten    --     30.6938                 0.8322                 7.1256

                     25                     26                     27
                      A                      A                      A
 Frequencies --    834.8454               836.2597               851.3937
 Red. masses --      1.0582                 1.0582                 1.8657
 Frc consts  --      0.4346                 0.4360                 0.7968
 IR Inten    --      4.2475                10.5062                50.2965

                     28                     29                     30
                      A                      A                      A
 Frequencies --    879.1886               968.7420               981.4146
 Red. masses --      7.8555                 1.3086                 1.3081
 Frc consts  --      3.5776                 0.7236                 0.7423
 IR Inten    --     21.1216                 0.0550                 1.1262

                     31                     32                     33
                      A                      A                      A
 Frequencies --   1012.8294              1028.6481              1086.2865
 Red. masses --      3.2501                 2.7657                 1.4117
 Frc consts  --      1.9644                 1.7242                 0.9814
 IR Inten    --      0.0701                 0.1531                 3.3054

                     34                     35                     36
                      A                      A                      A
 Frequencies --   1144.5771              1159.9361              1217.2283
 Red. masses --      2.5256                 1.1568                 1.3569
 Frc consts  --      1.9494                 0.9170                 1.1845
 IR Inten    --     86.7357                 9.3838                18.9269

                     37                     38                     39
                      A                      A                      A
 Frequencies --   1236.0354              1238.4206              1341.9386
 Red. masses --      1.4622                 1.4628                 1.3433
 Frc consts  --      1.3162                 1.3218                 1.4252
 IR Inten    --      0.2740                 0.9653                 0.1393

                     40                     41                     42
                      A                      A                      A
 Frequencies --   1347.1623              1393.0116              1400.8310
 Red. masses --      3.2326                11.1907                 6.8232
 Frc consts  --      3.4566                12.7943                 7.8888
 IR Inten    --    157.7455               486.2573                 0.2872

                     43                     44                     45
                      A                      A                      A
 Frequencies --   1431.9483              1454.3835              1494.1004
 Red. masses --      1.2000                 1.2569                 3.2236
 Frc consts  --      1.4497                 1.5665                 4.2398
 IR Inten    --      0.7520                 0.8142                 0.2029

                     46                     47                     48
                      A                      A                      A
 Frequencies --   1531.0816              1532.3992              1536.4244
 Red. masses --      1.0259                 1.0213                 1.0665
 Frc consts  --      1.4169                 1.4130                 1.4833
 IR Inten    --      3.3512                 1.4729                 5.9339

                     49                     50                     51
                      A                      A                      A
 Frequencies --   1537.5288              1554.2652              1607.7783
 Red. masses --      1.0690                 2.5857                10.0514
 Frc consts  --      1.4890                 3.6802                15.3083
 IR Inten    --     11.8188                32.0992               115.5393

                     52                     53                     54
                      A                      A                      A
 Frequencies --   1661.8251              1665.2524              1696.2170
 Red. masses --      8.5133                 3.7805                 1.3055
 Frc consts  --     13.8522                 6.1767                 2.2131
 IR Inten    --     92.5060               103.0084               176.5245

                     55                     56                     57
                      A                      A                      A
 Frequencies --   3046.8239              3056.1712              3098.6571
 Red. masses --      1.0353                 1.0378                 1.1013
 Frc consts  --      5.6624                 5.7112                 6.2302
 IR Inten    --     21.4465                25.8159                 1.6393

                     58                     59                     60
                      A                      A                      A
 Frequencies --   3106.6268              3123.5923              3143.4575
 Red. masses --      1.1013                 1.1028                 1.1006
 Frc consts  --      6.2621                 6.3397                 6.4073
 IR Inten    --     26.3848                55.8659                46.5946

                     61                     62                     63
                      A                      A                      A
 Frequencies --   3192.7209              3194.5622              3252.5899
 Red. masses --      1.0903                 1.0902                 1.0923
 Frc consts  --      6.5479                 6.5553                 6.8085
 IR Inten    --     12.0389                11.3687                 0.8554

                     64                     65                     66
                      A                      A                      A
 Frequencies --   3252.8313              3576.1344              3679.3610
 Red. masses --      1.0924                 1.0472                 1.1004
 Frc consts  --      6.8104                 7.8909                 8.7773
 IR Inten    --      1.2225                48.7934                18.6356

 - Thermochemistry -
 -------------------
 Temperature   298.150 Kelvin.  Pressure   1.00000 Atm.
 Atom     1 has atomic number  6 and mass  12.00000

 Molecular mass:   168.08988 amu.
 Principal axes and moments of inertia in atomic units:
                           1         2         3
     Eigenvalues --  1436.915663184.411473673.96259
           X            0.99945   0.03324   0.00008
           Y           -0.03324   0.99944   0.00274
           Z            0.00001  -0.00274   1.00000
 This molecule is an asymmetric top.
 Rotational symmetry number  1.
 Warning -- assumption of classical behavior for rotation
           may cause significant error
 Rotational temperatures (Kelvin)      0.06028     0.02720     0.02358
 Rotational constants (GHZ):           1.25598     0.56674     0.49122
 Zero-point vibrational energy     516120.6 (Joules/Mol)
                                  123.35577 (Kcal/Mol)
 Warning -- explicit consideration of  18 degrees of freedom as
           vibrations may cause significant error
 Vibrational temperatures:     35.00    43.77    57.93    85.73   114.04
          (Kelvin)            129.56   148.64   176.94   329.24   425.34
                              458.00   527.24   528.52   568.91   611.34
                              694.45   752.98   779.04   929.37   936.98
                             1010.73  1093.10  1184.17  1188.60  1201.16
                             1203.19  1224.97  1264.96  1393.80  1412.04
                             1457.24  1480.00  1562.92  1646.79  1668.89
                             1751.32  1778.38  1781.81  1930.75  1938.27
                             2004.23  2015.48  2060.25  2092.53  2149.68
                             2202.88  2204.78  2210.57  2212.16  2236.24
                             2313.23  2391.00  2395.93  2440.48  4383.70
                             4397.15  4458.28  4469.74  4494.15  4522.73
                             4593.61  4596.26  4679.75  4680.10  5145.26
                             5293.78

 Zero-point correction=                           0.196580 (Hartree/Particle)
 Thermal correction to Energy=                    0.210284
 Thermal correction to Enthalpy=                  0.211228
 Thermal correction to Gibbs Free Energy=         0.153262
 Sum of electronic and zero-point Energies=           -571.782883
 Sum of electronic and thermal Energies=              -571.769180
 Sum of electronic and thermal Enthalpies=            -571.768236
 Sum of electronic and thermal Free Energies=         -571.826202

                     E (Thermal)             CV                S
                      KCal/Mol        Cal/Mol-Kelvin    Cal/Mol-Kelvin
 Total                  131.955             47.410            122.000
 Electronic               0.000              0.000              0.000
 Translational            0.889              2.981             41.266
 Rotational               0.889              2.981             31.198
 Vibrational            130.178             41.448             49.536
 Vibration     1          0.593              1.985              6.246
 Vibration     2          0.594              1.984              5.802
 Vibration     3          0.594              1.981              5.246
 Vibration     4          0.597              1.974              4.471
 Vibration     5          0.600              1.963              3.909
 Vibration     6          0.602              1.956              3.659
 Vibration     7          0.605              1.947              3.391
 Vibration     8          0.610              1.930              3.053
 Vibration     9          0.652              1.797              1.888
 Vibration    10          0.690              1.682              1.442
 Vibration    11          0.705              1.639              1.319
 Vibration    12          0.739              1.541              1.095
 Vibration    13          0.740              1.539              1.091
 Vibration    14          0.762              1.480              0.980
 Vibration    15          0.787              1.416              0.875
 Vibration    16          0.839              1.288              0.703
 Vibration    17          0.878              1.198              0.602
 Vibration    18          0.897              1.158              0.562

 Optimization completed.
    -- Stationary point found.
 Normal termination of Gaussian 16 at Mon Dec 14 17:11:41 2020.

 ----------------------------------------------------------------------
 # B3LYP/6-311++G(d,p) empiricaldispersion=gd3bj scf=xqc pop=npa geom=c
 heck
 ----------------------------------------------------------------------

 --------------------------------------
 CID_22643474_JID_2398_Energie_neutraal
 --------------------------------------
 Structure from the checkpoint file:  "JID_2398.chk"
 Charge =  0 Multiplicity = 1

 SCF Done:  E(RB3LYP) =  -572.151641970     A.U. after   14 cycles
 Normal termination of Gaussian 16 at Mon Dec 14 17:13:43 2020.

 ----------------------------------------------------------------------
 # B3LYP/6-311++G(d,p) empiricaldispersion=gd3bj scf=xqc pop=npa geom=c
 heck
 ----------------------------------------------------------------------

 ------------------------------------
 CID_22643474_JID_2398_Energie_kation
 ------------------------------------
 Structure from the checkpoint file:  "JID_2398.chk"
 Charge =  1 Multiplicity = 2

 SCF Done:  E(UB3LYP) =  -571.836590779     A.U. after   23 cycles
 Normal termination of Gaussian 16 at Mon Dec 14 17:18:22 2020.
 Gaussian 16:  ES64L-G16RevA.03 25-Dec-2016

 ----------------------------------------------------------------------
 # B3LYP/6-311++G(d,p) empiricaldispersion=gd3bj scf=xqc pop=npa geom=c
 heck
 ----------------------------------------------------------------------

 -----------------------------------
 CID_22643474_JID_2398_Energie_anion
 -----------------------------------
 Structure from the checkpoint file:  "JID_2398.chk"
 Charge = -1 Multiplicity = 2

                         Standard orientation:
 ---------------------------------------------------------------------
 Center     Atomic      Atomic             Coordinates (Angstroms)
 Number     Number       Type             X           Y           Z
 ---------------------------------------------------------------------
      1          6           0        1.680034    2.376337    0.729738
      2          6           0        2.867874    1.944342   -0.131359
      3          6           0        0.598310   -1.344571    1.074892
      4          6           0       -0.694013   -0.847456    1.094927
      5          6           0       -1.232924   -0.291678   -0.066892
      6          6           0       -0.491901   -0.235251   -1.249131
      7          6           0        0.798491   -0.735980   -1.267372
      8          6           0        1.368329   -1.295198   -0.105021
      9          7           0        2.643305   -1.823960   -0.134719
     10          7           0       -2.585662    0.242212   -0.044063
     11          8           0       -3.213696    0.177899    1.016371
     12          8           0       -3.030822    0.730792   -1.086276
     13          1           0        1.972843    2.498207    1.778889
     14          1           0        0.874072    1.637698    0.692223
     15          1           0        1.271215    3.333589    0.387598
     16          1           0        3.675735    2.684501   -0.102882
     17          1           0        3.280427    0.988806    0.212996
     18          1           0        2.569651    1.816219   -1.178100
     19          1           0        1.026517   -1.775728    1.975539
     20          1           0       -1.293730   -0.874212    1.995906
     21          1           0       -0.937982    0.203998   -2.132398
     22          1           0        1.382343   -0.696121   -2.182529
     23          1           0        3.110584   -1.941240    0.754012
     24          1           0        3.255754   -1.496289   -0.869226
 ---------------------------------------------------------------------

 SCF Done:  E(UB3LYP) =  -572.176733083     A.U. after   25 cycles

 The electronic state is 2-A.
 Alpha  occ. eigenvalues --  -18.93314 -18.93305 -14.30919 -14.20659 -10.07754
 Alpha  occ. eigenvalues --  -10.05738 -10.05048 -10.04901 -10.04155 -10.04124
 Alpha  occ. eigenvalues --  -10.03514 -10.03475  -1.01243  -0.84052  -0.80796
 Alpha  occ. eigenvalues --   -0.71598  -0.64830  -0.62236  -0.61896  -0.52453
 Alpha  occ. eigenvalues --   -0.51165  -0.48825  -0.43966  -0.40029  -0.39868
 Alpha  occ. eigenvalues --   -0.35534  -0.33875  -0.33214  -0.33126  -0.31954
 Alpha  occ. eigenvalues --   -0.31319  -0.29509  -0.28999  -0.26968  -0.26337
 Alpha  occ. eigenvalues --   -0.25650  -0.24128  -0.23949  -0.21385  -0.18891
 Alpha  occ. eigenvalues --   -0.13380  -0.12122  -0.11314  -0.09113  -0.08825
 Alpha  occ. eigenvalues --    0.03863
 Alpha virt. eigenvalues --    0.06410   0.08402   0.08869   0.10039   0.11160
 Alpha virt. eigenvalues --    0.11452   0.11675   0.12267   0.12847   0.13923
 Alpha virt. eigenvalues --    0.15345   0.15509   0.15596   0.16111   0.17864

  Beta  occ. eigenvalues --  -18.92852 -18.92839 -14.30259 -14.20596 -10.07451
  Beta  occ. eigenvalues --  -10.05732 -10.05023 -10.04898 -10.04247 -10.04219
  Beta  occ. eigenvalues --  -10.03360 -10.03314  -1.00180  -0.83166  -0.80570
  Beta  occ. eigenvalues --   -0.71374  -0.64822  -0.61747  -0.61730  -0.51563
  Beta  occ. eigenvalues --   -0.51148  -0.48687  -0.43603  -0.39801  -0.39785
  Beta  occ. eigenvalues --   -0.34859  -0.33249  -0.33179  -0.31555  -0.31213
  Beta  occ. eigenvalues --   -0.30770  -0.29469  -0.28552  -0.26693  -0.26167
  Beta  occ. eigenvalues --   -0.25085  -0.24101  -0.23911  -0.21287  -0.18154
  Beta  occ. eigenvalues --   -0.12646  -0.10871  -0.09180  -0.08650  -0.07929
  Beta virt. eigenvalues --    0.06455   0.08326   0.08795   0.09953   0.10541
  Beta virt. eigenvalues --    0.11110   0.11571   0.11673   0.12417   0.13140
  Beta virt. eigenvalues --    0.13884   0.15250   0.15436   0.16081   0.17471

 Mulliken charges and spin densities:
               1          2
     1  C   -0.232318  -0.114518
     2  C   -0.340941  -0.102358
     3  C   -0.087503  -0.040324
     4  C   -0.118958   0.144573
     5  C   -0.188333  -0.074461
     6  C   -0.195777   0.169477
     7  C   -0.029794  -0.108932
     8  C   -0.201873   0.100326
     9  N   -0.366020   0.036124
    10  N   -0.258360   0.207562
    11  O   -0.212352   0.184962
    12  O   -0.207601   0.183230
    13  H    0.093233   0.007397
    14  H    0.016269   0.126458
    15  H    0.110400   0.001495
    16  H    0.067654   0.048266
    17  H    0.027560   0.109542
    18  H    0.107816   0.020850
    19  H    0.118843   0.008216
    20  H    0.217050  -0.012215
    21  H    0.218813  -0.012116
    22  H    0.127600   0.003727
    23  H    0.162538   0.063382
    24  H    0.172055   0.049337
 Sum of Mulliken charges =  -1.00000   1.00000

 Dipole moment (field-independent basis, Debye):
    X=              9.5797    Y=             -0.8814    Z=              0.1930  Tot=              9.6221
 Quadrupole moment (field-independent basis, Debye-Ang):
   XX=           -122.3481   YY=            -88.0222   ZZ=            -81.9005
   XY=              4.8644   XZ=             -0.2470   YZ=             -0.9899

 Summary of Natural Population Analysis:

                                       Natural Population
                Natural  -----------------------------------------------
    Atom  No    Charge         Core      Valence    Rydberg      Total
 -----------------------------------------------------------------------
      C    1   -0.28809      0.99968     2.28370    0.00471     3.28809
      C    2   -0.28629      0.99969     2.28247    0.00414     3.28629
      C    3   -0.15928      0.99953     2.14963    0.01012     3.15928
      C    4   -0.05855      0.99953     2.04750    0.01152     3.05855
      C    5    0.01783      0.99941     1.96643    0.01633     2.98217
      C    6   -0.05685      0.99953     2.04593    0.01138     3.05685
      C    7   -0.15919      0.99954     2.14895    0.01070     3.15919
      C    8    0.12799      0.99951     1.86097    0.01153     2.87201
      N    9   -0.39475      0.99971     2.88560    0.00945     3.89475
      N   10    0.31064      0.99971     2.16433    0.02532     3.18936
      O   11   -0.19995      0.99990     3.19269    0.00736     4.19995
      O   12   -0.20044      0.99990     3.19318    0.00737     4.20044
      H   13    0.08898      0.00000     0.40997    0.00105     0.41102
      H   14    0.11368      0.00000     0.38489    0.00143     0.38632
      H   15    0.09121      0.00000     0.40780    0.00099     0.40879
      H   16    0.08625      0.00000     0.41275    0.00100     0.41375
      H   17    0.09629      0.00000     0.40201    0.00170     0.40371
      H   18    0.09767      0.00000     0.40118    0.00115     0.40233
      H   19    0.09106      0.00000     0.40764    0.00130     0.40894
      H   20    0.11291      0.00000     0.38606    0.00104     0.38709
      H   21    0.11279      0.00000     0.38619    0.00101     0.38721
      H   22    0.09112      0.00000     0.40757    0.00131     0.40888
      H   23    0.18231      0.00000     0.31625    0.00143     0.31769
      H   24    0.18265      0.00000     0.31592    0.00143     0.31735
 =======================================================================
   * Total *   -0.00000     11.99563    32.85961    0.14477    45.00000

 Normal termination of Gaussian 16 at Mon Dec 14 17:23:33 2020.
