 Gaussian 16, Revision A.03,

 -----------------------------------------------------------
 # opt freq B3LYP/6-31G(d) empiricaldispersion=gd3bj scf=xqc
 -----------------------------------------------------------

 -------------------------------
 CID_137924308_JID_7463_neutraal
 -------------------------------
 Symbolic Z-matrix:
 Charge =  0 Multiplicity = 1

 SCF Done:  E(RB3LYP) =  -1538.24766760     A.U. after   15 cycles
 SCF Done:  E(RB3LYP) =  -1538.25658306     A.U. after   12 cycles
 SCF Done:  E(RB3LYP) =  -1538.25810913     A.U. after   12 cycles
 SCF Done:  E(RB3LYP) =  -1538.25873029     A.U. after   12 cycles
 SCF Done:  E(RB3LYP) =  -1538.25902947     A.U. after   11 cycles
 SCF Done:  E(RB3LYP) =  -1538.25917439     A.U. after   10 cycles
 SCF Done:  E(RB3LYP) =  -1538.25923159     A.U. after   11 cycles
 SCF Done:  E(RB3LYP) =  -1538.25924792     A.U. after   10 cycles
 SCF Done:  E(RB3LYP) =  -1538.25925736     A.U. after   10 cycles
 SCF Done:  E(RB3LYP) =  -1538.25926186     A.U. after    9 cycles
 SCF Done:  E(RB3LYP) =  -1538.25926484     A.U. after   10 cycles
 SCF Done:  E(RB3LYP) =  -1538.25926560     A.U. after    8 cycles
 SCF Done:  E(RB3LYP) =  -1538.25926579     A.U. after    8 cycles
 Optimization completed.
    -- Stationary point found.
 Normal termination of Gaussian 16 at Sun Dec 13 12:31:25 2020.

 --------------------------------------------------------------------
 #N Geom=AllCheck Guess=TCheck SCRF=Check GenChk RB3LYP/6-31G(d) Freq
 --------------------------------------------------------------------

 Structure from the checkpoint file:  "JID_7463.chk"
 -------------------------------
 CID_137924308_JID_7463_neutraal
 -------------------------------
 Charge =  0 Multiplicity = 1

 SCF Done:  E(RB3LYP) =  -1538.25926579     A.U. after    1 cycles

  Exact polarizability: 167.308  -0.132 157.369  15.102   4.684 113.552
 Approx polarizability: 233.067  -4.327 259.662  35.849   1.930 195.601

                      1                      2                      3
                      A                      A                      A
 Frequencies --     30.0843                34.0471                41.8904
 Red. masses --      7.0317                 4.0606                 8.1389
 Frc consts  --      0.0037                 0.0028                 0.0084
 IR Inten    --      0.1731                 0.2941                 2.1755

                      4                      5                      6
                      A                      A                      A
 Frequencies --     65.2961                72.4046               124.8673
 Red. masses --      5.9564                 4.7079                 3.3309
 Frc consts  --      0.0150                 0.0145                 0.0306
 IR Inten    --      0.4493                 0.9418                 1.2445

                      7                      8                      9
                      A                      A                      A
 Frequencies --    151.4383               184.4219               190.8078
 Red. masses --      5.7428                 3.9858                 2.5741
 Frc consts  --      0.0776                 0.0799                 0.0552
 IR Inten    --      3.6082                 1.3255                 2.4838

                     10                     11                     12
                      A                      A                      A
 Frequencies --    216.5592               269.7881               275.1681
 Red. masses --      1.4558                 5.3606                 3.8095
 Frc consts  --      0.0402                 0.2299                 0.1699
 IR Inten    --      1.1058                 5.1479                 4.0849

                     13                     14                     15
                      A                      A                      A
 Frequencies --    294.6571               312.6104               329.7431
 Red. masses --      3.8430                 3.3112                 3.6764
 Frc consts  --      0.1966                 0.1907                 0.2355
 IR Inten    --      2.6813                 2.8977                10.8701

                     16                     17                     18
                      A                      A                      A
 Frequencies --    386.0252               396.2291               419.3344
 Red. masses --      3.5845                 2.2671                 2.9837
 Frc consts  --      0.3147                 0.2097                 0.3091
 IR Inten    --      0.7030                 7.5765                 2.9400

                     19                     20                     21
                      A                      A                      A
 Frequencies --    447.7437               482.6848               499.1685
 Red. masses --      2.8734                 3.9073                 4.3108
 Frc consts  --      0.3394                 0.5364                 0.6328
 IR Inten    --      6.5636                 2.7204                16.1064

                     22                     23                     24
                      A                      A                      A
 Frequencies --    506.7454               521.5995               553.5170
 Red. masses --      5.9803                 4.2779                 5.8358
 Frc consts  --      0.9048                 0.6857                 1.0535
 IR Inten    --     10.9477                22.2078                13.2833

                     25                     26                     27
                      A                      A                      A
 Frequencies --    603.3760               606.9089               624.7562
 Red. masses --      2.2484                 4.3775                 6.6414
 Frc consts  --      0.4823                 0.9500                 1.5273
 IR Inten    --     18.3259                 7.2376                 4.6015

                     28                     29                     30
                      A                      A                      A
 Frequencies --    650.3867               700.0715               731.8110
 Red. masses --      4.3798                 4.5154                 2.4496
 Frc consts  --      1.0916                 1.3039                 0.7729
 IR Inten    --     25.1270                10.5962               170.2060

                     31                     32                     33
                      A                      A                      A
 Frequencies --    741.5408               777.5297               853.4748
 Red. masses --      1.9765                 6.9561                 3.0194
 Frc consts  --      0.6403                 2.4777                 1.2958
 IR Inten    --     48.5518                11.2898                 0.1224

                     34                     35                     36
                      A                      A                      A
 Frequencies --    858.3365               891.4993               894.1966
 Red. masses --      1.8165                 4.6069                 1.3316
 Frc consts  --      0.7885                 2.1573                 0.6273
 IR Inten    --      1.0586                 3.5973                 2.3664

                     37                     38                     39
                      A                      A                      A
 Frequencies --    917.0413               924.9675               949.1021
 Red. masses --      2.4696                 3.0097                 3.3302
 Frc consts  --      1.2237                 1.5172                 1.7674
 IR Inten    --      9.5696               144.4737               168.1750

                     40                     41                     42
                      A                      A                      A
 Frequencies --    976.9702              1024.8957              1073.6137
 Red. masses --      2.3948                 2.3793                 2.3483
 Frc consts  --      1.3467                 1.4725                 1.5948
 IR Inten    --     54.4088                10.4639                46.1336

                     43                     44                     45
                      A                      A                      A
 Frequencies --   1092.6240              1098.4729              1116.6541
 Red. masses --      1.5610                 1.7963                 1.9475
 Frc consts  --      1.0980                 1.2770                 1.4308
 IR Inten    --     21.4195                18.0349                31.8642

                     46                     47                     48
                      A                      A                      A
 Frequencies --   1121.7023              1148.7690              1158.3181
 Red. masses --      8.3087                 5.8370                 2.2759
 Frc consts  --      6.1594                 4.5385                 1.7991
 IR Inten    --    114.0655                65.8865                 7.6423

                     49                     50                     51
                      A                      A                      A
 Frequencies --   1159.6439              1179.6426              1187.3327
 Red. masses --      1.4437                 4.4987                 3.8164
 Frc consts  --      1.1439                 3.6884                 3.1699
 IR Inten    --      9.3361                 9.4000                 2.2039

                     52                     53                     54
                      A                      A                      A
 Frequencies --   1219.4880              1243.0357              1254.6618
 Red. masses --      2.0471                 2.5390                 1.1029
 Frc consts  --      1.7937                 2.3114                 1.0229
 IR Inten    --      9.1868                36.3815                 5.9948

                     55                     56                     57
                      A                      A                      A
 Frequencies --   1301.3127              1314.2675              1335.2349
 Red. masses --      1.2345                 8.9612                 1.2433
 Frc consts  --      1.2317                 9.1198                 1.3060
 IR Inten    --     29.0357               195.2369                11.3207

                     58                     59                     60
                      A                      A                      A
 Frequencies --   1341.0469              1361.6582              1374.1438
 Red. masses --      1.3902                 1.8599                 1.2859
 Frc consts  --      1.4730                 2.0317                 1.4306
 IR Inten    --     10.9391                 0.7328                 5.2480

                     61                     62                     63
                      A                      A                      A
 Frequencies --   1375.1035              1382.6083              1408.1186
 Red. masses --      1.2634                 1.2784                 1.2742
 Frc consts  --      1.4076                 1.4399                 1.4886
 IR Inten    --      3.4453                29.7165                18.0700

                     64                     65                     66
                      A                      A                      A
 Frequencies --   1415.6634              1439.1908              1470.4117
 Red. masses --      1.3735                 1.3447                 1.1406
 Frc consts  --      1.6218                 1.6410                 1.4529
 IR Inten    --     12.9843                 2.8390                 4.0422

                     67                     68                     69
                      A                      A                      A
 Frequencies --   1486.5681              1492.5736              1494.7932
 Red. masses --      1.1041                 4.4306                 1.1232
 Frc consts  --      1.4375                 5.8155                 1.4787
 IR Inten    --     16.5996                 5.6367                 2.9314

                     70                     71                     72
                      A                      A                      A
 Frequencies --   1507.6247              1516.8388              1517.6590
 Red. masses --      1.0921                 1.0798                 1.0578
 Frc consts  --      1.4625                 1.4638                 1.4355
 IR Inten    --      9.1738                 0.8038                10.2286

                     73                     74                     75
                      A                      A                      A
 Frequencies --   1528.2540              1545.8095              1568.6303
 Red. masses --      1.1048                 1.0554                 5.9159
 Frc consts  --      1.5202                 1.4858                 8.5765
 IR Inten    --      4.0347                12.2787                27.4944

                     76                     77                     78
                      A                      A                      A
 Frequencies --   3006.9857              3029.5192              3039.7828
 Red. masses --      1.0696                 1.0668                 1.0437
 Frc consts  --      5.6980                 5.7689                 5.6819
 IR Inten    --     31.5552                26.4656                34.9327

                     79                     80                     81
                      A                      A                      A
 Frequencies --   3066.9129              3074.6591              3081.1717
 Red. masses --      1.0677                 1.0713                 1.0669
 Frc consts  --      5.9167                 5.9667                 5.9676
 IR Inten    --     15.2374                31.1715                17.0731

                     82                     83                     84
                      A                      A                      A
 Frequencies --   3113.6453              3115.9673              3117.5076
 Red. masses --      1.0960                 1.0994                 1.0959
 Frc consts  --      6.2604                 6.2893                 6.2751
 IR Inten    --     41.9403                44.8538                23.3113

                     85                     86                     87
                      A                      A                      A
 Frequencies --   3152.7180              3159.8439              3178.2695
 Red. masses --      1.0984                 1.0978                 1.1000
 Frc consts  --      6.4323                 6.4581                 6.5467
 IR Inten    --      6.0546                 2.1243                 2.7517

                     88                     89                     90
                      A                      A                      A
 Frequencies --   3185.3922              3236.4200              3283.4723
 Red. masses --      1.0945                 1.0915                 1.0981
 Frc consts  --      6.5430                 6.7358                 6.9752
 IR Inten    --      1.4062                 8.0232                 1.3000

 - Thermochemistry -
 -------------------
 Temperature   298.150 Kelvin.  Pressure   1.00000 Atm.
 Atom     1 has atomic number  6 and mass  12.00000

 Molecular mass:   277.05549 amu.
 Principal axes and moments of inertia in atomic units:
                           1         2         3
     Eigenvalues --  2365.237686424.838637654.99646
           X            0.99998  -0.00528   0.00402
           Y            0.00518   0.99965   0.02587
           Z           -0.00416  -0.02585   0.99966
 This molecule is an asymmetric top.
 Rotational symmetry number  1.
 Warning -- assumption of classical behavior for rotation
           may cause significant error
 Rotational temperatures (Kelvin)      0.03662     0.01348     0.01131
 Rotational constants (GHZ):           0.76303     0.28090     0.23576
 Zero-point vibrational energy     673542.0 (Joules/Mol)
                                  160.98041 (Kcal/Mol)
 Warning -- explicit consideration of  26 degrees of freedom as
           vibrations may cause significant error
 Vibrational temperatures:     43.28    48.99    60.27    93.95   104.17
          (Kelvin)            179.66   217.89   265.34   274.53   311.58
                              388.16   395.91   423.95   449.78   474.43
                              555.40   570.09   603.33   644.20   694.48
                              718.19   729.09   750.47   796.39   868.12
                              873.21   898.88   935.76  1007.25  1052.91
                             1066.91  1118.69  1227.96  1234.95  1282.67
                             1286.55  1319.42  1330.82  1365.55  1405.64
                             1474.60  1544.69  1572.04  1580.46  1606.62
                             1613.88  1652.82  1666.56  1668.47  1697.24
                             1708.31  1754.57  1788.45  1805.18  1872.30
                             1890.94  1921.11  1929.47  1959.12  1977.09
                             1978.47  1989.26  2025.97  2036.82  2070.67
                             2115.59  2138.84  2147.48  2150.67  2169.14
                             2182.39  2183.57  2198.82  2224.08  2256.91
                             4326.38  4358.80  4373.57  4412.60  4423.75
                             4433.12  4479.84  4483.18  4485.40  4536.06
                             4546.31  4572.82  4583.07  4656.49  4724.18

 Zero-point correction=                           0.256539 (Hartree/Particle)
 Thermal correction to Energy=                    0.272836
 Thermal correction to Enthalpy=                  0.273780
 Thermal correction to Gibbs Free Energy=         0.211088
 Sum of electronic and zero-point Energies=          -1538.002727
 Sum of electronic and thermal Energies=             -1537.986430
 Sum of electronic and thermal Enthalpies=           -1537.985486
 Sum of electronic and thermal Free Energies=        -1538.048177

                     E (Thermal)             CV                S
                      KCal/Mol        Cal/Mol-Kelvin    Cal/Mol-Kelvin
 Total                  171.207             61.863            131.946
 Electronic               0.000              0.000              0.000
 Translational            0.889              2.981             42.756
 Rotational               0.889              2.981             33.120
 Vibrational            169.430             55.901             56.071
 Vibration     1          0.594              1.984              5.824
 Vibration     2          0.594              1.983              5.578
 Vibration     3          0.595              1.980              5.168
 Vibration     4          0.597              1.971              4.290
 Vibration     5          0.599              1.967              4.087
 Vibration     6          0.610              1.928              3.024
 Vibration     7          0.619              1.901              2.654
 Vibration     8          0.631              1.861              2.283
 Vibration     9          0.634              1.853              2.220
 Vibration    10          0.645              1.816              1.988
 Vibration    11          0.674              1.729              1.598
 Vibration    12          0.677              1.719              1.564
 Vibration    13          0.689              1.684              1.447
 Vibration    14          0.701              1.650              1.348
 Vibration    15          0.713              1.616              1.261
 Vibration    16          0.755              1.500              1.015
 Vibration    17          0.763              1.478              0.977
 Vibration    18          0.782              1.428              0.894
 Vibration    19          0.807              1.366              0.803
 Vibration    20          0.839              1.288              0.703
 Vibration    21          0.855              1.252              0.660
 Vibration    22          0.862              1.235              0.641
 Vibration    23          0.877              1.202              0.606
 Vibration    24          0.909              1.132              0.537
 Vibration    25          0.962              1.025              0.444
 Vibration    26          0.966              1.017              0.438

                           ! Non-Optimized Parameters !
 Normal termination of Gaussian 16 at Sun Dec 13 12:44:48 2020.

 ----------------------------------------------------------------------
 # B3LYP/6-311++G(d,p) empiricaldispersion=gd3bj scf=xqc pop=npa geom=c
 heck
 ----------------------------------------------------------------------

 ---------------------------------------
 CID_137924308_JID_7463_Energie_neutraal
 ---------------------------------------
 Structure from the checkpoint file:  "JID_7463.chk"
 Charge =  0 Multiplicity = 1

 SCF Done:  E(RB3LYP) =  -1538.52177848     A.U. after   15 cycles
 Normal termination of Gaussian 16 at Sun Dec 13 12:51:29 2020.

 ----------------------------------------------------------------------
 # B3LYP/6-311++G(d,p) empiricaldispersion=gd3bj scf=xqc pop=npa geom=c
 heck
 ----------------------------------------------------------------------

 -------------------------------------
 CID_137924308_JID_7463_Energie_kation
 -------------------------------------
 Structure from the checkpoint file:  "JID_7463.chk"
 Charge =  1 Multiplicity = 2

 SCF Done:  E(UB3LYP) =  -1538.21451736     A.U. after   33 cycles
 SCF Done:  E(UB3LYP) =  -1538.21451741     a.u. after    2 cycles
 Normal termination of Gaussian 16 at Sun Dec 13 13:29:48 2020.
 Gaussian 16:  ES64L-G16RevA.03 25-Dec-2016

 ----------------------------------------------------------------------
 # B3LYP/6-311++G(d,p) empiricaldispersion=gd3bj scf=xqc pop=npa geom=c
 heck
 ----------------------------------------------------------------------

 ------------------------------------
 CID_137924308_JID_7463_Energie_anion
 ------------------------------------
 Structure from the checkpoint file:  "JID_7463.chk"
 Charge = -1 Multiplicity = 2

                         Standard orientation:
 ---------------------------------------------------------------------
 Center     Atomic      Atomic             Coordinates (Angstroms)
 Number     Number       Type             X           Y           Z
 ---------------------------------------------------------------------
      1          6           0       -1.126895    2.750048   -0.026898
      2          7           0       -0.403916    1.611281    0.555621
      3          6           0       -1.188259    0.717926    1.426392
      4          6           0       -2.091827   -0.275297    0.744655
      5          7           0       -1.847256   -1.556319    0.731116
      6          6           0       -2.792654   -2.237968    0.000830
      7          6           0       -3.780465   -1.476966   -0.554055
      8         16           0       -3.532590    0.188829   -0.147443
      9         16           0        0.633589    0.848231   -0.553800
     10          8           0       -0.097895   -0.001117   -1.497988
     11          8           0        1.488681    1.921731   -1.067685
     12          7           0        1.456368   -0.148657    0.502015
     13          6           0        2.674556    0.410177    1.117409
     14          6           0        3.899566    0.083071    0.264275
     15          8           0        3.999194   -1.317702    0.034455
     16          6           0        2.856358   -1.815712   -0.653980
     17          6           0        1.585574   -1.576079    0.154480
     18          1           0       -1.598077    3.300976    0.792192
     19          1           0       -1.897098    2.449514   -0.749586
     20          1           0       -0.407172    3.401921   -0.522410
     21          1           0       -0.491464    0.137340    2.031749
     22          1           0       -1.758830    1.377315    2.088463
     23          1           0       -2.710889   -3.314272   -0.095010
     24          1           0       -4.616180   -1.792131   -1.162624
     25          1           0        2.770654   -0.052641    2.106486
     26          1           0        2.553621    1.486992    1.246742
     27          1           0        3.830981    0.626236   -0.689894
     28          1           0        4.819785    0.378382    0.777261
     29          1           0        3.027339   -2.886310   -0.801268
     30          1           0        2.764043   -1.333867   -1.640741
     31          1           0        1.636346   -2.121325    1.103690
     32          1           0        0.689011   -1.893729   -0.375347
 ---------------------------------------------------------------------

 SCF Done:  E(UB3LYP) =  -1538.51425685     A.U. after   32 cycles

 The electronic state is 2-A.
 Alpha  occ. eigenvalues --  -88.97428 -88.75185 -19.04112 -19.01689 -19.01479
 Alpha  occ. eigenvalues --  -14.25110 -14.24019 -14.18368 -10.13160 -10.12860
 Alpha  occ. eigenvalues --  -10.11628 -10.11204 -10.10213 -10.09712 -10.09648
 Alpha  occ. eigenvalues --  -10.07959 -10.07268  -8.03381  -7.83849  -5.99658
 Alpha  occ. eigenvalues --   -5.99608  -5.99561  -5.80119  -5.79775  -5.79471
 Alpha  occ. eigenvalues --   -1.02711  -0.95687  -0.90898  -0.84949  -0.84029
 Alpha  occ. eigenvalues --   -0.82396  -0.69171  -0.67328  -0.65259  -0.64481
 Alpha  occ. eigenvalues --   -0.59545  -0.57713  -0.57086  -0.52707  -0.48010
 Alpha  occ. eigenvalues --   -0.46145  -0.44372  -0.42049  -0.41140  -0.39667
 Alpha  occ. eigenvalues --   -0.39368  -0.38997  -0.38176  -0.37722  -0.36909
 Alpha  occ. eigenvalues --   -0.34435  -0.33969  -0.32839  -0.31670  -0.31074
 Alpha  occ. eigenvalues --   -0.30449  -0.29586  -0.28291  -0.28051  -0.27519
 Alpha  occ. eigenvalues --   -0.26622  -0.26210  -0.24308  -0.24238  -0.22874
 Alpha  occ. eigenvalues --   -0.21910  -0.20730  -0.19967  -0.16453  -0.16002
 Alpha  occ. eigenvalues --   -0.14913  -0.14250  -0.12845   0.04719
 Alpha virt. eigenvalues --    0.06670   0.07752   0.07791   0.08490   0.08523
 Alpha virt. eigenvalues --    0.09946   0.10273   0.10394   0.11134   0.11737
 Alpha virt. eigenvalues --    0.12044   0.12811   0.13140   0.13373   0.14030

  Beta  occ. eigenvalues --  -88.97427 -88.75151 -19.04110 -19.01686 -19.01479
  Beta  occ. eigenvalues --  -14.25112 -14.23988 -14.18300 -10.13158 -10.12850
  Beta  occ. eigenvalues --  -10.11606 -10.11199 -10.10209 -10.09622 -10.09404
  Beta  occ. eigenvalues --  -10.07972 -10.07057  -8.03380  -7.83817  -5.99655
  Beta  occ. eigenvalues --   -5.99608  -5.99559  -5.80108  -5.79764  -5.79353
  Beta  occ. eigenvalues --   -1.02705  -0.95680  -0.90896  -0.84910  -0.83833
  Beta  occ. eigenvalues --   -0.82297  -0.69154  -0.67062  -0.64990  -0.64441
  Beta  occ. eigenvalues --   -0.59421  -0.57671  -0.57043  -0.52667  -0.47757
  Beta  occ. eigenvalues --   -0.45994  -0.44267  -0.41980  -0.40979  -0.39654
  Beta  occ. eigenvalues --   -0.39346  -0.38952  -0.38070  -0.37654  -0.36830
  Beta  occ. eigenvalues --   -0.34367  -0.33920  -0.32752  -0.31640  -0.31007
  Beta  occ. eigenvalues --   -0.30287  -0.29371  -0.28258  -0.27559  -0.27502
  Beta  occ. eigenvalues --   -0.26558  -0.26180  -0.24179  -0.24078  -0.22834
  Beta  occ. eigenvalues --   -0.21892  -0.20714  -0.19954  -0.16064  -0.15521
  Beta  occ. eigenvalues --   -0.14868  -0.14169  -0.11752
  Beta virt. eigenvalues --    0.07041   0.07850   0.08140   0.08625   0.08747
  Beta virt. eigenvalues --    0.09353   0.09936   0.10702   0.10952   0.11270
  Beta virt. eigenvalues --    0.11843   0.12028   0.12928   0.13298   0.13623

 Mulliken charges and spin densities:
               1          2
     1  C    0.207329  -0.428579
     2  N   -0.158612   0.107692
     3  C    0.240931  -1.322501
     4  C   -0.250182   0.892396
     5  N    0.015659   0.024250
     6  C   -0.284146   0.016808
     7  C   -0.265461   0.176973
     8  S   -0.109102  -0.055107
     9  S    0.656292  -0.419529
    10  O   -0.074579  -0.001672
    11  O   -0.140805   0.014878
    12  N   -0.426518   0.123177
    13  C    0.490878  -0.550727
    14  C   -0.107144  -0.337298
    15  O   -0.160766   0.024399
    16  C   -0.178363  -0.309385
    17  C   -0.241206   0.042076
    18  H   -0.287624   0.459846
    19  H    0.181643  -0.047022
    20  H    0.038574   0.122924
    21  H    0.240141   0.003603
    22  H   -0.909389   1.136401
    23  H    0.068685   0.047732
    24  H    0.176317   0.000576
    25  H   -0.232095   0.426475
    26  H   -0.141727   0.366071
    27  H    0.208677  -0.047952
    28  H   -0.194216   0.392542
    29  H    0.175542   0.010816
    30  H    0.154489   0.022445
    31  H    0.031205   0.171076
    32  H    0.275572  -0.063380
 Sum of Mulliken charges =  -1.00000   1.00000

 Dipole moment (field-independent basis, Debye):
    X=              1.2550    Y=             -3.1557    Z=             -4.4104  Tot=              5.5665
 Quadrupole moment (field-independent basis, Debye-Ang):
   XX=           -172.1501   YY=           -146.5024   ZZ=           -152.1442
   XY=              2.3371   XZ=              2.9758   YZ=             -5.1860

 Summary of Natural Population Analysis:

                                       Natural Population
                Natural  -----------------------------------------------
    Atom  No    Charge         Core      Valence    Rydberg      Total
 -----------------------------------------------------------------------
      C    1   -0.18466      0.99962     2.17629    0.00875     3.18466
      N    2   -0.35809      0.99975     2.84135    0.01699     3.85809
      C    3   -0.11503      0.99952     2.09908    0.01643     3.11503
      C    4    0.07211      0.99960     1.90947    0.01882     2.92789
      N    5   -0.24526      0.99965     2.73407    0.01154     3.74526
      C    6   -0.02965      0.99954     2.01594    0.01417     3.02965
      C    7   -0.17953      0.99954     2.17019    0.00979     3.17953
      S    8    0.18769      4.99941     2.79256    0.02034     7.81231
      S    9    1.17401      4.99918     1.72093    0.10589     6.82599
      O   10   -0.45577      0.99990     3.45086    0.00501     4.45577
      O   11   -0.46661      0.99990     3.46195    0.00476     4.46661
      N   12   -0.37496      0.99974     2.85911    0.01612     3.87496
      C   13   -0.10246      0.99960     2.08965    0.01321     3.10246
      C   14   -0.02107      0.99957     2.00853    0.01297     3.02107
      O   15   -0.30079      0.99989     3.29205    0.00884     4.30079
      C   16   -0.01862      0.99958     2.00840    0.01064     3.01862
      C   17   -0.10392      0.99960     2.09227    0.01204     3.10392
      H   18    0.10360      0.00000     0.39488    0.00153     0.39640
      H   19    0.09254      0.00000     0.40604    0.00142     0.40746
      H   20    0.10702      0.00000     0.39198    0.00100     0.39298
      H   21    0.11756      0.00000     0.38026    0.00218     0.38244
      H   22    0.11383      0.00000     0.38127    0.00489     0.38617
      H   23    0.09243      0.00000     0.40664    0.00093     0.40757
      H   24    0.10297      0.00000     0.39621    0.00082     0.39703
      H   25    0.10009      0.00000     0.39803    0.00188     0.39991
      H   26    0.11464      0.00000     0.38375    0.00161     0.38536
      H   27    0.08692      0.00000     0.41183    0.00125     0.41308
      H   28    0.09272      0.00000     0.40603    0.00124     0.40728
      H   29    0.09069      0.00000     0.40835    0.00097     0.40931
      H   30    0.08213      0.00000     0.41656    0.00131     0.41787
      H   31    0.09943      0.00000     0.39919    0.00138     0.40057
      H   32    0.12604      0.00000     0.37273    0.00124     0.37396
 =======================================================================
   * Total *   -0.00000     24.99359    47.67645    0.32996    73.00000

 Normal termination of Gaussian 16 at Sun Dec 13 13:50:22 2020.
