 Gaussian 16, Revision A.03,

 -----------------------------------------------------------
 # opt freq B3LYP/6-31G(d) empiricaldispersion=gd3bj scf=xqc
 -----------------------------------------------------------

 -----------------------------
 CID_54180236_JID_126_neutraal
 -----------------------------
 Symbolic Z-matrix:
 Charge =  0 Multiplicity = 1

 SCF Done:  E(RB3LYP) =  -500.885993561     A.U. after   14 cycles
 SCF Done:  E(RB3LYP) =  -500.889807463     A.U. after   12 cycles
 SCF Done:  E(RB3LYP) =  -500.890157806     A.U. after   11 cycles
 SCF Done:  E(RB3LYP) =  -500.890264145     A.U. after   11 cycles
 SCF Done:  E(RB3LYP) =  -500.890327156     A.U. after   10 cycles
 SCF Done:  E(RB3LYP) =  -500.890306738     A.U. after   10 cycles
 SCF Done:  E(RB3LYP) =  -500.890338069     A.U. after   10 cycles
 SCF Done:  E(RB3LYP) =  -500.890345396     A.U. after   10 cycles
 SCF Done:  E(RB3LYP) =  -500.890347012     A.U. after    7 cycles
 SCF Done:  E(RB3LYP) =  -500.890348226     A.U. after    8 cycles
 SCF Done:  E(RB3LYP) =  -500.890349397     A.U. after    7 cycles
 SCF Done:  E(RB3LYP) =  -500.890349761     A.U. after    7 cycles
 SCF Done:  E(RB3LYP) =  -500.890350085     A.U. after    7 cycles
 SCF Done:  E(RB3LYP) =  -500.890350299     A.U. after    7 cycles
 SCF Done:  E(RB3LYP) =  -500.890350481     A.U. after    6 cycles
 SCF Done:  E(RB3LYP) =  -500.890350529     A.U. after    6 cycles
 Optimization completed.
    -- Stationary point found.

 1\1\GINC-NODE302\FOpt\RB3LYP\6-31G(d)\C7H14O3\VSC10255\08-Dec-2020\0\\
 # opt freq B3LYP/6-31G(d) empiricaldispersion=gd3bj scf=xqc\\CID_54180
 236_JID_126_neutraal\\0,1\C,0.9610225969,-0.025638188,-0.1502860923\C,
 0.4447292611,1.419182395,-0.1265193839\C,0.8022845438,2.1578206598,-1.
 4202505767\C,-1.0684803372,1.3998704914,0.097019178\O,-1.3396918487,0.
 8818329184,1.3561416031\C,-2.704042759,0.5583758396,1.5755698735\O,-1.
 7262766501,2.6841718318,-0.0985917012\C,-1.3689906152,3.7560672691,0.6
 576668592\O,-0.4719726488,3.7728865951,1.4671028797\C,-2.2615333263,4.

 Normal termination of Gaussian 16 at Tue Dec  8 10:20:11 2020.

 --------------------------------------------------------------------
 #N Geom=AllCheck Guess=TCheck SCRF=Check GenChk RB3LYP/6-31G(d) Freq
 --------------------------------------------------------------------

 Structure from the checkpoint file:  "JID_126.chk"
 -----------------------------
 CID_54180236_JID_126_neutraal
 -----------------------------
 Charge =  0 Multiplicity = 1

 SCF Done:  E(RB3LYP) =  -500.890350529     A.U. after    1 cycles

  Exact polarizability:  91.500  -1.010  82.285  -0.496  -1.012  73.519
 Approx polarizability: 109.820  -1.804 103.606  -0.929  -3.877 121.159

                      1                      2                      3
                      A                      A                      A
 Frequencies --     50.8434                57.7549                77.7502
 Red. masses --      2.5200                 2.4495                 2.7883
 Frc consts  --      0.0038                 0.0048                 0.0099
 IR Inten    --      2.6939                 0.7917                 0.6679

                      4                      5                      6
                      A                      A                      A
 Frequencies --     91.5618               114.7684               155.2182
 Red. masses --      1.3244                 2.1837                 1.8707
 Frc consts  --      0.0065                 0.0169                 0.0266
 IR Inten    --      0.2413                 1.6134                 2.2850

                      7                      8                      9
                      A                      A                      A
 Frequencies --    185.1779               204.3785               227.7854
 Red. masses --      2.6210                 1.4387                 1.2779
 Frc consts  --      0.0530                 0.0354                 0.0391
 IR Inten    --      2.7497                 0.3965                 0.1237

                     10                     11                     12
                      A                      A                      A
 Frequencies --    242.9795               296.6040               318.2354
 Red. masses --      1.4608                 3.4267                 2.8908
 Frc consts  --      0.0508                 0.1776                 0.1725
 IR Inten    --      2.6378                 6.9882                 1.4354

                     13                     14                     15
                      A                      A                      A
 Frequencies --    356.4341               414.9938               466.6251
 Red. masses --      2.7807                 2.7576                 3.4912
 Frc consts  --      0.2081                 0.2798                 0.4479
 IR Inten    --      1.4868                 4.0269                 0.7492

                     16                     17                     18
                      A                      A                      A
 Frequencies --    503.3153               536.6187               608.7016
 Red. masses --      3.0522                 4.1976                 3.0709
 Frc consts  --      0.4556                 0.7122                 0.6704
 IR Inten    --      0.5936                13.8417                12.2447

                     19                     20                     21
                      A                      A                      A
 Frequencies --    742.6290               809.4333               890.5385
 Red. masses --      5.6991                 3.4998                 2.3425
 Frc consts  --      1.8518                 1.3510                 1.0946
 IR Inten    --      1.3258                 7.8833                 4.3566

                     22                     23                     24
                      A                      A                      A
 Frequencies --    948.9022               949.8988               973.4474
 Red. masses --      2.0644                 1.2406                 1.7487
 Frc consts  --      1.0952                 0.6595                 0.9763
 IR Inten    --     22.0901                 4.1402                63.8580

                     25                     26                     27
                      A                      A                      A
 Frequencies --   1002.2994              1030.6300              1041.1854
 Red. masses --      2.4974                 2.8621                 2.6035
 Frc consts  --      1.4782                 1.7912                 1.6629
 IR Inten    --     71.8316                16.6681               200.0991

                     28                     29                     30
                      A                      A                      A
 Frequencies --   1073.8825              1151.6801              1160.9843
 Red. masses --      1.7643                 2.1723                 2.9270
 Frc consts  --      1.1988                 1.6976                 2.3245
 IR Inten    --      5.9744                19.3259               105.0362

                     31                     32                     33
                      A                      A                      A
 Frequencies --   1190.9282              1197.9679              1209.1177
 Red. masses --      1.2852                 2.4449                 1.6973
 Frc consts  --      1.0739                 2.0673                 1.4620
 IR Inten    --      1.9890                91.8505                24.3478

                     34                     35                     36
                      A                      A                      A
 Frequencies --   1244.8549              1260.9829              1343.6456
 Red. masses --      1.9523                 3.0485                 1.4199
 Frc consts  --      1.7825                 2.8559                 1.5104
 IR Inten    --     61.7967               254.8038                24.6267

                     37                     38                     39
                      A                      A                      A
 Frequencies --   1376.7427              1418.0981              1425.2425
 Red. masses --      1.3381                 1.2366                 1.2786
 Frc consts  --      1.4943                 1.4652                 1.5303
 IR Inten    --      2.2580                30.6859                14.6423

                     40                     41                     42
                      A                      A                      A
 Frequencies --   1432.4831              1434.4653              1453.2994
 Red. masses --      1.2972                 1.3752                 1.2478
 Frc consts  --      1.5684                 1.6672                 1.5528
 IR Inten    --     27.4359                 7.5957                14.2798

                     43                     44                     45
                      A                      A                      A
 Frequencies --   1500.0581              1503.2888              1505.3507
 Red. masses --      1.0511                 1.1440                 1.0665
 Frc consts  --      1.3935                 1.5232                 1.4239
 IR Inten    --     12.7308                 0.7965                 7.8981

                     46                     47                     48
                      A                      A                      A
 Frequencies --   1515.8504              1518.7485              1523.5092
 Red. masses --      1.0555                 1.0496                 1.0462
 Frc consts  --      1.4290                 1.4264                 1.4308
 IR Inten    --      2.8977                 0.4121                 3.2622

                     49                     50                     51
                      A                      A                      A
 Frequencies --   1534.4152              1537.7226              1543.7827
 Red. masses --      1.0496                 1.0552                 1.0600
 Frc consts  --      1.4559                 1.4701                 1.4884
 IR Inten    --      4.7934                 5.8676                12.7095

                     52                     53                     54
                      A                      A                      A
 Frequencies --   1841.4366              3007.9274              3017.6473
 Red. masses --     10.9820                 1.0779                 1.0469
 Frc consts  --     21.9405                 5.7457                 5.6171
 IR Inten    --    197.8479                26.2709                68.1231

                     55                     56                     57
                      A                      A                      A
 Frequencies --   3040.9415              3048.0343              3070.8166
 Red. masses --      1.0419                 1.0411                 1.0369
 Frc consts  --      5.6765                 5.6987                 5.7610
 IR Inten    --     25.9484                34.1589                 2.8140

                     58                     59                     60
                      A                      A                      A
 Frequencies --   3083.4741              3103.3136              3107.5680
 Red. masses --      1.0981                 1.0912                 1.0969
 Frc consts  --      6.1512                 6.1914                 6.2411
 IR Inten    --     46.0060                27.6957                 6.1701

                     61                     62                     63
                      A                      A                      A
 Frequencies --   3130.4293              3133.0443              3135.7371
 Red. masses --      1.0919                 1.1005                 1.0994
 Frc consts  --      6.3046                 6.3645                 6.3691
 IR Inten    --     29.1487                 6.6971                31.3613

                     64                     65                     66
                      A                      A                      A
 Frequencies --   3144.4272              3155.0291              3182.6570
 Red. masses --      1.1003                 1.1002                 1.1034
 Frc consts  --      6.4098                 6.4526                 6.5850
 IR Inten    --     21.1834                25.1211                 8.6473

 - Thermochemistry -
 -------------------
 Temperature   298.150 Kelvin.  Pressure   1.00000 Atm.
 Atom     1 has atomic number  6 and mass  12.00000

 Molecular mass:   146.09429 amu.
 Principal axes and moments of inertia in atomic units:
                           1         2         3
     Eigenvalues --  1106.449751684.121772331.98225
           X            0.99954   0.02815  -0.01134
           Y           -0.02812   0.99960   0.00236
           Z            0.01140  -0.00204   0.99993
 This molecule is an asymmetric top.
 Rotational symmetry number  1.
 Warning -- assumption of classical behavior for rotation
           may cause significant error
 Rotational temperatures (Kelvin)      0.07828     0.05143     0.03714
 Rotational constants (GHZ):           1.63111     1.07162     0.77391
 Zero-point vibrational energy     547640.2 (Joules/Mol)
                                  130.88915 (Kcal/Mol)
 Warning -- explicit consideration of  18 degrees of freedom as
           vibrations may cause significant error
 Vibrational temperatures:     73.15    83.10   111.87   131.74   165.13
          (Kelvin)            223.32   266.43   294.06   327.73   349.59
                              426.75   457.87   512.83   597.08   671.37
                              724.16   772.07   875.79  1068.48  1164.59
                             1281.29  1365.26  1366.69  1400.57  1442.09
                             1482.85  1498.03  1545.08  1657.01  1670.40
                             1713.48  1723.61  1739.65  1791.07  1814.27
                             1933.21  1980.83  2040.33  2050.61  2061.02
                             2063.88  2090.97  2158.25  2162.90  2165.86
                             2180.97  2185.14  2191.99  2207.68  2212.44
                             2221.16  2649.42  4327.74  4341.72  4375.24
                             4385.44  4418.22  4436.43  4464.98  4471.10
                             4503.99  4507.75  4511.63  4524.13  4539.38
                             4579.13

 Zero-point correction=                           0.208585 (Hartree/Particle)
 Thermal correction to Energy=                    0.221086
 Thermal correction to Enthalpy=                  0.222030
 Thermal correction to Gibbs Free Energy=         0.169571
 Sum of electronic and zero-point Energies=           -500.681765
 Sum of electronic and thermal Energies=              -500.669265
 Sum of electronic and thermal Enthalpies=            -500.668321
 Sum of electronic and thermal Free Energies=         -500.720780

                     E (Thermal)             CV                S
                      KCal/Mol        Cal/Mol-Kelvin    Cal/Mol-Kelvin
 Total                  138.733             43.336            110.410
 Electronic               0.000              0.000              0.000
 Translational            0.889              2.981             40.848
 Rotational               0.889              2.981             29.853
 Vibrational            136.956             37.374             39.709
 Vibration     1          0.595              1.977              4.784
 Vibration     2          0.596              1.974              4.532
 Vibration     3          0.599              1.964              3.947
 Vibration     4          0.602              1.955              3.626
 Vibration     5          0.608              1.937              3.187
 Vibration     6          0.620              1.897              2.607
 Vibration     7          0.631              1.860              2.276
 Vibration     8          0.640              1.834              2.093
 Vibration     9          0.651              1.799              1.896
 Vibration    10          0.659              1.774              1.781
 Vibration    11          0.690              1.680              1.436
 Vibration    12          0.705              1.639              1.319
 Vibration    13          0.732              1.562              1.138
 Vibration    14          0.778              1.438              0.909
 Vibration    15          0.824              1.324              0.747
 Vibration    16          0.859              1.243              0.650
 Vibration    17          0.892              1.169              0.573
 Vibration    18          0.968              1.013              0.435

 Optimization completed.
    -- Stationary point found.

 1\1\GINC-NODE302\Freq\RB3LYP\6-31G(d)\C7H14O3\VSC10255\08-Dec-2020\0\\
 #N Geom=AllCheck Guess=TCheck SCRF=Check GenChk RB3LYP/6-31G(d) Freq\\
 CID_54180236_JID_126_neutraal\\0,1\C,0.9610225969,-0.025638188,-0.1502
 860923\C,0.4447292611,1.419182395,-0.1265193839\C,0.8022845438,2.15782
 06598,-1.4202505767\C,-1.0684803372,1.3998704914,0.097019178\O,-1.3396
 918487,0.8818329184,1.3561416031\C,-2.704042759,0.5583758396,1.5755698
 735\O,-1.7262766501,2.6841718318,-0.0985917012\C,-1.3689906152,3.75606
 72691,0.6576668592\O,-0.4719726488,3.7728865951,1.4671028797\C,-2.2615

 Normal termination of Gaussian 16 at Tue Dec  8 10:24:17 2020.

 ----------------------------------------------------------------------
 # B3LYP/6-311++G(d,p) empiricaldispersion=gd3bj scf=xqc pop=npa geom=c
 heck
 ----------------------------------------------------------------------

 -------------------------------------
 CID_54180236_JID_126_Energie_neutraal
 -------------------------------------
 Structure from the checkpoint file:  "JID_126.chk"
 Charge =  0 Multiplicity = 1

 SCF Done:  E(RB3LYP) =  -501.041251397     A.U. after   14 cycles
 Normal termination of Gaussian 16 at Tue Dec  8 10:25:51 2020.

 ----------------------------------------------------------------------
 # B3LYP/6-311++G(d,p) empiricaldispersion=gd3bj scf=xqc pop=npa geom=c
 heck
 ----------------------------------------------------------------------

 -----------------------------------
 CID_54180236_JID_126_Energie_kation
 -----------------------------------
 Structure from the checkpoint file:  "JID_126.chk"
 Charge =  1 Multiplicity = 2

 SCF Done:  E(UB3LYP) =  -500.693504427     A.U. after   20 cycles
 Normal termination of Gaussian 16 at Tue Dec  8 10:28:53 2020.
 Gaussian 16:  ES64L-G16RevA.03 25-Dec-2016

 ----------------------------------
 CID_54180236_JID_126_Energie_anion
 ----------------------------------
 Structure from the checkpoint file:  "JID_126.chk"
 Charge = -1 Multiplicity = 2

                         Standard orientation:
 ---------------------------------------------------------------------
 Center     Atomic      Atomic             Coordinates (Angstroms)
 Number     Number       Type             X           Y           Z
 ---------------------------------------------------------------------
      1          6           0       -2.839786   -0.339870    0.265662
      2          6           0       -1.362790   -0.754292    0.228689
      3          6           0       -1.175207   -2.073862   -0.526770
      4          6           0       -0.549779    0.370072   -0.415490
      5          8           0       -0.604935    1.497346    0.392915
      6          6           0       -0.123579    2.683025   -0.220835
      7          8           0        0.826070    0.016317   -0.735314
      8          6           0        1.674746   -0.382119    0.249337
      9          8           0        1.373379   -0.547082    1.407817
     10          6           0        3.056337   -0.596070   -0.326978
     11          1           0       -3.237331   -0.205091   -0.749295
     12          1           0       -2.971585    0.597722    0.811766
     13          1           0       -3.439586   -1.113966    0.756085
     14          1           0       -0.998010   -0.868203    1.252038
     15          1           0       -1.458871   -1.971621   -1.582189
     16          1           0       -0.139761   -2.423551   -0.487806
     17          1           0       -1.808275   -2.851409   -0.086484
     18          1           0       -0.945714    0.592771   -1.418335
     19          1           0        0.951075    2.621377   -0.431252
     20          1           0       -0.657164    2.888138   -1.161023
     21          1           0       -0.307736    3.495827    0.484361
     22          1           0        3.016151   -1.334890   -1.133860
     23          1           0        3.432045    0.337252   -0.758983
     24          1           0        3.729008   -0.938312    0.459946
 ---------------------------------------------------------------------

 SCF Done:  E(UB3LYP) =  -501.025050712     A.U. after   30 cycles

 The electronic state is 2-A.
 Alpha  occ. eigenvalues --  -19.05805 -19.03439 -19.00812 -10.20156 -10.17513
 Alpha  occ. eigenvalues --  -10.10870 -10.07464 -10.07201 -10.05914 -10.05848
 Alpha  occ. eigenvalues --   -1.00706  -0.95183  -0.91039  -0.71080  -0.65398
 Alpha  occ. eigenvalues --   -0.61404  -0.58583  -0.55928  -0.49982  -0.44610
 Alpha  occ. eigenvalues --   -0.41668  -0.38809  -0.38638  -0.36404  -0.35607
 Alpha  occ. eigenvalues --   -0.34210  -0.32947  -0.31376  -0.30783  -0.29791
 Alpha  occ. eigenvalues --   -0.28720  -0.28578  -0.27716  -0.25519  -0.24241
 Alpha  occ. eigenvalues --   -0.23897  -0.21920  -0.20760  -0.18534  -0.16608
 Alpha  occ. eigenvalues --    0.04716
 Alpha virt. eigenvalues --    0.07048   0.07285   0.08732   0.09278   0.09671
 Alpha virt. eigenvalues --    0.10332   0.10883   0.11258   0.11916   0.12184
 Alpha virt. eigenvalues --    0.12724   0.13277   0.13818   0.15358   0.15606

  Beta  occ. eigenvalues --  -19.05799 -19.03430 -19.00807 -10.20157 -10.17500
  Beta  occ. eigenvalues --  -10.10822 -10.07461 -10.07148 -10.05894 -10.05819
  Beta  occ. eigenvalues --   -1.00693  -0.95165  -0.91024  -0.71059  -0.65349
  Beta  occ. eigenvalues --   -0.61343  -0.58534  -0.55859  -0.49934  -0.44558
  Beta  occ. eigenvalues --   -0.41621  -0.38772  -0.38613  -0.36369  -0.35565
  Beta  occ. eigenvalues --   -0.34176  -0.32912  -0.31327  -0.30746  -0.29746
  Beta  occ. eigenvalues --   -0.28689  -0.28541  -0.27682  -0.25485  -0.24215
  Beta  occ. eigenvalues --   -0.23862  -0.21880  -0.20750  -0.18511  -0.16580
  Beta virt. eigenvalues --    0.07069   0.07903   0.08278   0.09311   0.09754
  Beta virt. eigenvalues --    0.10034   0.10894   0.11442   0.11784   0.12322
  Beta virt. eigenvalues --    0.12774   0.13164   0.13643   0.14050   0.15794

 Mulliken charges and spin densities:
               1          2
     1  C    0.220070  -0.801437
     2  C   -1.204178   1.556351
     3  C    0.926079  -1.469323
     4  C   -0.298770  -0.329083
     5  O   -0.128876   0.065141
     6  C    1.404481  -1.592008
     7  O    0.049091  -0.001363
     8  C   -1.030224   1.102317
     9  O   -0.222530   0.000739
    10  C    1.970093  -2.459485
    11  H   -0.133653   0.267112
    12  H    0.006660   0.146564
    13  H   -0.037892   0.173694
    14  H    0.174059   0.058073
    15  H   -0.245231   0.394518
    16  H    0.009462   0.141537
    17  H   -0.175961   0.316047
    18  H   -0.144814   0.352270
    19  H   -0.318648   0.468708
    20  H   -0.580852   0.719699
    21  H   -0.189131   0.334069
    22  H   -0.526964   0.697172
    23  H   -0.473585   0.652556
    24  H   -0.048688   0.206132
 Sum of Mulliken charges =  -1.00000   1.00000

 Dipole moment (field-independent basis, Debye):
    X=             -1.9216    Y=             -1.6882    Z=              2.9156  Tot=              3.8785
 Quadrupole moment (field-independent basis, Debye-Ang):
   XX=           -113.8711   YY=           -110.0487   ZZ=            -97.8725
   XY=              0.3764   XZ=              0.5732   YZ=              1.8062

 Summary of Natural Population Analysis:

                                       Natural Population
                Natural  -----------------------------------------------
    Atom  No    Charge         Core      Valence    Rydberg      Total
 -----------------------------------------------------------------------
      C    1   -0.28414      0.99965     2.27860    0.00590     3.28414
      C    2   -0.13658      0.99958     2.12677    0.01022     3.13658
      C    3   -0.28404      0.99965     2.27832    0.00607     3.28404
      C    4    0.22717      0.99950     1.75380    0.01954     2.77283
      O    5   -0.29230      0.99986     3.28403    0.00840     4.29230
      C    6   -0.09911      0.99961     2.09061    0.00890     3.09911
      O    7   -0.29878      0.99986     3.28778    0.01114     4.29878
      C    8    0.41015      0.99970     1.56448    0.02567     2.58985
      O    9   -0.30101      0.99987     3.29522    0.00593     4.30101
      C   10   -0.33214      0.99962     2.32702    0.00550     3.33214
      H   11    0.09656      0.00000     0.40236    0.00108     0.40344
      H   12    0.10637      0.00000     0.39248    0.00114     0.39363
      H   13    0.09755      0.00000     0.40169    0.00076     0.40245
      H   14    0.11233      0.00000     0.38557    0.00210     0.38767
      H   15    0.09832      0.00000     0.40048    0.00120     0.40168
      H   16    0.10319      0.00000     0.39568    0.00112     0.39681
      H   17    0.09866      0.00000     0.40044    0.00090     0.40134
      H   18    0.07925      0.00000     0.41855    0.00220     0.42075
      H   19    0.08654      0.00000     0.41145    0.00201     0.41346
      H   20    0.08263      0.00000     0.41499    0.00239     0.41737
      H   21    0.09071      0.00000     0.40813    0.00116     0.40929
      H   22    0.11493      0.00000     0.38321    0.00186     0.38507
      H   23    0.11646      0.00000     0.38148    0.00206     0.38354
      H   24    0.10727      0.00000     0.39177    0.00096     0.39273
 =======================================================================
   * Total *   -0.00000      9.99689    29.87489    0.12821    40.00000

 Normal termination of Gaussian 16 at Tue Dec  8 10:34:50 2020.
