 Gaussian 16, Revision A.03,

 -----------------------------------------------------------
 # opt freq B3LYP/6-31G(d) empiricaldispersion=gd3bj scf=xqc
 -----------------------------------------------------------

 -------------------------------
 CID_149625077_JID_1667_neutraal
 -------------------------------
 Symbolic Z-matrix:
 Charge =  0 Multiplicity = 1

 SCF Done:  E(RB3LYP) =  -469.588957626     A.U. after   13 cycles
 SCF Done:  E(RB3LYP) =  -469.591120548     A.U. after   11 cycles
 SCF Done:  E(RB3LYP) =  -469.590438558     A.U. after   11 cycles
 SCF Done:  E(RB3LYP) =  -469.591783943     A.U. after   10 cycles
 SCF Done:  E(RB3LYP) =  -469.591972735     A.U. after   11 cycles
 SCF Done:  E(RB3LYP) =  -469.591977618     A.U. after   10 cycles
 SCF Done:  E(RB3LYP) =  -469.592043820     A.U. after    9 cycles
 SCF Done:  E(RB3LYP) =  -469.592046993     A.U. after    8 cycles
 SCF Done:  E(RB3LYP) =  -469.592051620     A.U. after    9 cycles
 SCF Done:  E(RB3LYP) =  -469.592052589     A.U. after    7 cycles
 SCF Done:  E(RB3LYP) =  -469.592052871     A.U. after    6 cycles
 Optimization completed.
    -- Stationary point found.
 Normal termination of Gaussian 16 at Tue Dec  8 20:42:21 2020.

 --------------------------------------------------------------------
 #N Geom=AllCheck Guess=TCheck SCRF=Check GenChk RB3LYP/6-31G(d) Freq
 --------------------------------------------------------------------

 Structure from the checkpoint file:  "JID_1667.chk"
 -------------------------------
 CID_149625077_JID_1667_neutraal
 -------------------------------
 Charge =  0 Multiplicity = 1

 SCF Done:  E(RB3LYP) =  -469.592052871     A.U. after    1 cycles

  Exact polarizability: 123.512   1.462 107.409  -0.528   0.896  95.803
 Approx polarizability: 151.373   1.029 148.024  -0.278   1.057 147.872

                      1                      2                      3
                      A                      A                      A
 Frequencies --     58.5364                76.3984               103.7920
 Red. masses --      3.1271                 2.7747                 3.3291
 Frc consts  --      0.0063                 0.0095                 0.0211
 IR Inten    --      0.2282                 0.2087                 1.1300

                      4                      5                      6
                      A                      A                      A
 Frequencies --    141.3209               185.7826               226.7757
 Red. masses --      3.0062                 2.4500                 2.7406
 Frc consts  --      0.0354                 0.0498                 0.0830
 IR Inten    --      1.9423                 1.7035                 0.8871

                      7                      8                      9
                      A                      A                      A
 Frequencies --    239.9795               251.4115               256.2382
 Red. masses --      1.0726                 1.1732                 1.1839
 Frc consts  --      0.0364                 0.0437                 0.0458
 IR Inten    --      0.8035                 3.8983                 9.0771

                     10                     11                     12
                      A                      A                      A
 Frequencies --    260.6731               282.5722               286.6857
 Red. masses --      1.3810                 1.6277                 1.2648
 Frc consts  --      0.0553                 0.0766                 0.0612
 IR Inten    --      1.1381                15.5850                 0.9013

                     13                     14                     15
                      A                      A                      A
 Frequencies --    295.3502               341.4945               345.6900
 Red. masses --      2.0479                 1.4267                 1.4594
 Frc consts  --      0.1053                 0.0980                 0.1028
 IR Inten    --      0.0698                37.6035                58.2782

                     16                     17                     18
                      A                      A                      A
 Frequencies --    353.6388               388.3150               406.5003
 Red. masses --      2.1578                 2.0766                 2.2060
 Frc consts  --      0.1590                 0.1845                 0.2148
 IR Inten    --      0.2147                 8.4720                 1.0463

                     19                     20                     21
                      A                      A                      A
 Frequencies --    418.4998               451.9699               502.3447
 Red. masses --      1.9085                 2.3559                 2.4300
 Frc consts  --      0.1969                 0.2836                 0.3613
 IR Inten    --      1.9845                 0.8727                 0.5367

                     22                     23                     24
                      A                      A                      A
 Frequencies --    518.2365               527.0954               760.9970
 Red. masses --      2.3408                 3.1655                 3.3260
 Frc consts  --      0.3704                 0.5182                 1.1349
 IR Inten    --      0.7976                 5.2022                 2.4554

                     25                     26                     27
                      A                      A                      A
 Frequencies --    810.5642               873.4627               895.2377
 Red. masses --      2.0300                 2.2573                 2.0046
 Frc consts  --      0.7858                 1.0147                 0.9466
 IR Inten    --      1.0563                 3.5981                 1.6918

                     28                     29                     30
                      A                      A                      A
 Frequencies --    923.3751               924.3782               944.2979
 Red. masses --      1.6614                 2.0383                 1.1895
 Frc consts  --      0.8346                 1.0262                 0.6249
 IR Inten    --      3.9169                 1.9046                 0.8606

                     31                     32                     33
                      A                      A                      A
 Frequencies --    957.8327               967.7740               978.5839
 Red. masses --      1.4494                 1.7237                 1.4925
 Frc consts  --      0.7834                 0.9512                 0.8421
 IR Inten    --      0.7544                 4.3427                 1.5491

                     34                     35                     36
                      A                      A                      A
 Frequencies --   1003.1023              1015.9707              1038.1880
 Red. masses --      1.2821                 1.5217                 1.3724
 Frc consts  --      0.7601                 0.9254                 0.8716
 IR Inten    --      6.3387                16.6120                 0.8200

                     37                     38                     39
                      A                      A                      A
 Frequencies --   1079.1363              1087.8295              1121.4243
 Red. masses --      2.5682                 3.8909                 1.6881
 Frc consts  --      1.7621                 2.7128                 1.2508
 IR Inten    --     40.1678                43.8854                 3.2048

                     40                     41                     42
                      A                      A                      A
 Frequencies --   1145.0892              1177.5571              1193.9803
 Red. masses --      1.7647                 1.7153                 1.8087
 Frc consts  --      1.3633                 1.4014                 1.5192
 IR Inten    --      1.6205                 8.5559                 1.6068

                     43                     44                     45
                      A                      A                      A
 Frequencies --   1209.2838              1231.7450              1252.8331
 Red. masses --      1.7509                 1.9535                 2.0907
 Frc consts  --      1.5086                 1.7463                 1.9334
 IR Inten    --      8.0618                 2.6964                 5.2726

                     46                     47                     48
                      A                      A                      A
 Frequencies --   1296.2604              1311.2062              1327.9230
 Red. masses --      1.9716                 1.4406                 1.4049
 Frc consts  --      1.9519                 1.4592                 1.4596
 IR Inten    --     10.1088                 5.6887                 1.7279

                     49                     50                     51
                      A                      A                      A
 Frequencies --   1356.2335              1374.8443              1393.4139
 Red. masses --      1.3025                 1.3798                 1.3036
 Frc consts  --      1.4115                 1.5367                 1.4913
 IR Inten    --      2.6550                 2.5593                 3.1895

                     52                     53                     54
                      A                      A                      A
 Frequencies --   1402.7187              1410.0381              1427.1806
 Red. masses --      1.3473                 1.4247                 1.2503
 Frc consts  --      1.5619                 1.6689                 1.5005
 IR Inten    --      4.7753                 1.5990                 8.0012

                     55                     56                     57
                      A                      A                      A
 Frequencies --   1432.1631              1434.6549              1440.4998
 Red. masses --      1.2599                 1.2578                 1.2301
 Frc consts  --      1.5225                 1.5253                 1.5038
 IR Inten    --      5.9924                14.2001                 6.4090

                     58                     59                     60
                      A                      A                      A
 Frequencies --   1452.8051              1454.5933              1514.0554
 Red. masses --      1.2360                 1.2171                 1.0636
 Frc consts  --      1.5371                 1.5172                 1.4365
 IR Inten    --     16.6275                 6.7163                 3.7969

                     61                     62                     63
                      A                      A                      A
 Frequencies --   1518.9537              1520.1073              1522.6921
 Red. masses --      1.0564                 1.0523                 1.0474
 Frc consts  --      1.4360                 1.4327                 1.4309
 IR Inten    --      0.7832                 0.8621                 1.0426

                     64                     65                     66
                      A                      A                      A
 Frequencies --   1528.1534              1530.3856              1533.4433
 Red. masses --      1.0538                 1.0714                 1.0541
 Frc consts  --      1.4500                 1.4785                 1.4604
 IR Inten    --      5.2337                 0.5170                 5.9215

                     67                     68                     69
                      A                      A                      A
 Frequencies --   1537.5567              1541.7962              1543.1611
 Red. masses --      1.0554                 1.0447                 1.0589
 Frc consts  --      1.4701                 1.4632                 1.4857
 IR Inten    --      0.9457                14.9258                 4.2267

                     70                     71                     72
                      A                      A                      A
 Frequencies --   1551.9252              1554.4068              2993.3800
 Red. masses --      1.0610                 1.0482                 1.0722
 Frc consts  --      1.5056                 1.4921                 5.6602
 IR Inten    --     13.0970                 4.6239                62.3403

                     73                     74                     75
                      A                      A                      A
 Frequencies --   2996.0320              3012.1647              3030.9314
 Red. masses --      1.0808                 1.0826                 1.0588
 Frc consts  --      5.7158                 5.7872                 5.7308
 IR Inten    --      5.2577                24.4505                15.1657

                     76                     77                     78
                      A                      A                      A
 Frequencies --   3034.9469              3035.8994              3041.8942
 Red. masses --      1.0454                 1.0405                 1.0405
 Frc consts  --      5.6733                 5.6504                 5.6728
 IR Inten    --     42.8422                13.6309                52.1233

                     79                     80                     81
                      A                      A                      A
 Frequencies --   3044.6856              3046.9213              3093.1770
 Red. masses --      1.0384                 1.0421                 1.0959
 Frc consts  --      5.6714                 5.6999                 6.1775
 IR Inten    --     27.6172                27.6111                 6.0286

                     82                     83                     84
                      A                      A                      A
 Frequencies --   3094.6079              3096.9648              3102.8842
 Red. masses --      1.0991                 1.0990                 1.0987
 Frc consts  --      6.2017                 6.2103                 6.2324
 IR Inten    --      2.9315                32.5181                65.7180

                     85                     86                     87
                      A                      A                      A
 Frequencies --   3104.2601              3109.5392              3112.0131
 Red. masses --      1.1002                 1.0953                 1.0971
 Frc consts  --      6.2467                 6.2397                 6.2601
 IR Inten    --     60.3735                17.5707                40.0985

                     88                     89                     90
                      A                      A                      A
 Frequencies --   3113.8239              3120.7718              3122.7786
 Red. masses --      1.0958                 1.1010                 1.1006
 Frc consts  --      6.2597                 6.3177                 6.3235
 IR Inten    --     44.4645                35.5463                54.8573

                     91                     92                     93
                      A                      A                      A
 Frequencies --   3132.9728              3143.0264              3755.2325
 Red. masses --      1.1010                 1.0981                 1.0658
 Frc consts  --      6.3670                 6.3914                 8.8551
 IR Inten    --     25.4660                 8.4147                12.5843

 - Thermochemistry -
 -------------------
 Temperature   298.150 Kelvin.  Pressure   1.00000 Atm.
 Atom     1 has atomic number  6 and mass  12.00000

 Molecular mass:   158.16707 amu.
 Principal axes and moments of inertia in atomic units:
                           1         2         3
     Eigenvalues --  1216.865212548.759663267.36100
           X            0.99985   0.01652  -0.00501
           Y           -0.01648   0.99983   0.00792
           Z            0.00514  -0.00784   0.99996
 This molecule is an asymmetric top.
 Rotational symmetry number  1.
 Warning -- assumption of classical behavior for rotation
           may cause significant error
 Rotational temperatures (Kelvin)      0.07118     0.03398     0.02651
 Rotational constants (GHZ):           1.48311     0.70809     0.55235
 Zero-point vibrational energy     812037.2 (Joules/Mol)
                                  194.08156 (Kcal/Mol)
 Warning -- explicit consideration of  23 degrees of freedom as
           vibrations may cause significant error
 Vibrational temperatures:     84.22   109.92   149.33   203.33   267.30
          (Kelvin)            326.28   345.28   361.73   368.67   375.05
                              406.56   412.48   424.94   491.33   497.37
                              508.81   558.70   584.86   602.13   650.28
                              722.76   745.63   758.37  1094.90  1166.22
                             1256.72  1288.05  1328.53  1329.97  1358.63
                             1378.11  1392.41  1407.96  1443.24  1461.76
                             1493.72  1552.64  1565.14  1613.48  1647.53
                             1694.24  1717.87  1739.89  1772.21  1802.55
                             1865.03  1886.53  1910.59  1951.32  1978.09
                             2004.81  2018.20  2028.73  2053.39  2060.56
                             2064.15  2072.56  2090.26  2092.84  2178.39
                             2185.44  2187.10  2190.81  2198.67  2201.88
                             2206.28  2212.20  2218.30  2220.26  2232.87
                             2236.44  4306.81  4310.62  4333.83  4360.83
                             4366.61  4367.98  4376.61  4380.62  4383.84
                             4450.39  4452.45  4455.84  4464.36  4466.34
                             4473.93  4477.49  4480.10  4490.09  4492.98
                             4507.65  4522.11  5402.94

 Zero-point correction=                           0.309289 (Hartree/Particle)
 Thermal correction to Energy=                    0.323349
 Thermal correction to Enthalpy=                  0.324293
 Thermal correction to Gibbs Free Energy=         0.270375
 Sum of electronic and zero-point Energies=           -469.282764
 Sum of electronic and thermal Energies=              -469.268704
 Sum of electronic and thermal Enthalpies=            -469.267760
 Sum of electronic and thermal Free Energies=         -469.321677

                     E (Thermal)             CV                S
                      KCal/Mol        Cal/Mol-Kelvin    Cal/Mol-Kelvin
 Total                  202.905             54.172            113.479
 Electronic               0.000              0.000              0.000
 Translational            0.889              2.981             41.085
 Rotational               0.889              2.981             30.695
 Vibrational            201.127             48.210             41.700
 Vibration     1          0.596              1.974              4.506
 Vibration     2          0.599              1.965              3.981
 Vibration     3          0.605              1.946              3.382
 Vibration     4          0.615              1.912              2.786
 Vibration     5          0.632              1.859              2.270
 Vibration     6          0.650              1.800              1.904
 Vibration     7          0.657              1.779              1.803
 Vibration     8          0.663              1.760              1.721
 Vibration     9          0.666              1.752              1.687
 Vibration    10          0.669              1.745              1.657
 Vibration    11          0.682              1.706              1.518
 Vibration    12          0.684              1.698              1.493
 Vibration    13          0.690              1.682              1.443
 Vibration    14          0.721              1.593              1.205
 Vibration    15          0.724              1.584              1.186
 Vibration    16          0.730              1.568              1.150
 Vibration    17          0.756              1.495              1.007
 Vibration    18          0.771              1.456              0.939
 Vibration    19          0.781              1.430              0.897
 Vibration    20          0.811              1.357              0.790
 Vibration    21          0.858              1.245              0.652
 Vibration    22          0.873              1.210              0.614
 Vibration    23          0.882              1.190              0.594

                           ! Non-Optimized Parameters !
 Normal termination of Gaussian 16 at Tue Dec  8 20:51:34 2020.

 ----------------------------------------------------------------------
 # B3LYP/6-311++G(d,p) empiricaldispersion=gd3bj scf=xqc pop=npa geom=c
 heck
 ----------------------------------------------------------------------

 ---------------------------------------
 CID_149625077_JID_1667_Energie_neutraal
 ---------------------------------------
 Structure from the checkpoint file:  "JID_1667.chk"
 Charge =  0 Multiplicity = 1

 SCF Done:  E(RB3LYP) =  -469.735819213     A.U. after   13 cycles
 Normal termination of Gaussian 16 at Tue Dec  8 20:56:26 2020.

 ----------------------------------------------------------------------
 # B3LYP/6-311++G(d,p) empiricaldispersion=gd3bj scf=xqc pop=npa geom=c
 heck
 ----------------------------------------------------------------------

 -------------------------------------
 CID_149625077_JID_1667_Energie_kation
 -------------------------------------
 Structure from the checkpoint file:  "JID_1667.chk"
 Charge =  1 Multiplicity = 2

 SCF Done:  E(UB3LYP) =  -469.387603060     A.U. after   25 cycles
 Normal termination of Gaussian 16 at Tue Dec  8 21:07:45 2020.
 Gaussian 16:  ES64L-G16RevA.03 25-Dec-2016

 ----------------------------------------------------------------------
 # B3LYP/6-311++G(d,p) empiricaldispersion=gd3bj scf=xqc pop=npa geom=c
 heck
 ----------------------------------------------------------------------

 ------------------------------------
 CID_149625077_JID_1667_Energie_anion
 ------------------------------------
 Structure from the checkpoint file:  "JID_1667.chk"
 Charge = -1 Multiplicity = 2

                         Standard orientation:
 ---------------------------------------------------------------------
 Center     Atomic      Atomic             Coordinates (Angstroms)
 Number     Number       Type             X           Y           Z
 ---------------------------------------------------------------------
      1          6           0        3.505431    0.047995   -0.173823
      2          6           0        2.120434    0.401122    0.386392
      3          6           0        1.765614    1.841161   -0.014344
      4          6           0        1.012010   -0.590050   -0.056538
      5          6           0        1.464064   -2.056836    0.021276
      6          6           0       -0.281630   -0.388476    0.775844
      7          6           0       -1.623990   -0.362276    0.005528
      8          6           0       -1.793120   -1.578881   -0.917801
      9          6           0       -2.771213   -0.359593    1.032353
     10          6           0       -1.722061    0.909296   -0.863659
     11          8           0       -1.645384    2.127919   -0.131034
     12          1           0        3.480752   -0.006392   -1.270396
     13          1           0        3.878267   -0.909543    0.201920
     14          1           0        4.235520    0.818324    0.100013
     15          1           0        2.180554    0.350128    1.485229
     16          1           0        1.795628    1.944584   -1.107460
     17          1           0        0.767304    2.143097    0.313287
     18          1           0        2.491200    2.550275    0.401167
     19          1           0        0.801371   -0.366354   -1.113163
     20          1           0        1.815033   -2.299357    1.032931
     21          1           0        0.636429   -2.734634   -0.209242
     22          1           0        2.276262   -2.277888   -0.677667
     23          1           0       -0.336154   -1.185963    1.529825
     24          1           0       -0.222820    0.549681    1.336688
     25          1           0       -1.739638   -2.512600   -0.346983
     26          1           0       -2.767645   -1.552834   -1.420717
     27          1           0       -1.020697   -1.614428   -1.693307
     28          1           0       -2.665990    0.461008    1.752768
     29          1           0       -3.747913   -0.265047    0.540059
     30          1           0       -2.778551   -1.291599    1.608163
     31          1           0       -0.889468    0.947741   -1.572030
     32          1           0       -2.652529    0.870722   -1.453524
     33          1           0       -2.427085    2.176957    0.439347
 ---------------------------------------------------------------------

 SCF Done:  E(UB3LYP) =  -469.719778419     A.U. after   27 cycles

 The electronic state is 2-A.
 Alpha  occ. eigenvalues --  -19.01718 -10.10565 -10.07701 -10.07120 -10.06825
 Alpha  occ. eigenvalues --  -10.05843 -10.05421 -10.05370 -10.05342 -10.05128
 Alpha  occ. eigenvalues --  -10.05017  -0.91814  -0.73006  -0.70122  -0.64012
 Alpha  occ. eigenvalues --   -0.59092  -0.58515  -0.57148  -0.56351  -0.51128
 Alpha  occ. eigenvalues --   -0.45290  -0.44259  -0.39974  -0.36659  -0.35971
 Alpha  occ. eigenvalues --   -0.35370  -0.34251  -0.32711  -0.31942  -0.30695
 Alpha  occ. eigenvalues --   -0.29186  -0.28558  -0.28331  -0.28050  -0.26906
 Alpha  occ. eigenvalues --   -0.26124  -0.25315  -0.24976  -0.23876  -0.23009
 Alpha  occ. eigenvalues --   -0.22059  -0.21211  -0.20587  -0.19692  -0.16828
 Alpha  occ. eigenvalues --    0.04654
 Alpha virt. eigenvalues --    0.06518   0.07460   0.07852   0.08850   0.09209
 Alpha virt. eigenvalues --    0.09487   0.10210   0.10501   0.11310   0.11848
 Alpha virt. eigenvalues --    0.12138   0.12264   0.12745   0.13529   0.14772

  Beta  occ. eigenvalues --  -19.01689 -10.10545 -10.07698 -10.07114 -10.06818
  Beta  occ. eigenvalues --  -10.05823 -10.05394 -10.05357 -10.05319 -10.05077
  Beta  occ. eigenvalues --  -10.05008  -0.91753  -0.72985  -0.70097  -0.63984
  Beta  occ. eigenvalues --   -0.59054  -0.58439  -0.57087  -0.56295  -0.51080
  Beta  occ. eigenvalues --   -0.45243  -0.44197  -0.39909  -0.36628  -0.35932
  Beta  occ. eigenvalues --   -0.35334  -0.34211  -0.32679  -0.31911  -0.30667
  Beta  occ. eigenvalues --   -0.29140  -0.28533  -0.28304  -0.28017  -0.26866
  Beta  occ. eigenvalues --   -0.26094  -0.25287  -0.24944  -0.23847  -0.22976
  Beta  occ. eigenvalues --   -0.22026  -0.21178  -0.20566  -0.19661  -0.16795
  Beta virt. eigenvalues --    0.06707   0.07600   0.08084   0.08305   0.09431
  Beta virt. eigenvalues --    0.09820   0.09988   0.10607   0.10805   0.11826
  Beta virt. eigenvalues --    0.12239   0.12479   0.12713   0.13077   0.13841

 Mulliken charges and spin densities:
               1          2
     1  C    0.261892  -0.879923
     2  C   -0.791691   0.956095
     3  C   -0.360503  -0.378005
     4  C   -0.040648   0.734580
     5  C    0.627762  -1.398213
     6  C    0.892419  -1.700240
     7  C   -2.436974   3.055758
     8  C    1.306163  -2.029157
     9  C    1.449801  -1.882387
    10  C    0.048544  -0.727942
    11  O   -0.181560   0.005025
    12  H   -0.137313   0.287642
    13  H   -0.044403   0.187712
    14  H   -0.058230   0.191267
    15  H   -0.051185   0.207945
    16  H    0.044264   0.087550
    17  H    0.182086  -0.002071
    18  H   -0.024063   0.153766
    19  H    0.370877  -0.222726
    20  H    0.008454   0.150105
    21  H   -0.081682   0.209265
    22  H   -0.292370   0.429269
    23  H   -0.025613   0.200485
    24  H    0.300234  -0.110146
    25  H   -0.091944   0.247333
    26  H   -0.065261   0.223552
    27  H   -0.248780   0.399463
    28  H   -0.326739   0.451040
    29  H   -0.512354   0.675642
    30  H   -0.338387   0.486468
    31  H   -0.035800   0.223465
    32  H   -0.288462   0.454238
    33  H   -0.058533   0.313144
 Sum of Mulliken charges =  -1.00000   1.00000

 Dipole moment (field-independent basis, Debye):
    X=              4.0161    Y=              0.8792    Z=             -0.2691  Tot=              4.1200
 Quadrupole moment (field-independent basis, Debye-Ang):
   XX=           -146.3219   YY=           -118.6614   ZZ=           -106.9820
   XY=              3.4628   XZ=              3.7997   YZ=             -1.1813

 Summary of Natural Population Analysis:

                                       Natural Population
                Natural  -----------------------------------------------
    Atom  No    Charge         Core      Valence    Rydberg      Total
 -----------------------------------------------------------------------
      C    1   -0.28607      0.99965     2.28030    0.00612     3.28607
      C    2   -0.10710      0.99960     2.09832    0.00918     3.10710
      C    3   -0.28869      0.99964     2.28394    0.00511     3.28869
      C    4   -0.11372      0.99958     2.10340    0.01073     3.11372
      C    5   -0.28422      0.99965     2.27856    0.00602     3.28422
      C    6   -0.18843      0.99957     2.17786    0.01100     3.18843
      C    7   -0.05906      0.99957     2.04584    0.01365     3.05906
      C    8   -0.28715      0.99962     2.28009    0.00743     3.28715
      C    9   -0.28953      0.99962     2.28118    0.00872     3.28953
      C   10   -0.00524      0.99951     1.99216    0.01357     3.00524
      O   11   -0.37233      0.99990     3.36561    0.00683     4.37233
      H   12    0.09593      0.00000     0.40316    0.00091     0.40407
      H   13    0.10001      0.00000     0.39913    0.00086     0.39999
      H   14    0.09698      0.00000     0.40221    0.00081     0.40302
      H   15    0.08961      0.00000     0.40887    0.00152     0.41039
      H   16    0.09373      0.00000     0.40532    0.00095     0.40627
      H   17    0.11334      0.00000     0.38534    0.00132     0.38666
      H   18    0.09413      0.00000     0.40508    0.00079     0.40587
      H   19    0.09155      0.00000     0.40625    0.00220     0.40845
      H   20    0.09530      0.00000     0.40371    0.00099     0.40470
      H   21    0.10152      0.00000     0.39750    0.00098     0.39848
      H   22    0.09873      0.00000     0.40032    0.00095     0.40127
      H   23    0.09765      0.00000     0.40088    0.00146     0.40235
      H   24    0.10548      0.00000     0.39269    0.00183     0.39452
      H   25    0.10173      0.00000     0.39719    0.00109     0.39827
      H   26    0.10221      0.00000     0.39662    0.00117     0.39779
      H   27    0.10000      0.00000     0.39888    0.00112     0.40000
      H   28    0.09921      0.00000     0.39899    0.00180     0.40079
      H   29    0.10232      0.00000     0.39563    0.00205     0.39768
      H   30    0.10341      0.00000     0.39514    0.00145     0.39659
      H   31    0.08698      0.00000     0.41147    0.00155     0.41302
      H   32    0.08006      0.00000     0.41850    0.00144     0.41994
      H   33    0.23164      0.00000     0.26413    0.00423     0.26836
 =======================================================================
   * Total *    0.00000     10.99592    33.87428    0.12981    45.00000

 Normal termination of Gaussian 16 at Tue Dec  8 21:20:33 2020.
