 Gaussian 16, Revision A.03,

 -----------------------------------------------------------
 # opt freq B3LYP/6-31G(d) empiricaldispersion=gd3bj scf=xqc
 -----------------------------------------------------------

 -------------------------------
 CID_143730069_JID_6433_neutraal
 -------------------------------
 Symbolic Z-matrix:
 Charge =  0 Multiplicity = 1

 SCF Done:  E(RB3LYP) =  -641.470433786     A.U. after   13 cycles
 SCF Done:  E(RB3LYP) =  -641.472129083     A.U. after   12 cycles
 SCF Done:  E(RB3LYP) =  -641.470647311     A.U. after   13 cycles
 SCF Done:  E(RB3LYP) =  -641.472733257     A.U. after   11 cycles
 SCF Done:  E(RB3LYP) =  -641.473258798     A.U. after   12 cycles
 SCF Done:  E(RB3LYP) =  -641.473822437     A.U. after   11 cycles
 SCF Done:  E(RB3LYP) =  -641.474158520     A.U. after   11 cycles
 SCF Done:  E(RB3LYP) =  -641.474305250     A.U. after   11 cycles
 SCF Done:  E(RB3LYP) =  -641.474507048     A.U. after   11 cycles
 SCF Done:  E(RB3LYP) =  -641.474648203     A.U. after   11 cycles
 SCF Done:  E(RB3LYP) =  -641.477998678     A.U. after   10 cycles
 SCF Done:  E(RB3LYP) =  -641.478007139     A.U. after    9 cycles
 SCF Done:  E(RB3LYP) =  -641.478008901     A.U. after    9 cycles
 SCF Done:  E(RB3LYP) =  -641.478009029     A.U. after    7 cycles
 SCF Done:  E(RB3LYP) =  -641.478009068     A.U. after    7 cycles
 Optimization completed.
    -- Stationary point found.
 Normal termination of Gaussian 16 at Thu Dec 10 23:03:50 2020.

 --------------------------------------------------------------------
 #N Geom=AllCheck Guess=TCheck SCRF=Check GenChk RB3LYP/6-31G(d) Freq
 --------------------------------------------------------------------

 Structure from the checkpoint file:  "JID_6433.chk"
 -------------------------------
 CID_143730069_JID_6433_neutraal
 -------------------------------
 Charge =  0 Multiplicity = 1

 SCF Done:  E(RB3LYP) =  -641.478009068     A.U. after    1 cycles

  Exact polarizability: 202.238  11.183 130.260  -3.800  13.270 148.548
 Approx polarizability: 257.746  21.990 194.271  -9.885  29.195 242.413

                      1                      2                      3
                      A                      A                      A
 Frequencies --     25.5541                30.6892                43.9248
 Red. masses --      3.8805                 3.7614                 2.6955
 Frc consts  --      0.0015                 0.0021                 0.0031
 IR Inten    --      0.0018                 0.0164                 0.0002

                      4                      5                      6
                      A                      A                      A
 Frequencies --     46.1834                70.9347               100.1775
 Red. masses --      3.4063                 3.5952                 3.6960
 Frc consts  --      0.0043                 0.0107                 0.0219
 IR Inten    --      0.0931                 0.0287                 0.0046

                      7                      8                      9
                      A                      A                      A
 Frequencies --    117.6933               138.9306               193.7313
 Red. masses --      2.3544                 2.3684                 1.9326
 Frc consts  --      0.0192                 0.0269                 0.0427
 IR Inten    --      0.1040                 0.0822                 0.1585

                     10                     11                     12
                      A                      A                      A
 Frequencies --    220.5850               226.2708               242.2096
 Red. masses --      1.5276                 2.7780                 1.2174
 Frc consts  --      0.0438                 0.0838                 0.0421
 IR Inten    --      0.1840                 1.0583                 0.2792

                     13                     14                     15
                      A                      A                      A
 Frequencies --    260.0796               287.2868               299.9937
 Red. masses --      1.4114                 2.8304                 1.7227
 Frc consts  --      0.0562                 0.1376                 0.0913
 IR Inten    --      0.5848                 0.2343                 0.2709

                     16                     17                     18
                      A                      A                      A
 Frequencies --    324.8006               363.4435               384.6342
 Red. masses --      1.8206                 2.2018                 2.6687
 Frc consts  --      0.1132                 0.1714                 0.2326
 IR Inten    --      1.5463                 0.2258                11.4534

                     19                     20                     21
                      A                      A                      A
 Frequencies --    400.7124               420.0293               427.0027
 Red. masses --      2.2041                 2.9911                 1.9645
 Frc consts  --      0.2085                 0.3109                 0.2110
 IR Inten    --      0.0254                 0.0090                 0.3588

                     22                     23                     24
                      A                      A                      A
 Frequencies --    462.4438               490.3283               500.6460
 Red. masses --      1.9606                 2.6345                 3.2814
 Frc consts  --      0.2470                 0.3732                 0.4846
 IR Inten    --      1.4081                 4.4183                 0.8052

                     25                     26                     27
                      A                      A                      A
 Frequencies --    577.8331               638.5097               645.2043
 Red. masses --      3.5827                 6.0704                 3.2368
 Frc consts  --      0.7048                 1.4582                 0.7939
 IR Inten    --      2.8812                 0.5521                17.8484

                     28                     29                     30
                      A                      A                      A
 Frequencies --    718.6905               736.9844               759.4879
 Red. masses --      1.6888                 1.6128                 2.3269
 Frc consts  --      0.5139                 0.5161                 0.7908
 IR Inten    --     29.5576                 4.8831                16.8763

                     31                     32                     33
                      A                      A                      A
 Frequencies --    792.3701               819.4150               837.0443
 Red. masses --      1.9963                 1.8293                 3.1930
 Frc consts  --      0.7385                 0.7237                 1.3181
 IR Inten    --     12.6924                 0.5339                10.2103

                     34                     35                     36
                      A                      A                      A
 Frequencies --    863.3777               864.2948               889.4050
 Red. masses --      1.2444                 1.7950                 1.6496
 Frc consts  --      0.5465                 0.7900                 0.7688
 IR Inten    --      0.0158                 1.0146                 0.4286

                     37                     38                     39
                      A                      A                      A
 Frequencies --    914.7726               930.6113               936.6007
 Red. masses --      1.5471                 1.5628                 1.7924
 Frc consts  --      0.7628                 0.7974                 0.9264
 IR Inten    --      3.2849                 2.8497                 2.0062

                     40                     41                     42
                      A                      A                      A
 Frequencies --    966.0624               967.6962               994.7860
 Red. masses --      1.7298                 1.3997                 1.2462
 Frc consts  --      0.9512                 0.7723                 0.7266
 IR Inten    --      3.2862                 0.6497                 0.8734

                     43                     44                     45
                      A                      A                      A
 Frequencies --   1013.1136              1021.0004              1023.1794
 Red. masses --      1.8395                 1.5113                 5.4889
 Frc consts  --      1.1124                 0.9282                 3.3856
 IR Inten    --     14.3220                 0.7056                 0.0417

                     46                     47                     48
                      A                      A                      A
 Frequencies --   1030.3760              1052.0085              1061.2143
 Red. masses --      1.5415                 1.7894                 2.1835
 Frc consts  --      0.9643                 1.1668                 1.4488
 IR Inten    --      2.3418                20.7758                 1.0072

                     49                     50                     51
                      A                      A                      A
 Frequencies --   1084.8875              1086.8535              1113.9766
 Red. masses --      2.2616                 1.9212                 1.7563
 Frc consts  --      1.5684                 1.3371                 1.2841
 IR Inten    --     10.2808                 4.5396                13.8815

                     52                     53                     54
                      A                      A                      A
 Frequencies --   1132.1998              1154.7105              1176.8142
 Red. masses --      1.8600                 1.5364                 1.7536
 Frc consts  --      1.4048                 1.2070                 1.4308
 IR Inten    --      3.5564                 4.8185                 1.1967

                     55                     56                     57
                      A                      A                      A
 Frequencies --   1178.5163              1193.5767              1198.4172
 Red. masses --      1.9006                 1.0990                 1.8365
 Frc consts  --      1.5553                 0.9225                 1.5540
 IR Inten    --      5.4769                 0.0622                11.2282

                     58                     59                     60
                      A                      A                      A
 Frequencies --   1214.8708              1220.0303              1225.8254
 Red. masses --      1.1997                 1.4525                 2.9953
 Frc consts  --      1.0433                 1.2738                 2.6518
 IR Inten    --      1.4535                 3.0389                 6.3766

                     61                     62                     63
                      A                      A                      A
 Frequencies --   1272.1760              1295.5367              1314.5712
 Red. masses --      1.5308                 1.2745                 1.3674
 Frc consts  --      1.4597                 1.2603                 1.3922
 IR Inten    --      2.6445                 2.4306                 1.8307

                     64                     65                     66
                      A                      A                      A
 Frequencies --   1327.1756              1342.1008              1353.7350
 Red. masses --      1.4645                 2.3499                 1.2112
 Frc consts  --      1.5199                 2.4938                 1.3077
 IR Inten    --      2.5621                11.0193                 1.7408

                     67                     68                     69
                      A                      A                      A
 Frequencies --   1367.5531              1375.0198              1385.7211
 Red. masses --      2.2463                 1.2524                 1.4071
 Frc consts  --      2.4752                 1.3951                 1.5920
 IR Inten    --      0.9059                 1.3273                 7.6869

                     70                     71                     72
                      A                      A                      A
 Frequencies --   1388.7632              1397.4694              1415.7284
 Red. masses --      1.2989                 1.3797                 1.4292
 Frc consts  --      1.4760                 1.5875                 1.6878
 IR Inten    --     28.0123                 8.4334                 3.7281

                     73                     74                     75
                      A                      A                      A
 Frequencies --   1422.9308              1432.1483              1440.2626
 Red. masses --      1.4872                 1.3604                 1.2481
 Frc consts  --      1.7741                 1.6440                 1.5254
 IR Inten    --      0.5627                 5.6129                 3.8953

                     76                     77                     78
                      A                      A                      A
 Frequencies --   1443.7729              1483.2967              1503.2716
 Red. masses --      1.2676                 1.1724                 1.1021
 Frc consts  --      1.5567                 1.5198                 1.4674
 IR Inten    --      7.2897                 2.3144                 5.1947

                     79                     80                     81
                      A                      A                      A
 Frequencies --   1503.7227              1509.0539              1511.8453
 Red. masses --      2.1417                 1.0832                 1.0679
 Frc consts  --      2.8533                 1.4533                 1.4381
 IR Inten    --      4.2785                 0.8263                 6.3507

                     82                     83                     84
                      A                      A                      A
 Frequencies --   1521.0235              1525.6825              1529.5729
 Red. masses --      1.0578                 1.0622                 1.0596
 Frc consts  --      1.4418                 1.4567                 1.4606
 IR Inten    --      2.7660                 2.7374                15.0616

                     85                     86                     87
                      A                      A                      A
 Frequencies --   1534.3921              1534.9254              1539.9192
 Red. masses --      1.0567                 1.0424                 1.0725
 Frc consts  --      1.4658                 1.4470                 1.4985
 IR Inten    --      0.9620                 1.2077                 2.4757

                     88                     89                     90
                      A                      A                      A
 Frequencies --   1543.2856              1545.2982              1547.5309
 Red. masses --      1.1713                 1.0793                 1.8452
 Frc consts  --      1.6437                 1.5185                 2.6036
 IR Inten    --      8.1915                 5.3392                10.5268

                     91                     92                     93
                      A                      A                      A
 Frequencies --   1646.7618              1666.5235              2951.4814
 Red. masses --      5.4794                 5.5852                 1.0730
 Frc consts  --      8.7548                 9.1393                 5.5070
 IR Inten    --      0.8311                 1.8487                49.1698

                     94                     95                     96
                      A                      A                      A
 Frequencies --   2970.2201              3012.9844              3028.2441
 Red. masses --      1.0584                 1.0662                 1.0606
 Frc consts  --      5.5013                 5.7027                 5.7302
 IR Inten    --     70.6196                22.2484                29.3344

                     97                     98                     99
                      A                      A                      A
 Frequencies --   3036.2955              3040.8909              3041.7596
 Red. masses --      1.0463                 1.0570                 1.0595
 Frc consts  --      5.6834                 5.7590                 5.7757
 IR Inten    --     28.8143                55.5769                32.6213

                    100                    101                    102
                      A                      A                      A
 Frequencies --   3045.5430              3051.8808              3057.5194
 Red. masses --      1.0381                 1.0860                 1.0917
 Frc consts  --      5.6730                 5.9594                 6.0132
 IR Inten    --      8.6191                10.2540                10.1409

                    103                    104                    105
                      A                      A                      A
 Frequencies --   3063.9357              3077.3122              3081.9803
 Red. masses --      1.0965                 1.0957                 1.0884
 Frc consts  --      6.0646                 6.1134                 6.0913
 IR Inten    --     10.0456                35.7007                38.4232

                    106                    107                    108
                      A                      A                      A
 Frequencies --   3083.0583              3087.7444              3099.8054
 Red. masses --      1.0841                 1.1012                 1.1002
 Frc consts  --      6.0711                 6.1857                 6.2284
 IR Inten    --     39.8762                44.5622                56.6513

                    109                    110                    111
                      A                      A                      A
 Frequencies --   3110.2225              3115.1350              3117.8239
 Red. masses --      1.1020                 1.1010                 1.1005
 Frc consts  --      6.2808                 6.2948                 6.3031
 IR Inten    --     43.8453                84.9359                26.7274

                    112                    113                    114
                      A                      A                      A
 Frequencies --   3126.7932              3175.1180              3177.8244
 Red. masses --      1.1011                 1.0853                 1.0870
 Frc consts  --      6.3429                 6.4467                 6.4676
 IR Inten    --     39.0797                 8.5280                 4.3677

                    115                    116                    117
                      A                      A                      A
 Frequencies --   3188.8362              3197.0394              3209.1640
 Red. masses --      1.0900                 1.0939                 1.0979
 Frc consts  --      6.5307                 6.5878                 6.6620
 IR Inten    --      9.7215                44.6011                24.0218

 - Thermochemistry -
 -------------------
 Temperature   298.150 Kelvin.  Pressure   1.00000 Atm.
 Atom     1 has atomic number  6 and mass  12.00000

 Molecular mass:   219.19870 amu.
 Principal axes and moments of inertia in atomic units:
                           1         2         3
     Eigenvalues --  1547.045668577.615648714.64419
           X            0.99999   0.00362  -0.00189
           Y           -0.00358   0.99979   0.02021
           Z            0.00196  -0.02021   0.99979
 This molecule is an asymmetric top.
 Rotational symmetry number  1.
 Warning -- assumption of classical behavior for rotation
           may cause significant error
 Rotational temperatures (Kelvin)      0.05599     0.01010     0.00994
 Rotational constants (GHZ):           1.16657     0.21040     0.20709
 Zero-point vibrational energy     986215.7 (Joules/Mol)
                                  235.71120 (Kcal/Mol)
 Warning -- explicit consideration of  25 degrees of freedom as
           vibrations may cause significant error
 Vibrational temperatures:     36.77    44.15    63.20    66.45   102.06
          (Kelvin)            144.13   169.33   199.89   278.74   317.37
                              325.55   348.49   374.20   413.34   431.62
                              467.32   522.91   553.40   576.54   604.33
                              614.36   665.35   705.47   720.32   831.37
                              918.67   928.31  1034.04  1060.36  1092.73
                             1140.04  1178.96  1204.32  1242.21  1243.53
                             1279.66  1316.15  1338.94  1347.56  1389.95
                             1392.30  1431.28  1457.64  1468.99  1472.13
                             1482.48  1513.61  1526.85  1560.91  1563.74
                             1602.76  1628.98  1661.37  1693.17  1695.62
                             1717.29  1724.26  1747.93  1755.35  1763.69
                             1830.38  1863.99  1891.37  1909.51  1930.98
                             1947.72  1967.60  1978.35  1993.74  1998.12
                             2010.65  2036.92  2047.28  2060.54  2072.22
                             2077.27  2134.13  2162.87  2163.52  2171.19
                             2175.21  2188.41  2195.12  2200.71  2207.65
                             2208.42  2215.60  2220.44  2223.34  2226.55
                             2369.32  2397.76  4246.52  4273.48  4335.01
                             4356.97  4368.55  4375.16  4376.41  4381.86
                             4390.98  4399.09  4408.32  4427.57  4434.28
                             4435.83  4442.58  4459.93  4474.92  4481.98
                             4485.85  4498.76  4568.29  4572.18  4588.02
                             4599.83  4617.27

 Zero-point correction=                           0.375630 (Hartree/Particle)
 Thermal correction to Energy=                    0.392953
 Thermal correction to Enthalpy=                  0.393897
 Thermal correction to Gibbs Free Energy=         0.328956
 Sum of electronic and zero-point Energies=           -641.102379
 Sum of electronic and thermal Energies=              -641.085056
 Sum of electronic and thermal Enthalpies=            -641.084112
 Sum of electronic and thermal Free Energies=         -641.149053

                     E (Thermal)             CV                S
                      KCal/Mol        Cal/Mol-Kelvin    Cal/Mol-Kelvin
 Total                  246.581             65.943            136.680
 Electronic               0.000              0.000              0.000
 Translational            0.889              2.981             42.057
 Rotational               0.889              2.981             33.114
 Vibrational            244.804             59.982             61.509
 Vibration     1          0.593              1.985              6.148
 Vibration     2          0.594              1.984              5.784
 Vibration     3          0.595              1.980              5.074
 Vibration     4          0.595              1.979              4.974
 Vibration     5          0.598              1.968              4.127
 Vibration     6          0.604              1.949              3.451
 Vibration     7          0.608              1.935              3.138
 Vibration     8          0.615              1.914              2.819
 Vibration     9          0.635              1.849              2.192
 Vibration    10          0.647              1.810              1.954
 Vibration    11          0.650              1.801              1.908
 Vibration    12          0.658              1.776              1.787
 Vibration    13          0.668              1.746              1.661
 Vibration    14          0.684              1.697              1.490
 Vibration    15          0.693              1.674              1.417
 Vibration    16          0.709              1.626              1.286
 Vibration    17          0.737              1.548              1.107
 Vibration    18          0.754              1.503              1.021
 Vibration    19          0.767              1.469              0.960
 Vibration    20          0.783              1.427              0.892
 Vibration    21          0.789              1.411              0.869
 Vibration    22          0.820              1.333              0.759
 Vibration    23          0.846              1.271              0.683
 Vibration    24          0.856              1.249              0.657
 Vibration    25          0.934              1.079              0.489

 Optimization completed.
    -- Stationary point found.
 Normal termination of Gaussian 16 at Thu Dec 10 23:17:35 2020.

 ----------------------------------------------------------------------
 # B3LYP/6-311++G(d,p) empiricaldispersion=gd3bj scf=xqc pop=npa geom=c
 heck
 ----------------------------------------------------------------------

 ---------------------------------------
 CID_143730069_JID_6433_Energie_neutraal
 ---------------------------------------
 Structure from the checkpoint file:  "JID_6433.chk"
 Charge =  0 Multiplicity = 1

 SCF Done:  E(RB3LYP) =  -641.650056461     A.U. after   15 cycles
 Normal termination of Gaussian 16 at Thu Dec 10 23:24:30 2020.

 ----------------------------------------------------------------------
 # B3LYP/6-311++G(d,p) empiricaldispersion=gd3bj scf=xqc pop=npa geom=c
 heck
 ----------------------------------------------------------------------

 -------------------------------------
 CID_143730069_JID_6433_Energie_kation
 -------------------------------------
 Structure from the checkpoint file:  "JID_6433.chk"
 Charge =  1 Multiplicity = 2

 SCF Done:  E(UB3LYP) =  -641.366391202     A.U. after   21 cycles
 Normal termination of Gaussian 16 at Thu Dec 10 23:37:29 2020.
 Gaussian 16:  ES64L-G16RevA.03 25-Dec-2016

 ----------------------------------------------------------------------
 # B3LYP/6-311++G(d,p) empiricaldispersion=gd3bj scf=xqc pop=npa geom=c
 heck
 ----------------------------------------------------------------------

 ------------------------------------
 CID_143730069_JID_6433_Energie_anion
 ------------------------------------
 Structure from the checkpoint file:  "JID_6433.chk"
 Charge = -1 Multiplicity = 2

                         Standard orientation:
 ---------------------------------------------------------------------
 Center     Atomic      Atomic             Coordinates (Angstroms)
 Number     Number       Type             X           Y           Z
 ---------------------------------------------------------------------
      1          6           0       -4.216078   -1.994398   -0.079199
      2          6           0       -4.278721   -0.926939    1.017678
      3          6           0       -3.046817   -0.010178    1.056347
      4          6           0       -2.759808    0.773822   -0.236020
      5          6           0       -3.952817    1.635302   -0.667898
      6          6           0       -1.505511    1.653584   -0.092917
      7          6           0       -0.223063    0.903222    0.289023
      8          7           0        0.020209   -0.274208   -0.542621
      9          6           0        0.309452    0.060530   -1.929119
     10          6           0        0.999401   -1.200996    0.038924
     11          6           0        2.416935   -0.669926    0.168854
     12          6           0        2.819098    0.028664    1.314168
     13          6           0        4.100417    0.570822    1.410926
     14          6           0        5.004526    0.419997    0.358392
     15          6           0        4.620097   -0.280208   -0.785878
     16          6           0        3.337116   -0.820183   -0.875990
     17          1           0       -4.240187   -1.548390   -1.079562
     18          1           0       -5.061220   -2.688107   -0.006089
     19          1           0       -3.291073   -2.579116   -0.003849
     20          1           0       -5.191540   -0.329589    0.897496
     21          1           0       -4.370309   -1.420736    1.994254
     22          1           0       -3.157286    0.703763    1.886836
     23          1           0       -2.171772   -0.629676    1.288349
     24          1           0       -2.553349    0.044165   -1.028465
     25          1           0       -4.231499    2.344833    0.122476
     26          1           0       -3.711659    2.217200   -1.565522
     27          1           0       -4.835410    1.028687   -0.895721
     28          1           0       -1.349144    2.202677   -1.030709
     29          1           0       -1.681276    2.421697    0.674114
     30          1           0        0.626425    1.610898    0.267577
     31          1           0       -0.305496    0.553982    1.324457
     32          1           0        1.205076    0.694973   -2.055263
     33          1           0        0.463270   -0.861904   -2.499805
     34          1           0       -0.543590    0.584860   -2.369209
     35          1           0        0.623569   -1.490387    1.027689
     36          1           0        1.002354   -2.103264   -0.584882
     37          1           0        2.121737    0.141826    2.140677
     38          1           0        4.394910    1.106419    2.309414
     39          1           0        6.004004    0.839372    0.432341
     40          1           0        5.320896   -0.410298   -1.606142
     41          1           0        3.045733   -1.373127   -1.765854
 ---------------------------------------------------------------------

 SCF Done:  E(UB3LYP) =  -641.635962783     A.U. after   33 cycles
 SCF Done:  E(UB3LYP) =  -641.635962782     a.u. after    1 cycles

 The electronic state is 2-A.
 Alpha  occ. eigenvalues --  -14.21173 -10.10280 -10.09546 -10.09062 -10.08491
 Alpha  occ. eigenvalues --  -10.08280 -10.08246 -10.08140 -10.08061 -10.08034
 Alpha  occ. eigenvalues --  -10.07516 -10.07347 -10.07131 -10.06695 -10.06693
 Alpha  occ. eigenvalues --  -10.06652  -0.83226  -0.76371  -0.72565  -0.68044
 Alpha  occ. eigenvalues --   -0.66829  -0.65487  -0.63287  -0.60668  -0.58873
 Alpha  occ. eigenvalues --   -0.56187  -0.52062  -0.51471  -0.49961  -0.47909
 Alpha  occ. eigenvalues --   -0.44950  -0.42158  -0.39488  -0.38574  -0.37904
 Alpha  occ. eigenvalues --   -0.37080  -0.36582  -0.35579  -0.34615  -0.33139
 Alpha  occ. eigenvalues --   -0.33109  -0.32739  -0.31506  -0.30827  -0.29849
 Alpha  occ. eigenvalues --   -0.29747  -0.28270  -0.27507  -0.27092  -0.26494
 Alpha  occ. eigenvalues --   -0.25991  -0.25534  -0.25318  -0.25009  -0.24608
 Alpha  occ. eigenvalues --   -0.22420  -0.22200  -0.21462  -0.16363  -0.15943
 Alpha  occ. eigenvalues --   -0.12286   0.04080
 Alpha virt. eigenvalues --    0.05601   0.06377   0.06716   0.07004   0.07431
 Alpha virt. eigenvalues --    0.07579   0.07664   0.08719   0.09049   0.09155
 Alpha virt. eigenvalues --    0.09292   0.09830   0.10541   0.11338   0.11516

  Beta  occ. eigenvalues --  -14.21174 -10.10268 -10.09537 -10.09039 -10.08481
  Beta  occ. eigenvalues --  -10.08270 -10.08230 -10.08120 -10.08048 -10.08017
  Beta  occ. eigenvalues --  -10.07512 -10.07335 -10.07120 -10.06683 -10.06675
  Beta  occ. eigenvalues --  -10.06632  -0.83215  -0.76338  -0.72547  -0.68014
  Beta  occ. eigenvalues --   -0.66796  -0.65450  -0.63261  -0.60630  -0.58836
  Beta  occ. eigenvalues --   -0.56151  -0.52022  -0.51429  -0.49917  -0.47868
  Beta  occ. eigenvalues --   -0.44911  -0.42102  -0.39464  -0.38550  -0.37873
  Beta  occ. eigenvalues --   -0.37055  -0.36547  -0.35546  -0.34589  -0.33109
  Beta  occ. eigenvalues --   -0.33075  -0.32704  -0.31481  -0.30800  -0.29825
  Beta  occ. eigenvalues --   -0.29725  -0.28236  -0.27482  -0.27063  -0.26466
  Beta  occ. eigenvalues --   -0.25956  -0.25505  -0.25297  -0.24979  -0.24579
  Beta  occ. eigenvalues --   -0.22393  -0.22176  -0.21442  -0.16327  -0.15880
  Beta  occ. eigenvalues --   -0.12277
  Beta virt. eigenvalues --    0.05854   0.06391   0.06995   0.07024   0.07435
  Beta virt. eigenvalues --    0.07640   0.07818   0.07999   0.09022   0.09314
  Beta virt. eigenvalues --    0.09407   0.09741   0.10052   0.10773   0.11616

 Mulliken charges and spin densities:
               1          2
     1  C    0.177843  -0.766117
     2  C   -0.703627   0.296143
     3  C    0.607627  -0.706477
     4  C   -1.548911   2.199015
     5  C    0.332316  -1.079569
     6  C    1.776757  -2.721070
     7  C   -1.389011   1.137410
     8  N    0.233999   0.014896
     9  C    0.145718  -0.622271
    10  C    1.872311  -2.512778
    11  C   -0.636950   1.111827
    12  C   -1.305325   1.406255
    13  C    0.489921  -0.719812
    14  C    1.352155  -1.767510
    15  C    0.225585  -0.460713
    16  C   -0.894747   0.720427
    17  H   -0.157634   0.315072
    18  H   -0.159688   0.300409
    19  H    0.121127   0.025300
    20  H    0.036081   0.088806
    21  H   -0.158751   0.317684
    22  H   -0.105581   0.257596
    23  H    0.376986  -0.252477
    24  H    0.228398  -0.097723
    25  H   -0.009624   0.161018
    26  H   -0.030748   0.155732
    27  H    0.033576   0.096919
    28  H    0.050344   0.118307
    29  H    0.040617   0.106993
    30  H    0.196002  -0.048356
    31  H   -0.097022   0.218509
    32  H    0.136538   0.018757
    33  H   -0.163520   0.323263
    34  H   -0.067522   0.187246
    35  H   -0.186404   0.357846
    36  H   -0.081358   0.260503
    37  H   -0.244098   0.401561
    38  H   -0.485539   0.668796
    39  H   -0.244211   0.394975
    40  H   -0.569768   0.752731
    41  H   -0.193866   0.340876
 Sum of Mulliken charges =  -1.00000   1.00000

 Dipole moment (field-independent basis, Debye):
    X=             -2.9725    Y=              0.9526    Z=             -0.1283  Tot=              3.1241
 Quadrupole moment (field-independent basis, Debye-Ang):
   XX=           -216.2602   YY=           -141.1708   ZZ=           -145.3322
   XY=             -5.2219   XZ=             -0.6446   YZ=             -2.6293

 Summary of Natural Population Analysis:

                                       Natural Population
                Natural  -----------------------------------------------
    Atom  No    Charge         Core      Valence    Rydberg      Total
 -----------------------------------------------------------------------
      C    1   -0.28665      0.99967     2.28242    0.00456     3.28665
      C    2   -0.18785      0.99964     2.18128    0.00692     3.18785
      C    3   -0.18973      0.99961     2.17982    0.01031     3.18973
      C    4   -0.11844      0.99959     2.10953    0.00932     3.11844
      C    5   -0.28391      0.99965     2.27928    0.00498     3.28391
      C    6   -0.18803      0.99961     2.18025    0.00817     3.18803
      C    7   -0.08512      0.99961     2.07476    0.01075     3.08512
      N    8   -0.27967      0.99973     2.76757    0.01237     3.77967
      C    9   -0.18099      0.99964     2.17240    0.00896     3.18099
      C   10   -0.08733      0.99957     2.07484    0.01292     3.08733
      C   11   -0.02676      0.99950     2.01730    0.00997     3.02676
      C   12   -0.09823      0.99951     2.08888    0.00983     3.09823
      C   13   -0.10055      0.99956     2.09052    0.01047     3.10055
      C   14   -0.10190      0.99956     2.09257    0.00977     3.10190
      C   15   -0.09962      0.99956     2.08954    0.01052     3.09962
      C   16   -0.09964      0.99951     2.09005    0.01008     3.09964
      H   17    0.09615      0.00000     0.40270    0.00115     0.40385
      H   18    0.09645      0.00000     0.40258    0.00097     0.40355
      H   19    0.09813      0.00000     0.40051    0.00135     0.40187
      H   20    0.09157      0.00000     0.40711    0.00132     0.40843
      H   21    0.09422      0.00000     0.40459    0.00119     0.40578
      H   22    0.09341      0.00000     0.40548    0.00112     0.40659
      H   23    0.09977      0.00000     0.39846    0.00177     0.40023
      H   24    0.09973      0.00000     0.39754    0.00274     0.40027
      H   25    0.09453      0.00000     0.40441    0.00106     0.40547
      H   26    0.09800      0.00000     0.40096    0.00104     0.40200
      H   27    0.09865      0.00000     0.40034    0.00101     0.40135
      H   28    0.09568      0.00000     0.40313    0.00119     0.40432
      H   29    0.09766      0.00000     0.40131    0.00104     0.40234
      H   30    0.08710      0.00000     0.41094    0.00196     0.41290
      H   31    0.09496      0.00000     0.40342    0.00162     0.40504
      H   32    0.08538      0.00000     0.41331    0.00131     0.41462
      H   33    0.09602      0.00000     0.40289    0.00109     0.40398
      H   34    0.09496      0.00000     0.40393    0.00112     0.40504
      H   35    0.09845      0.00000     0.40022    0.00134     0.40155
      H   36    0.09792      0.00000     0.40087    0.00120     0.40208
      H   37    0.10091      0.00000     0.39734    0.00176     0.39909
      H   38    0.10130      0.00000     0.39753    0.00118     0.39870
      H   39    0.10137      0.00000     0.39736    0.00128     0.39863
      H   40    0.10141      0.00000     0.39731    0.00127     0.39859
      H   41    0.10074      0.00000     0.39749    0.00177     0.39926
 =======================================================================
   * Total *   -0.00000     15.99352    44.82271    0.18377    61.00000

 Normal termination of Gaussian 16 at Thu Dec 10 23:58:22 2020.
