 Gaussian 16, Revision A.03,

 -----------------------------------------------------------
 # opt freq B3LYP/6-31G(d) empiricaldispersion=gd3bj scf=xqc
 -----------------------------------------------------------

 -------------------------------
 CID_141329330_JID_2499_neutraal
 -------------------------------
 Symbolic Z-matrix:
 Charge =  0 Multiplicity = 1

 SCF Done:  E(RB3LYP) =  -506.506826199     A.U. after   12 cycles
 SCF Done:  E(RB3LYP) =  -506.508832556     A.U. after   10 cycles
 SCF Done:  E(RB3LYP) =  -506.508920031     A.U. after   10 cycles
 SCF Done:  E(RB3LYP) =  -506.508950789     A.U. after    9 cycles
 SCF Done:  E(RB3LYP) =  -506.508974375     A.U. after    9 cycles
 SCF Done:  E(RB3LYP) =  -506.508974802     A.U. after    7 cycles
 Optimization completed.
    -- Stationary point found.
 Normal termination of Gaussian 16 at Wed Dec  9 17:27:24 2020.

 --------------------------------------------------------------------
 #N Geom=AllCheck Guess=TCheck SCRF=Check GenChk RB3LYP/6-31G(d) Freq
 --------------------------------------------------------------------

 Structure from the checkpoint file:  "JID_2499.chk"
 -------------------------------
 CID_141329330_JID_2499_neutraal
 -------------------------------
 Charge =  0 Multiplicity = 1

 SCF Done:  E(RB3LYP) =  -506.508974802     A.U. after    1 cycles

  Exact polarizability: 131.621  -0.349 106.532   0.072   0.188 101.346
 Approx polarizability: 161.458  -0.549 153.731   0.729  -0.985 154.810

                      1                      2                      3
                      A                      A                      A
 Frequencies --    101.7971               113.7313               139.0626
 Red. masses --      2.7861                 2.8027                 2.8107
 Frc consts  --      0.0170                 0.0214                 0.0320
 IR Inten    --      0.2335                 0.2512                 0.4917

                      4                      5                      6
                      A                      A                      A
 Frequencies --    215.7894               245.2608               257.4984
 Red. masses --      2.0228                 2.4716                 1.1479
 Frc consts  --      0.0555                 0.0876                 0.0448
 IR Inten    --      0.2425                 0.5824                 0.3492

                      7                      8                      9
                      A                      A                      A
 Frequencies --    281.8451               300.9343               341.7027
 Red. masses --      2.7221                 2.2224                 2.0357
 Frc consts  --      0.1274                 0.1186                 0.1400
 IR Inten    --      0.0737                 0.2141                 0.1147

                     10                     11                     12
                      A                      A                      A
 Frequencies --    380.1546               399.0541               426.0379
 Red. masses --      2.2817                 2.0961                 2.1213
 Frc consts  --      0.1943                 0.1967                 0.2269
 IR Inten    --      1.8782                 0.2992                 1.0603

                     13                     14                     15
                      A                      A                      A
 Frequencies --    440.6419               464.0478               489.2610
 Red. masses --      2.9670                 2.9972                 2.9566
 Frc consts  --      0.3394                 0.3803                 0.4170
 IR Inten    --      0.5027                 6.0628                 1.3039

                     16                     17                     18
                      A                      A                      A
 Frequencies --    526.3807               562.3338               661.2153
 Red. masses --      2.4841                 1.9872                 2.0749
 Frc consts  --      0.4055                 0.3702                 0.5345
 IR Inten    --      1.7295                 1.5643                 1.2114

                     19                     20                     21
                      A                      A                      A
 Frequencies --    695.6661               790.4808               802.9001
 Red. masses --      2.9856                 2.6659                 1.5053
 Frc consts  --      0.8513                 0.9815                 0.5717
 IR Inten    --      0.7377                 1.2268                 0.8594

                     22                     23                     24
                      A                      A                      A
 Frequencies --    840.6987               859.2000               867.0383
 Red. masses --      2.1209                 2.0959                 1.6700
 Frc consts  --      0.8832                 0.9116                 0.7397
 IR Inten    --      0.3985                 4.0726                 3.6492

                     25                     26                     27
                      A                      A                      A
 Frequencies --    891.5540               906.0302               925.6367
 Red. masses --      2.0365                 2.1742                 2.0735
 Frc consts  --      0.9537                 1.0516                 1.0467
 IR Inten    --      5.8583                 2.9093                 6.9580

                     28                     29                     30
                      A                      A                      A
 Frequencies --    959.9084               961.9158               976.4125
 Red. masses --      1.7400                 1.4895                 1.7807
 Frc consts  --      0.9446                 0.8120                 1.0002
 IR Inten    --      2.4636                 1.2259                 4.4512

                     31                     32                     33
                      A                      A                      A
 Frequencies --   1001.8569              1025.5270              1039.7898
 Red. masses --      1.7829                 2.0191                 2.1347
 Frc consts  --      1.0544                 1.2511                 1.3598
 IR Inten    --      1.0649                 4.3039                29.3390

                     34                     35                     36
                      A                      A                      A
 Frequencies --   1058.8182              1072.7380              1088.9143
 Red. masses --      1.6300                 2.0283                 1.4414
 Frc consts  --      1.0766                 1.3752                 1.0070
 IR Inten    --      4.3160                60.8952                16.5180

                     37                     38                     39
                      A                      A                      A
 Frequencies --   1099.2841              1114.7591              1125.7942
 Red. masses --      1.9289                 1.7632                 1.5017
 Frc consts  --      1.3733                 1.2910                 1.1214
 IR Inten    --      1.5449                 9.8108                13.0645

                     40                     41                     42
                      A                      A                      A
 Frequencies --   1175.2643              1180.1625              1205.5137
 Red. masses --      2.3989                 1.6114                 1.9914
 Frc consts  --      1.9522                 1.3223                 1.7051
 IR Inten    --     52.6026                 5.3599                 4.6669

                     43                     44                     45
                      A                      A                      A
 Frequencies --   1221.7379              1249.3007              1270.4446
 Red. masses --      1.6779                 1.5769                 1.7514
 Frc consts  --      1.4756                 1.4500                 1.6655
 IR Inten    --      9.3812                50.4407                 6.3345

                     46                     47                     48
                      A                      A                      A
 Frequencies --   1298.1023              1308.7532              1317.4539
 Red. masses --      1.2944                 1.2536                 1.3354
 Frc consts  --      1.2851                 1.2651                 1.3656
 IR Inten    --      4.1615                 0.7781                 1.8849

                     49                     50                     51
                      A                      A                      A
 Frequencies --   1332.4950              1366.1449              1374.4474
 Red. masses --      1.3095                 1.4592                 1.4386
 Frc consts  --      1.3699                 1.6046                 1.6012
 IR Inten    --      6.3567                 4.5497                 9.7557

                     52                     53                     54
                      A                      A                      A
 Frequencies --   1384.7602              1387.9490              1398.9378
 Red. masses --      1.4190                 1.4644                 1.5062
 Frc consts  --      1.6031                 1.6621                 1.7367
 IR Inten    --      0.7464                 1.2265                 7.8087

                     55                     56                     57
                      A                      A                      A
 Frequencies --   1401.0168              1405.2225              1409.4391
 Red. masses --      1.4808                 1.4680                 1.3872
 Frc consts  --      1.7125                 1.7079                 1.6236
 IR Inten    --      0.8474                 2.3294                 0.7680

                     58                     59                     60
                      A                      A                      A
 Frequencies --   1413.6120              1419.8155              1434.8227
 Red. masses --      1.5194                 1.2741                 1.2766
 Frc consts  --      1.7889                 1.5133                 1.5485
 IR Inten    --      0.1466                 1.1881                19.2815

                     61                     62                     63
                      A                      A                      A
 Frequencies --   1504.8138              1508.8205              1514.0422
 Red. masses --      1.0896                 1.0823                 1.0789
 Frc consts  --      1.4537                 1.4517                 1.4572
 IR Inten    --      0.4453                 0.8669                 3.6455

                     64                     65                     66
                      A                      A                      A
 Frequencies --   1516.1788              1522.1807              1524.5077
 Red. masses --      1.0919                 1.0876                 1.0717
 Frc consts  --      1.4789                 1.4848                 1.4675
 IR Inten    --      3.0846                 1.9521                10.2808

                     67                     68                     69
                      A                      A                      A
 Frequencies --   1528.1317              1530.4515              1536.2056
 Red. masses --      1.0756                 1.0701                 1.0911
 Frc consts  --      1.4798                 1.4768                 1.5172
 IR Inten    --      1.9467                 8.0445                 2.6286

                     70                     71                     72
                      A                      A                      A
 Frequencies --   1543.9926              3025.1217              3032.7919
 Red. masses --      1.0876                 1.0679                 1.0632
 Frc consts  --      1.5275                 5.7579                 5.7617
 IR Inten    --      2.5703                18.7124                29.3871

                     73                     74                     75
                      A                      A                      A
 Frequencies --   3034.6670              3037.5559              3039.2063
 Red. masses --      1.0638                 1.0671                 1.0690
 Frc consts  --      5.7719                 5.8009                 5.8176
 IR Inten    --     15.0195                 6.6399                30.8906

                     76                     77                     78
                      A                      A                      A
 Frequencies --   3044.3008              3046.9775              3051.1809
 Red. masses --      1.0631                 1.0611                 1.0623
 Frc consts  --      5.8051                 5.8044                 5.8268
 IR Inten    --      1.0761                29.4662                41.6831

                     79                     80                     81
                      A                      A                      A
 Frequencies --   3053.3408              3058.9339              3072.7719
 Red. masses --      1.0709                 1.0556                 1.0927
 Frc consts  --      5.8824                 5.8198                 6.0785
 IR Inten    --      1.7182                49.0259                59.9143

                     82                     83                     84
                      A                      A                      A
 Frequencies --   3074.5284              3079.2799              3079.6798
 Red. masses --      1.0967                 1.1003                 1.0978
 Frc consts  --      6.1080                 6.1469                 6.1344
 IR Inten    --     66.0054                45.6631                30.6572

                     85                     86                     87
                      A                      A                      A
 Frequencies --   3087.7127              3091.6116              3100.4168
 Red. masses --      1.1039                 1.1025                 1.0962
 Frc consts  --      6.2007                 6.2087                 6.2083
 IR Inten    --     28.6116               100.0378                45.7229

                     88                     89                     90
                      A                      A                      A
 Frequencies --   3108.5716              3123.9523              3144.4669
 Red. masses --      1.0993                 1.0973                 1.1018
 Frc consts  --      6.2586                 6.3091                 6.4186
 IR Inten    --     48.9654                31.2228                37.2522

 - Thermochemistry -
 -------------------
 Temperature   298.150 Kelvin.  Pressure   1.00000 Atm.
 Atom     1 has atomic number  6 and mass  12.00000

 Molecular mass:   168.15142 amu.
 Principal axes and moments of inertia in atomic units:
                           1         2         3
     Eigenvalues --  1048.021642794.486792910.86176
           X            0.99997  -0.00538  -0.00585
           Y            0.00554   0.99960   0.02769
           Z            0.00570  -0.02772   0.99960
 This molecule is an asymmetric top.
 Rotational symmetry number  1.
 Warning -- assumption of classical behavior for rotation
           may cause significant error
 Rotational temperatures (Kelvin)      0.08265     0.03099     0.02976
 Rotational constants (GHZ):           1.72205     0.64582     0.62000
 Zero-point vibrational energy     783694.3 (Joules/Mol)
                                  187.30744 (Kcal/Mol)
 Warning -- explicit consideration of  17 degrees of freedom as
           vibrations may cause significant error
 Vibrational temperatures:    146.46   163.63   200.08   310.47   352.88
          (Kelvin)            370.48   405.51   432.98   491.63   546.96
                              574.15   612.97   633.99   667.66   703.94
                              757.34   809.07   951.34  1000.91  1137.33
                             1155.19  1209.58  1236.20  1247.47  1282.75
                             1303.58  1331.78  1381.09  1383.98  1404.84
                             1441.45  1475.50  1496.03  1523.40  1543.43
                             1566.70  1581.62  1603.89  1619.77  1690.94
                             1697.99  1734.47  1757.81  1797.47  1827.89
                             1867.68  1883.00  1895.52  1917.16  1965.58
                             1977.52  1992.36  1996.95  2012.76  2015.75
                             2021.80  2027.87  2033.87  2042.80  2064.39
                             2165.09  2170.86  2178.37  2181.44  2190.08
                             2193.43  2198.64  2201.98  2210.26  2221.46
                             4352.48  4363.51  4366.21  4370.37  4372.74
                             4380.07  4383.92  4389.97  4393.08  4401.12
                             4421.03  4423.56  4430.40  4430.97  4442.53
                             4448.14  4460.81  4472.54  4494.67  4524.19

 Zero-point correction=                           0.298493 (Hartree/Particle)
 Thermal correction to Energy=                    0.309632
 Thermal correction to Enthalpy=                  0.310576
 Thermal correction to Gibbs Free Energy=         0.262748
 Sum of electronic and zero-point Energies=           -506.210481
 Sum of electronic and thermal Energies=              -506.199343
 Sum of electronic and thermal Enthalpies=            -506.198399
 Sum of electronic and thermal Free Energies=         -506.246227

                     E (Thermal)             CV                S
                      KCal/Mol        Cal/Mol-Kelvin    Cal/Mol-Kelvin
 Total                  194.297             46.598            100.662
 Electronic               0.000              0.000              0.000
 Translational            0.889              2.981             41.267
 Rotational               0.889              2.981             30.523
 Vibrational            192.519             40.637             28.872
 Vibration     1          0.604              1.948              3.420
 Vibration     2          0.607              1.938              3.204
 Vibration     3          0.615              1.914              2.817
 Vibration     4          0.645              1.817              1.994
 Vibration     5          0.660              1.771              1.764
 Vibration     6          0.667              1.750              1.679
 Vibration     7          0.681              1.707              1.522
 Vibration     8          0.693              1.672              1.412
 Vibration     9          0.721              1.592              1.204
 Vibration    10          0.750              1.512              1.039
 Vibration    11          0.765              1.472              0.966
 Vibration    12          0.788              1.414              0.872
 Vibration    13          0.801              1.382              0.825
 Vibration    14          0.822              1.330              0.754
 Vibration    15          0.845              1.274              0.686
 Vibration    16          0.881              1.192              0.595
 Vibration    17          0.918              1.113              0.519

                           ! Non-Optimized Parameters !
 Normal termination of Gaussian 16 at Wed Dec  9 17:37:06 2020.

 ----------------------------------------------------------------------
 # B3LYP/6-311++G(d,p) empiricaldispersion=gd3bj scf=xqc pop=npa geom=c
 heck
 ----------------------------------------------------------------------

 ---------------------------------------
 CID_141329330_JID_2499_Energie_neutraal
 ---------------------------------------
 Structure from the checkpoint file:  "JID_2499.chk"
 Charge =  0 Multiplicity = 1

 SCF Done:  E(RB3LYP) =  -506.646384145     A.U. after   13 cycles
 Normal termination of Gaussian 16 at Wed Dec  9 17:40:26 2020.

 ----------------------------------------------------------------------
 # B3LYP/6-311++G(d,p) empiricaldispersion=gd3bj scf=xqc pop=npa geom=c
 heck
 ----------------------------------------------------------------------

 -------------------------------------
 CID_141329330_JID_2499_Energie_kation
 -------------------------------------
 Structure from the checkpoint file:  "JID_2499.chk"
 Charge =  1 Multiplicity = 2

 SCF Done:  E(UB3LYP) =  -506.327583023     A.U. after   22 cycles
 Normal termination of Gaussian 16 at Wed Dec  9 17:48:35 2020.
 Gaussian 16:  ES64L-G16RevA.03 25-Dec-2016

 ----------------------------------------------------------------------
 # B3LYP/6-311++G(d,p) empiricaldispersion=gd3bj scf=xqc pop=npa geom=c
 heck
 ----------------------------------------------------------------------

 ------------------------------------
 CID_141329330_JID_2499_Energie_anion
 ------------------------------------
 Structure from the checkpoint file:  "JID_2499.chk"
 Charge = -1 Multiplicity = 2

                         Standard orientation:
 ---------------------------------------------------------------------
 Center     Atomic      Atomic             Coordinates (Angstroms)
 Number     Number       Type             X           Y           Z
 ---------------------------------------------------------------------
      1          6           0       -2.503866    1.664299   -0.110442
      2          6           0       -2.212570    0.285785   -0.717500
      3          6           0       -2.602883   -0.872981    0.210080
      4          6           0       -1.546302   -1.094803    1.294786
      5          6           0       -0.183917   -1.320144    0.632425
      6          6           0        0.211235   -0.161889   -0.303024
      7          8           0       -0.872130    0.151170   -1.202473
      8          6           0        0.663787    1.094393    0.477094
      9          6           0        2.031956    0.931792    1.158797
     10          6           0        3.115648    0.489741    0.169650
     11          6           0        2.690635   -0.782533   -0.572497
     12          6           0        1.336546   -0.585262   -1.263117
     13          1           0       -2.066576    2.447371   -0.736937
     14          1           0       -2.109015    1.775603    0.903131
     15          1           0       -3.587698    1.824014   -0.063419
     16          1           0       -2.807824    0.209782   -1.635339
     17          1           0       -3.589499   -0.676537    0.647367
     18          1           0       -2.688970   -1.789169   -0.388349
     19          1           0       -1.505044   -0.232850    1.972885
     20          1           0       -1.811429   -1.960694    1.912753
     21          1           0       -0.231411   -2.241328    0.036236
     22          1           0        0.592040   -1.473336    1.389467
     23          1           0        0.708810    1.919996   -0.244217
     24          1           0       -0.081110    1.373503    1.227765
     25          1           0        1.958678    0.193382    1.969175
     26          1           0        2.313195    1.879212    1.635112
     27          1           0        4.067964    0.332809    0.691241
     28          1           0        3.283903    1.292419   -0.562897
     29          1           0        2.634163   -1.619499    0.137179
     30          1           0        3.445713   -1.060939   -1.317745
     31          1           0        1.023349   -1.495171   -1.787904
     32          1           0        1.426182    0.201688   -2.023223
 ---------------------------------------------------------------------

 SCF Done:  E(UB3LYP) =  -506.629242703     A.U. after   27 cycles

 The electronic state is 2-A.
 Alpha  occ. eigenvalues --  -19.00752 -10.11854 -10.11346 -10.06213 -10.06110
 Alpha  occ. eigenvalues --  -10.06087 -10.06083 -10.05877 -10.05831 -10.05649
 Alpha  occ. eigenvalues --  -10.05630 -10.05209  -0.91995  -0.73086  -0.69516
 Alpha  occ. eigenvalues --   -0.67095  -0.63962  -0.61293  -0.57171  -0.52020
 Alpha  occ. eigenvalues --   -0.51487  -0.50182  -0.45609  -0.41455  -0.39214
 Alpha  occ. eigenvalues --   -0.37302  -0.35592  -0.35110  -0.34115  -0.33458
 Alpha  occ. eigenvalues --   -0.32675  -0.30558  -0.29332  -0.28856  -0.28555
 Alpha  occ. eigenvalues --   -0.27412  -0.26244  -0.25850  -0.24753  -0.23407
 Alpha  occ. eigenvalues --   -0.22948  -0.22471  -0.21960  -0.20958  -0.19936
 Alpha  occ. eigenvalues --   -0.17579  -0.14577   0.04665
 Alpha virt. eigenvalues --    0.06509   0.07411   0.07674   0.08895   0.09049
 Alpha virt. eigenvalues --    0.09257   0.10167   0.10451   0.11220   0.11768
 Alpha virt. eigenvalues --    0.11863   0.12247   0.12555   0.13824   0.14412

  Beta  occ. eigenvalues --  -19.00752 -10.11855 -10.11339 -10.06198 -10.06089
  Beta  occ. eigenvalues --  -10.06067 -10.06059 -10.05856 -10.05814 -10.05643
  Beta  occ. eigenvalues --  -10.05617 -10.05178  -0.91990  -0.73062  -0.69480
  Beta  occ. eigenvalues --   -0.67065  -0.63931  -0.61253  -0.57123  -0.51968
  Beta  occ. eigenvalues --   -0.51446  -0.50135  -0.45552  -0.41410  -0.39168
  Beta  occ. eigenvalues --   -0.37265  -0.35555  -0.35082  -0.34085  -0.33426
  Beta  occ. eigenvalues --   -0.32642  -0.30529  -0.29296  -0.28830  -0.28520
  Beta  occ. eigenvalues --   -0.27379  -0.26208  -0.25820  -0.24720  -0.23380
  Beta  occ. eigenvalues --   -0.22913  -0.22436  -0.21925  -0.20930  -0.19906
  Beta  occ. eigenvalues --   -0.17557  -0.14565
  Beta virt. eigenvalues --    0.06806   0.07517   0.08082   0.08233   0.09525
  Beta virt. eigenvalues --    0.09544   0.09810   0.10550   0.10739   0.11789
  Beta virt. eigenvalues --    0.12182   0.12379   0.12579   0.12907   0.13989

 Mulliken charges and spin densities:
               1          2
     1  C    1.057066  -1.692308
     2  C   -0.991712   1.415402
     3  C    0.420409  -0.914937
     4  C    0.790392  -1.180151
     5  C   -0.214387  -0.034276
     6  C   -0.872424   0.476539
     7  O   -0.041245   0.014694
     8  C    0.025056  -0.182801
     9  C    0.534181  -0.914165
    10  C   -0.138389  -0.386789
    11  C    0.149651  -0.315636
    12  C    0.495857  -0.608151
    13  H    0.089842   0.056845
    14  H   -0.227597   0.378669
    15  H   -0.485526   0.633006
    16  H   -0.223777   0.426954
    17  H   -0.387713   0.550381
    18  H    0.002868   0.138804
    19  H    0.034258   0.106467
    20  H   -0.546014   0.729917
    21  H   -0.045769   0.215629
    22  H    0.204715  -0.063052
    23  H    0.000157   0.174753
    24  H    0.344902  -0.236622
    25  H   -0.132528   0.275554
    26  H   -0.277164   0.449352
    27  H   -0.354107   0.520877
    28  H    0.075614   0.037573
    29  H   -0.242082   0.382374
    30  H   -0.133667   0.313271
    31  H    0.114421   0.039845
    32  H   -0.025289   0.191980
 Sum of Mulliken charges =  -1.00000   1.00000

 Dipole moment (field-independent basis, Debye):
    X=              1.5432    Y=              0.2153    Z=             -2.1701  Tot=              2.6715
 Quadrupole moment (field-independent basis, Debye-Ang):
   XX=           -151.6543   YY=           -116.2291   ZZ=           -113.8073
   XY=              1.2250   XZ=             -0.6096   YZ=              1.3382

 Summary of Natural Population Analysis:

                                       Natural Population
                Natural  -----------------------------------------------
    Atom  No    Charge         Core      Valence    Rydberg      Total
 -----------------------------------------------------------------------
      C    1   -0.29833      0.99964     2.29317    0.00552     3.29833
      C    2    0.06986      0.99954     1.91557    0.01503     2.93014
      C    3   -0.19999      0.99961     2.19178    0.00860     3.19999
      C    4   -0.19191      0.99962     2.18304    0.00925     3.19191
      C    5   -0.20476      0.99957     2.19478    0.01041     3.20476
      C    6    0.14658      0.99947     1.83743    0.01651     2.85342
      O    7   -0.31844      0.99987     3.30788    0.01069     4.31844
      C    8   -0.20508      0.99957     2.19500    0.01051     3.20508
      C    9   -0.18943      0.99963     2.18131    0.00850     3.18943
      C   10   -0.18821      0.99963     2.18055    0.00802     3.18821
      C   11   -0.19116      0.99962     2.18323    0.00831     3.19116
      C   12   -0.19246      0.99957     2.18168    0.01121     3.19246
      H   13    0.10221      0.00000     0.39675    0.00104     0.39779
      H   14    0.09640      0.00000     0.40223    0.00137     0.40360
      H   15    0.10069      0.00000     0.39792    0.00139     0.39931
      H   16    0.08794      0.00000     0.41075    0.00131     0.41206
      H   17    0.10277      0.00000     0.39567    0.00156     0.39723
      H   18    0.09706      0.00000     0.40155    0.00139     0.40294
      H   19    0.09495      0.00000     0.40341    0.00165     0.40505
      H   20    0.10155      0.00000     0.39705    0.00140     0.39845
      H   21    0.09791      0.00000     0.40067    0.00142     0.40209
      H   22    0.10385      0.00000     0.39473    0.00142     0.39615
      H   23    0.10032      0.00000     0.39831    0.00138     0.39968
      H   24    0.10106      0.00000     0.39740    0.00154     0.39894
      H   25    0.09383      0.00000     0.40463    0.00154     0.40617
      H   26    0.09951      0.00000     0.39941    0.00108     0.40049
      H   27    0.09921      0.00000     0.39945    0.00134     0.40079
      H   28    0.09070      0.00000     0.40804    0.00126     0.40930
      H   29    0.09448      0.00000     0.40412    0.00140     0.40552
      H   30    0.09797      0.00000     0.40109    0.00094     0.40203
      H   31    0.10126      0.00000     0.39760    0.00114     0.39874
      H   32    0.09966      0.00000     0.39889    0.00145     0.40034
 =======================================================================
   * Total *    0.00000     11.99533    34.85508    0.14959    47.00000

 Normal termination of Gaussian 16 at Wed Dec  9 17:58:21 2020.
