 Gaussian 16, Revision A.03,

 -----------------------------------------------------------
 # opt freq B3LYP/6-31G(d) empiricaldispersion=gd3bj scf=xqc
 -----------------------------------------------------------

 -------------------------------
 CID_123958565_JID_1840_neutraal
 -------------------------------
 Symbolic Z-matrix:
 Charge =  0 Multiplicity = 1

 SCF Done:  E(RB3LYP) =  -475.721916827     A.U. after   15 cycles
 SCF Done:  E(RB3LYP) =  -475.726442032     A.U. after   13 cycles
 SCF Done:  E(RB3LYP) =  -475.727548229     A.U. after   13 cycles
 SCF Done:  E(RB3LYP) =  -475.728610748     A.U. after   12 cycles
 SCF Done:  E(RB3LYP) =  -475.729154266     A.U. after   12 cycles
 SCF Done:  E(RB3LYP) =  -475.729254905     A.U. after   12 cycles
 SCF Done:  E(RB3LYP) =  -475.729306703     A.U. after   10 cycles
 SCF Done:  E(RB3LYP) =  -475.729317050     A.U. after    9 cycles
 SCF Done:  E(RB3LYP) =  -475.729322785     A.U. after   10 cycles
 SCF Done:  E(RB3LYP) =  -475.729326844     A.U. after    9 cycles
 SCF Done:  E(RB3LYP) =  -475.729399940     A.U. after    8 cycles
 SCF Done:  E(RB3LYP) =  -475.729400136     A.U. after    7 cycles
 SCF Done:  E(RB3LYP) =  -475.729400257     A.U. after    7 cycles
 SCF Done:  E(RB3LYP) =  -475.729400296     A.U. after    7 cycles
 SCF Done:  E(RB3LYP) =  -475.729400307     A.U. after    7 cycles
 Optimization completed.
    -- Stationary point found.

 1\1\GINC-NODE201\FOpt\RB3LYP\6-31G(d)\C8H11N3\VSC10255\08-Dec-2020\0\\
 # opt freq B3LYP/6-31G(d) empiricaldispersion=gd3bj scf=xqc\\CID_12395
 8565_JID_1840_neutraal\\0,1\C,0.6502610219,0.0013040408,-0.5341211523\
 C,0.5624838304,-1.3647786669,0.1055958605\N,0.1048646703,-1.6211136347
 ,1.2903687714\C,-0.3812943796,-0.6767893776,2.1678588073\C,-0.85782841
 49,-1.0171507758,3.4246679997\N,-1.2553086724,0.1576122909,4.015994486
 3\C,-1.0082858634,1.1551925781,3.1071018916\N,-0.4872583851,0.70132260
 24,1.9917777536\C,-1.8247977095,0.3137281182,5.3408156691\C,1.02048275

 Normal termination of Gaussian 16 at Tue Dec  8 21:23:33 2020.

 --------------------------------------------------------------------
 #N Geom=AllCheck Guess=TCheck SCRF=Check GenChk RB3LYP/6-31G(d) Freq
 --------------------------------------------------------------------

 Structure from the checkpoint file:  "JID_1840.chk"
 -------------------------------
 CID_123958565_JID_1840_neutraal
 -------------------------------
 Charge =  0 Multiplicity = 1

 SCF Done:  E(RB3LYP) =  -475.729400307     A.U. after    1 cycles

  Exact polarizability: 214.903   5.669  95.232  -0.002  -0.002  48.718
 Approx polarizability: 316.384  24.653 153.739  -0.006  -0.003  73.738

                      1                      2                      3
                      A                      A                      A
 Frequencies --     17.4549                60.1503                79.4594
 Red. masses --      2.4651                 3.3044                 1.1299
 Frc consts  --      0.0004                 0.0070                 0.0042
 IR Inten    --      2.1072                 4.1929                 0.3968

                      4                      5                      6
                      A                      A                      A
 Frequencies --    125.4127               133.1987               148.2007
 Red. masses --      1.3437                 3.9483                 1.9863
 Frc consts  --      0.0125                 0.0413                 0.0257
 IR Inten    --      0.0517                 3.2680                 1.5067

                      7                      8                      9
                      A                      A                      A
 Frequencies --    220.8776               281.9848               317.7420
 Red. masses --      2.9231                 3.3853                 3.8381
 Frc consts  --      0.0840                 0.1586                 0.2283
 IR Inten    --      0.3271                 2.1847                 3.6165

                     10                     11                     12
                      A                      A                      A
 Frequencies --    371.7381               393.3050               416.8016
 Red. masses --      2.8243                 3.2184                 3.2613
 Frc consts  --      0.2299                 0.2933                 0.3338
 IR Inten    --      0.8860                 0.6906                 3.4378

                     13                     14                     15
                      A                      A                      A
 Frequencies --    512.5794               587.1198               632.5735
 Red. masses --      3.3004                 2.7250                 3.1558
 Frc consts  --      0.5109                 0.5534                 0.7440
 IR Inten    --      0.0099                 0.0028                10.9486

                     16                     17                     18
                      A                      A                      A
 Frequencies --    690.6883               700.3925               709.9956
 Red. masses --      4.4544                 1.5911                 1.6103
 Frc consts  --      1.2520                 0.4599                 0.4783
 IR Inten    --      3.8760                 0.3026                 8.2326

                     19                     20                     21
                      A                      A                      A
 Frequencies --    755.5541               782.8708               807.1334
 Red. masses --      3.5620                 5.9023                 1.4424
 Frc consts  --      1.1980                 2.1313                 0.5536
 IR Inten    --      2.3355                11.7499                26.2485

                     22                     23                     24
                      A                      A                      A
 Frequencies --    818.1585               930.7724               989.5521
 Red. masses --      4.0412                 1.3561                 2.3906
 Frc consts  --      1.5938                 0.6922                 1.3792
 IR Inten    --     10.4881                37.4852                11.0580

                     25                     26                     27
                      A                      A                      A
 Frequencies --   1011.7806              1048.6507              1058.3573
 Red. masses --      1.9869                 1.2401                 1.4456
 Frc consts  --      1.1984                 0.8035                 0.9540
 IR Inten    --      7.7055                14.0236                 0.1137

                     28                     29                     30
                      A                      A                      A
 Frequencies --   1068.3783              1087.6931              1089.0318
 Red. masses --      4.1205                 1.5387                 1.4572
 Frc consts  --      2.7711                 1.0726                 1.0182
 IR Inten    --     12.3717                 9.6043                 1.7583

                     31                     32                     33
                      A                      A                      A
 Frequencies --   1159.8781              1194.1467              1253.8432
 Red. masses --      1.3041                 1.8359                 1.6337
 Frc consts  --      1.0337                 1.5424                 1.5133
 IR Inten    --      0.0293                24.7266                 9.8805

                     34                     35                     36
                      A                      A                      A
 Frequencies --   1291.7317              1320.8185              1327.2825
 Red. masses --      2.7687                 3.1762                 1.6110
 Frc consts  --      2.7219                 3.2647                 1.6722
 IR Inten    --     18.3719                26.6581                 7.7724

                     37                     38                     39
                      A                      A                      A
 Frequencies --   1397.8499              1428.2417              1433.0626
 Red. masses --      4.1285                 1.3373                 4.2262
 Frc consts  --      4.7530                 1.6073                 5.1136
 IR Inten    --     18.6488                11.1896                57.8485

                     40                     41                     42
                      A                      A                      A
 Frequencies --   1472.5659              1479.8939              1503.9937
 Red. masses --      1.3075                 1.3512                 1.0443
 Frc consts  --      1.6705                 1.7436                 1.3918
 IR Inten    --     13.3859                14.4788                 6.2632

                     43                     44                     45
                      A                      A                      A
 Frequencies --   1506.6747              1511.0383              1540.8459
 Red. masses --      1.1272                 1.0414                 1.2844
 Frc consts  --      1.5076                 1.4009                 1.7967
 IR Inten    --     16.9901                 7.1700                10.8266

                     46                     47                     48
                      A                      A                      A
 Frequencies --   1552.5671              1580.9693              1661.6167
 Red. masses --      2.6956                 3.7748                10.0124
 Frc consts  --      3.8283                 5.5590                16.2873
 IR Inten    --     45.8446                17.1454                28.9903

                     49                     50                     51
                      A                      A                      A
 Frequencies --   1703.9891              3062.2378              3079.0742
 Red. masses --      4.1185                 1.0332                 1.0359
 Frc consts  --      7.0456                 5.7085                 5.7865
 IR Inten    --     10.5341                75.1963                 9.2688

                     52                     53                     54
                      A                      A                      A
 Frequencies --   3125.0953              3137.8658              3156.3980
 Red. masses --      1.1063                 1.0990                 1.1032
 Frc consts  --      6.3655                 6.3758                 6.4759
 IR Inten    --     18.5170                 5.4016                 9.7511

                     55                     56                     57
                      A                      A                      A
 Frequencies --   3161.4196              3174.6503              3185.9990
 Red. masses --      1.1003                 1.0633                 1.0893
 Frc consts  --      6.4791                 6.3140                 6.5148
 IR Inten    --     16.3116                12.9156                10.0700

                     58                     59                     60
                      A                      A                      A
 Frequencies --   3249.9965              3252.6544              3296.9649
 Red. masses --      1.0961                 1.1149                 1.0984
 Frc consts  --      6.8211                 6.9498                 7.0347
 IR Inten    --      5.7960                17.6628                 0.8834

 - Thermochemistry -
 -------------------
 Temperature   298.150 Kelvin.  Pressure   1.00000 Atm.
 Atom     1 has atomic number  6 and mass  12.00000

 Molecular mass:   149.09530 amu.
 Principal axes and moments of inertia in atomic units:
                           1         2         3
     Eigenvalues --   440.854233544.110103962.60059
           X            0.99995   0.00974   0.00000
           Y           -0.00974   0.99995  -0.00000
           Z           -0.00000   0.00000   1.00000
 This molecule is an asymmetric top.
 Rotational symmetry number  1.
 Warning -- assumption of classical behavior for rotation
           may cause significant error
 Rotational temperatures (Kelvin)      0.19647     0.02444     0.02186
 Rotational constants (GHZ):           4.09374     0.50922     0.45544
 Zero-point vibrational energy     478811.2 (Joules/Mol)
                                  114.43861 (Kcal/Mol)
 Warning -- explicit consideration of  14 degrees of freedom as
           vibrations may cause significant error
 Vibrational temperatures:     25.11    86.54   114.32   180.44   191.64
          (Kelvin)            213.23   317.79   405.71   457.16   534.85
                              565.88   599.68   737.49   844.73   910.13
                              993.75  1007.71  1021.53  1087.07  1126.38
                             1161.28  1177.15  1339.17  1423.74  1455.73
                             1508.77  1522.74  1537.16  1564.95  1566.87
                             1668.81  1718.11  1804.00  1858.51  1900.36
                             1909.66  2011.19  2054.92  2061.86  2118.69
                             2129.24  2163.91  2167.77  2174.05  2216.93
                             2233.80  2274.66  2390.70  2451.66  4405.88
                             4430.10  4496.32  4514.69  4541.35  4548.58
                             4567.61  4583.94  4676.02  4679.84  4743.60

 Zero-point correction=                           0.182370 (Hartree/Particle)
 Thermal correction to Energy=                    0.193614
 Thermal correction to Enthalpy=                  0.194558
 Thermal correction to Gibbs Free Energy=         0.143703
 Sum of electronic and zero-point Energies=           -475.547031
 Sum of electronic and thermal Energies=              -475.535786
 Sum of electronic and thermal Enthalpies=            -475.534842
 Sum of electronic and thermal Free Energies=         -475.585697

                     E (Thermal)             CV                S
                      KCal/Mol        Cal/Mol-Kelvin    Cal/Mol-Kelvin
 Total                  121.495             40.364            107.033
 Electronic               0.000              0.000              0.000
 Translational            0.889              2.981             40.909
 Rotational               0.889              2.981             30.205
 Vibrational            119.717             34.403             35.919
 Vibration     1          0.593              1.986              6.904
 Vibration     2          0.597              1.973              4.452
 Vibration     3          0.600              1.963              3.904
 Vibration     4          0.610              1.928              3.015
 Vibration     5          0.613              1.920              2.899
 Vibration     6          0.618              1.905              2.695
 Vibration     7          0.648              1.809              1.952
 Vibration     8          0.681              1.707              1.522
 Vibration     9          0.704              1.640              1.322
 Vibration    10          0.743              1.530              1.073
 Vibration    11          0.761              1.484              0.988
 Vibration    12          0.780              1.434              0.903
 Vibration    13          0.868              1.222              0.627
 Vibration    14          0.944              1.059              0.472

 Optimization completed.
    -- Stationary point found.

 1\1\GINC-NODE201\Freq\RB3LYP\6-31G(d)\C8H11N3\VSC10255\08-Dec-2020\0\\
 #N Geom=AllCheck Guess=TCheck SCRF=Check GenChk RB3LYP/6-31G(d) Freq\\
 CID_123958565_JID_1840_neutraal\\0,1\C,0.6502610219,0.0013040408,-0.53
 41211523\C,0.5624838304,-1.3647786669,0.1055958605\N,0.1048646703,-1.6
 211136347,1.2903687714\C,-0.3812943796,-0.6767893776,2.1678588073\C,-0
 .8578284149,-1.0171507758,3.4246679997\N,-1.2553086724,0.1576122909,4.
 0159944863\C,-1.0082858634,1.1551925781,3.1071018916\N,-0.4872583851,0
 .7013226024,1.9917777536\C,-1.8247977095,0.3137281182,5.3408156691\C,1

 Normal termination of Gaussian 16 at Tue Dec  8 21:27:19 2020.

 ----------------------------------------------------------------------
 # B3LYP/6-311++G(d,p) empiricaldispersion=gd3bj scf=xqc pop=npa geom=c
 heck
 ----------------------------------------------------------------------

 ---------------------------------------
 CID_123958565_JID_1840_Energie_neutraal
 ---------------------------------------
 Structure from the checkpoint file:  "JID_1840.chk"
 Charge =  0 Multiplicity = 1

 SCF Done:  E(RB3LYP) =  -475.858236117     A.U. after   14 cycles
 Normal termination of Gaussian 16 at Tue Dec  8 21:29:38 2020.

 ----------------------------------------------------------------------
 # B3LYP/6-311++G(d,p) empiricaldispersion=gd3bj scf=xqc pop=npa geom=c
 heck
 ----------------------------------------------------------------------

 -------------------------------------
 CID_123958565_JID_1840_Energie_kation
 -------------------------------------
 Structure from the checkpoint file:  "JID_1840.chk"
 Charge =  1 Multiplicity = 2

 SCF Done:  E(UB3LYP) =  -475.583110519     A.U. after   20 cycles
 Normal termination of Gaussian 16 at Tue Dec  8 21:35:16 2020.
 Gaussian 16:  ES64L-G16RevA.03 25-Dec-2016

 ------------------------------------
 CID_123958565_JID_1840_Energie_anion
 ------------------------------------
 Structure from the checkpoint file:  "JID_1840.chk"
 Charge = -1 Multiplicity = 2

                         Standard orientation:
 ---------------------------------------------------------------------
 Center     Atomic      Atomic             Coordinates (Angstroms)
 Number     Number       Type             X           Y           Z
 ---------------------------------------------------------------------
      1          6           0        1.978112    1.470601    0.000027
      2          6           0        1.891960   -0.037942    0.000015
      3          7           0        0.800906   -0.736806    0.000042
      4          6           0       -0.471848   -0.209372    0.000042
      5          6           0       -1.601190   -1.013789    0.000094
      6          7           0       -2.679452   -0.162275    0.000107
      7          6           0       -2.170627    1.111841    0.000010
      8          7           0       -0.858714    1.129194   -0.000011
      9          6           0       -4.080992   -0.535805   -0.000149
     10          6           0        3.118966   -0.846592   -0.000009
     11          6           0        4.386370   -0.410125   -0.000094
     12          1           0        1.460229    1.881454    0.871153
     13          1           0        1.460527    1.881453   -0.871277
     14          1           0        3.011461    1.821441    0.000200
     15          1           0       -1.705885   -2.087563    0.000201
     16          1           0       -2.819511    1.978596   -0.000002
     17          1           0       -4.324876   -1.122557   -0.891483
     18          1           0       -4.325245   -1.122453    0.891155
     19          1           0       -4.687307    0.372674   -0.000324
     20          1           0        2.919944   -1.916074    0.000047
     21          1           0        5.214200   -1.112887   -0.000106
     22          1           0        4.652783    0.642218   -0.000140
 ---------------------------------------------------------------------

 SCF Done:  E(UB3LYP) =  -475.855288760     A.U. after   33 cycles
 SCF Done:  E(UB3LYP) =  -475.855288761     a.u. after    2 cycles

 The electronic state is 2-A.
 Alpha  occ. eigenvalues --  -14.25311 -14.16867 -14.14932 -10.10623 -10.10463
 Alpha  occ. eigenvalues --  -10.08251 -10.06476 -10.06376 -10.03255 -10.03192
 Alpha  occ. eigenvalues --  -10.02580  -0.90025  -0.79302  -0.75330  -0.65230
 Alpha  occ. eigenvalues --   -0.62821  -0.59519  -0.58084  -0.51279  -0.46349
 Alpha  occ. eigenvalues --   -0.45001  -0.41433  -0.37537  -0.36170  -0.35154
 Alpha  occ. eigenvalues --   -0.33320  -0.31670  -0.30329  -0.30014  -0.29725
 Alpha  occ. eigenvalues --   -0.27834  -0.27510  -0.25617  -0.21924  -0.20981
 Alpha  occ. eigenvalues --   -0.16193  -0.15359  -0.14344  -0.11491  -0.08364
 Alpha  occ. eigenvalues --    0.04427
 Alpha virt. eigenvalues --    0.05966   0.08581   0.08865   0.09734   0.10136
 Alpha virt. eigenvalues --    0.10703   0.12173   0.12481   0.13114   0.13788
 Alpha virt. eigenvalues --    0.14304   0.14497   0.15163   0.15256   0.17232

  Beta  occ. eigenvalues --  -14.25285 -14.16813 -14.14707 -10.10569 -10.10484
  Beta  occ. eigenvalues --  -10.08270 -10.06267 -10.06239 -10.03229 -10.03209
  Beta  occ. eigenvalues --  -10.02321  -0.89953  -0.78993  -0.75090  -0.64884
  Beta  occ. eigenvalues --   -0.62608  -0.59342  -0.57977  -0.50922  -0.46211
  Beta  occ. eigenvalues --   -0.44777  -0.41249  -0.37327  -0.36030  -0.34994
  Beta  occ. eigenvalues --   -0.33238  -0.31582  -0.30206  -0.29673  -0.29617
  Beta  occ. eigenvalues --   -0.27641  -0.27361  -0.25522  -0.21777  -0.20124
  Beta  occ. eigenvalues --   -0.15564  -0.15279  -0.13557  -0.11231  -0.07350
  Beta virt. eigenvalues --    0.07209   0.08750   0.08821   0.09243   0.10248
  Beta virt. eigenvalues --    0.10289   0.10792   0.12401   0.12633   0.13331
  Beta virt. eigenvalues --    0.13872   0.14248   0.14667   0.15243   0.15643

 Mulliken charges and spin densities:
               1          2
     1  C   -0.945073  -0.015615
     2  C    0.300280   0.150246
     3  N   -0.030370   0.093058
     4  C   -0.827903   0.059513
     5  C    0.158892  -0.015317
     6  N   -0.273324   0.240543
     7  C    0.127791  -0.059186
     8  N   -0.188482   0.037644
     9  C    1.400763  -1.720708
    10  C    0.503011  -0.031607
    11  C   -0.753350   0.282412
    12  H    0.156764   0.019612
    13  H    0.173337   0.003277
    14  H    0.068849   0.002978
    15  H    0.090784   0.033747
    16  H   -0.014505   0.170064
    17  H   -0.605963   0.789386
    18  H   -0.088537   0.246702
    19  H   -0.605085   0.739895
    20  H    0.158460  -0.002676
    21  H    0.103256  -0.011782
    22  H    0.090404  -0.012184
 Sum of Mulliken charges =  -1.00000   1.00000

 Dipole moment (field-independent basis, Debye):
    X=              2.6603    Y=              1.2308    Z=              1.1174  Tot=              3.1370
 Quadrupole moment (field-independent basis, Debye-Ang):
   XX=           -146.2116   YY=            -83.7189   ZZ=            -83.2673
   XY=              0.0387   XZ=             -5.7877   YZ=             -2.9315

 Summary of Natural Population Analysis:

                                       Natural Population
                Natural  -----------------------------------------------
    Atom  No    Charge         Core      Valence    Rydberg      Total
 -----------------------------------------------------------------------
      C    1   -0.31997      0.99964     2.31540    0.00493     3.31997
      C    2    0.15891      0.99957     1.82927    0.01226     2.84109
      N    3   -0.22469      0.99963     2.71396    0.01110     3.72469
      C    4    0.12632      0.99953     1.85744    0.01671     2.87368
      C    5   -0.00491      0.99952     1.99217    0.01322     3.00491
      N    6   -0.20377      0.99966     2.69466    0.00945     3.70377
      C    7    0.09448      0.99964     1.88718    0.01870     2.90552
      N    8   -0.26477      0.99970     2.75549    0.00958     3.76477
      C    9   -0.17058      0.99964     2.16346    0.00748     3.17058
      C   10   -0.10465      0.99955     2.09467    0.01043     3.10465
      C   11   -0.14909      0.99959     2.14174    0.00775     3.14909
      H   12    0.11225      0.00000     0.38686    0.00089     0.38775
      H   13    0.11220      0.00000     0.38691    0.00089     0.38780
      H   14    0.09290      0.00000     0.40607    0.00104     0.40710
      H   15    0.09991      0.00000     0.39869    0.00140     0.40009
      H   16    0.08775      0.00000     0.41085    0.00140     0.41225
      H   17    0.10219      0.00000     0.39409    0.00372     0.39781
      H   18    0.09463      0.00000     0.40428    0.00109     0.40537
      H   19    0.10183      0.00000     0.39585    0.00231     0.39817
      H   20    0.09556      0.00000     0.40327    0.00117     0.40444
      H   21    0.08286      0.00000     0.41606    0.00109     0.41714
      H   22    0.08064      0.00000     0.41823    0.00113     0.41936
 =======================================================================
   * Total *    0.00000     10.99566    28.86659    0.13775    40.00000

 Normal termination of Gaussian 16 at Tue Dec  8 21:46:39 2020.
