 Gaussian 16, Revision A.03,

 -----------------------------------------------------------
 # opt freq B3LYP/6-31G(d) empiricaldispersion=gd3bj scf=xqc
 -----------------------------------------------------------

 ------------------------------
 CID_63580910_JID_6755_neutraal
 ------------------------------
 Symbolic Z-matrix:
 Charge =  0 Multiplicity = 1

 SCF Done:  E(RB3LYP) =  -1067.10979071     A.U. after   15 cycles
 SCF Done:  E(RB3LYP) =  -1067.11430555     A.U. after   13 cycles
 SCF Done:  E(RB3LYP) =  -1067.11394401     A.U. after   13 cycles
 SCF Done:  E(RB3LYP) =  -1067.11528396     A.U. after   12 cycles
 SCF Done:  E(RB3LYP) =  -1067.11549609     A.U. after   12 cycles
 SCF Done:  E(RB3LYP) =  -1067.11561055     A.U. after   11 cycles
 SCF Done:  E(RB3LYP) =  -1067.11566774     A.U. after   12 cycles
 SCF Done:  E(RB3LYP) =  -1067.11570912     A.U. after   11 cycles
 SCF Done:  E(RB3LYP) =  -1067.11577983     A.U. after   12 cycles
 SCF Done:  E(RB3LYP) =  -1067.11578667     A.U. after   11 cycles
 SCF Done:  E(RB3LYP) =  -1067.11621448     A.U. after   12 cycles
 SCF Done:  E(RB3LYP) =  -1067.11621553     A.U. after    9 cycles
 SCF Done:  E(RB3LYP) =  -1067.11621415     A.U. after    9 cycles
 SCF Done:  E(RB3LYP) =  -1067.11621435     A.U. after    9 cycles
 SCF Done:  E(RB3LYP) =  -1067.11621446     A.U. after    7 cycles
 Optimization completed.
    -- Stationary point found.
 Normal termination of Gaussian 16 at Thu Dec 10 23:49:43 2020.

 --------------------------------------------------------------------
 #N Geom=AllCheck Guess=TCheck SCRF=Check GenChk RB3LYP/6-31G(d) Freq
 --------------------------------------------------------------------

 Structure from the checkpoint file:  "JID_6755.chk"
 ------------------------------
 CID_63580910_JID_6755_neutraal
 ------------------------------
 Charge =  0 Multiplicity = 1

 SCF Done:  E(RB3LYP) =  -1067.11621446     A.U. after    1 cycles

  Exact polarizability: 213.474  28.930 117.537   8.273  -1.928 142.745
 Approx polarizability: 284.857  54.995 186.818  22.326   3.381 237.761

                      1                      2                      3
                      A                      A                      A
 Frequencies --     18.0153                26.6400                33.4809
 Red. masses --      5.6282                 3.9058                 5.8168
 Frc consts  --      0.0011                 0.0016                 0.0038
 IR Inten    --      0.9518                 0.2089                 0.1841

                      4                      5                      6
                      A                      A                      A
 Frequencies --     52.7797                93.9942                97.5008
 Red. masses --      4.1443                 3.3833                 3.3693
 Frc consts  --      0.0068                 0.0176                 0.0189
 IR Inten    --      1.0432                 5.2960                 2.2494

                      7                      8                      9
                      A                      A                      A
 Frequencies --    116.2019               134.5296               183.4777
 Red. masses --      4.5148                 1.1133                 3.6163
 Frc consts  --      0.0359                 0.0119                 0.0717
 IR Inten    --      2.3273                 0.8520                 0.5471

                     10                     11                     12
                      A                      A                      A
 Frequencies --    208.6402               216.1556               223.9028
 Red. masses --      4.3982                 2.9852                 1.1507
 Frc consts  --      0.1128                 0.0822                 0.0340
 IR Inten    --      0.9873                 4.0150                 0.7080

                     13                     14                     15
                      A                      A                      A
 Frequencies --    235.9624               255.4584               301.2118
 Red. masses --      2.9253                 5.2079                 2.7774
 Frc consts  --      0.0960                 0.2002                 0.1485
 IR Inten    --      0.7042                 0.5194                 1.8572

                     16                     17                     18
                      A                      A                      A
 Frequencies --    311.3198               318.4644               322.5538
 Red. masses --      1.6580                 1.2663                 1.5159
 Frc consts  --      0.0947                 0.0757                 0.0929
 IR Inten    --      0.8756                20.5121                 3.6308

                     19                     20                     21
                      A                      A                      A
 Frequencies --    348.3473               385.2210               404.2159
 Red. masses --      4.1207                 3.0358                 7.9192
 Frc consts  --      0.2946                 0.2654                 0.7624
 IR Inten    --      2.4239                 6.8178                 1.3593

                     22                     23                     24
                      A                      A                      A
 Frequencies --    458.3401               478.1401               530.7919
 Red. masses --      2.9571                 3.0804                 4.4638
 Frc consts  --      0.3660                 0.4149                 0.7410
 IR Inten    --      9.0920                 4.9212                12.9196

                     25                     26                     27
                      A                      A                      A
 Frequencies --    558.4517               567.8007               605.2254
 Red. masses --      3.8978                 1.9723                 1.5407
 Frc consts  --      0.7162                 0.3746                 0.3325
 IR Inten    --     52.9305               195.4937                50.7456

                     28                     29                     30
                      A                      A                      A
 Frequencies --    617.8603               637.8738               657.2648
 Red. masses --      2.0758                 2.5083                 4.6762
 Frc consts  --      0.4669                 0.6013                 1.1902
 IR Inten    --    200.3180                38.1421                13.2692

                     31                     32                     33
                      A                      A                      A
 Frequencies --    710.9367               724.5876               751.1274
 Red. masses --      6.2406                 3.7678                 5.1849
 Frc consts  --      1.8584                 1.1655                 1.7235
 IR Inten    --      8.2050                 3.8830                 1.6647

                     34                     35                     36
                      A                      A                      A
 Frequencies --    755.2857               812.8000               825.0830
 Red. masses --      3.8294                 2.9674                 1.5578
 Frc consts  --      1.2871                 1.1550                 0.6248
 IR Inten    --     11.4489                24.4496                16.0047

                     37                     38                     39
                      A                      A                      A
 Frequencies --    860.8083               874.4923               889.8362
 Red. masses --      1.4665                 1.6529                 1.4623
 Frc consts  --      0.6403                 0.7447                 0.6822
 IR Inten    --     16.8076                 6.9369               230.7541

                     40                     41                     42
                      A                      A                      A
 Frequencies --    937.8390               951.8642               972.5833
 Red. masses --      1.6317                 1.2940                 3.0688
 Frc consts  --      0.8456                 0.6907                 1.7103
 IR Inten    --     25.1118                 0.1193                 1.4893

                     43                     44                     45
                      A                      A                      A
 Frequencies --   1033.4918              1053.0307              1070.0267
 Red. masses --      1.5210                 1.9246                 4.1545
 Frc consts  --      0.9572                 1.2574                 2.8026
 IR Inten    --      5.5282                 9.4182                 0.9203

                     46                     47                     48
                      A                      A                      A
 Frequencies --   1071.5812              1080.4390              1127.1695
 Red. masses --      1.5129                 1.5700                 1.4866
 Frc consts  --      1.0235                 1.0798                 1.1128
 IR Inten    --      4.3458                 4.9196                 0.2464

                     49                     50                     51
                      A                      A                      A
 Frequencies --   1141.5868              1175.4621              1213.9313
 Red. masses --      2.1131                 1.4649                 1.7059
 Frc consts  --      1.6225                 1.1926                 1.4811
 IR Inten    --     13.3180                 7.5077                 2.3949

                     52                     53                     54
                      A                      A                      A
 Frequencies --   1217.0548              1246.3379              1274.2930
 Red. masses --      2.1684                 1.7808                 1.2166
 Frc consts  --      1.8924                 1.6298                 1.1639
 IR Inten    --      0.5288                 1.2831                 0.8049

                     55                     56                     57
                      A                      A                      A
 Frequencies --   1294.6315              1335.0346              1350.6133
 Red. masses --      1.5964                 1.1530                 3.6388
 Frc consts  --      1.5765                 1.2107                 3.9109
 IR Inten    --     42.1205                 1.3380                48.4914

                     58                     59                     60
                      A                      A                      A
 Frequencies --   1352.6433              1359.2484              1378.4137
 Red. masses --      1.6596                 3.1660                 1.4584
 Frc consts  --      1.7890                 3.4463                 1.6327
 IR Inten    --     37.4801                17.7096                27.4217

                     61                     62                     63
                      A                      A                      A
 Frequencies --   1399.0643              1435.2064              1445.7690
 Red. masses --      2.0230                 1.2571                 1.2395
 Frc consts  --      2.3330                 1.5257                 1.5265
 IR Inten    --     87.4463                13.6113                 0.7344

                     64                     65                     66
                      A                      A                      A
 Frequencies --   1466.9957              1479.7403              1506.1120
 Red. masses --      1.4926                 2.2275                 1.0617
 Frc consts  --      1.8926                 2.8737                 1.4190
 IR Inten    --     28.8597                 4.4173                 8.9063

                     67                     68                     69
                      A                      A                      A
 Frequencies --   1515.0130              1516.2482              1527.9971
 Red. masses --      1.5236                 1.1175                 1.0708
 Frc consts  --      2.0604                 1.5137                 1.4729
 IR Inten    --      6.9698                 2.1776                 9.1585

                     70                     71                     72
                      A                      A                      A
 Frequencies --   1533.3074              1540.3391              1623.6677
 Red. masses --      1.1970                 1.5250                 6.0527
 Frc consts  --      1.6580                 2.1318                 9.4015
 IR Inten    --     34.9820                30.7040                15.6300

                     73                     74                     75
                      A                      A                      A
 Frequencies --   1663.6050              1695.4545              1722.5665
 Red. masses --      3.9418                 1.2580                 1.0666
 Frc consts  --      6.4276                 2.1306                 1.8646
 IR Inten    --     86.1948               151.4325                29.7834

                     76                     77                     78
                      A                      A                      A
 Frequencies --   1781.2216              3052.3669              3053.3814
 Red. masses --      8.1857                 1.0398                 1.0386
 Frc consts  --     15.3018                 5.7079                 5.7049
 IR Inten    --    297.7224                 6.3413                36.0798

                     79                     80                     81
                      A                      A                      A
 Frequencies --   3070.5714              3080.7083              3108.7758
 Red. masses --      1.0596                 1.0818                 1.0972
 Frc consts  --      5.8859                 6.0494                 6.2476
 IR Inten    --     16.3608                 3.3359                20.9301

                     82                     83                     84
                      A                      A                      A
 Frequencies --   3120.0780              3128.0732              3133.7720
 Red. masses --      1.0980                 1.1052                 1.1031
 Frc consts  --      6.2977                 6.3716                 6.3827
 IR Inten    --     21.5037                22.3183                17.3633

                     85                     86                     87
                      A                      A                      A
 Frequencies --   3143.3492              3169.0053              3181.3964
 Red. masses --      1.1035                 1.0896                 1.0885
 Frc consts  --      6.4241                 6.4470                 6.4911
 IR Inten    --     17.3288                25.7503                18.1702

                     88                     89                     90
                      A                      A                      A
 Frequencies --   3208.9941              3481.3847              3557.0902
 Red. masses --      1.0935                 1.0452                 1.0477
 Frc consts  --      6.6344                 7.4634                 7.8104
 IR Inten    --      8.1842                 3.9127                22.6018

                     91                     92                     93
                      A                      A                      A
 Frequencies --   3574.0730              3593.6239              3656.8886
 Red. masses --      1.0984                 1.0770                 1.0986
 Frc consts  --      8.2666                 8.1945                 8.6563
 IR Inten    --      0.3497                24.5526                10.1593

 - Thermochemistry -
 -------------------
 Temperature   298.150 Kelvin.  Pressure   1.00000 Atm.
 Atom     1 has atomic number  6 and mass  12.00000

 Molecular mass:   239.10923 amu.
 Principal axes and moments of inertia in atomic units:
                           1         2         3
     Eigenvalues --  1921.147198709.361268839.67734
           X            0.99997   0.00342  -0.00690
           Y           -0.00533   0.95403  -0.29966
           Z            0.00556   0.29969   0.95402
 This molecule is an asymmetric top.
 Rotational symmetry number  1.
 Warning -- assumption of classical behavior for rotation
           may cause significant error
 Rotational temperatures (Kelvin)      0.04508     0.00994     0.00980
 Rotational constants (GHZ):           0.93941     0.20722     0.20416
 Zero-point vibrational energy     726180.5 (Joules/Mol)
                                  173.56130 (Kcal/Mol)
 Warning -- explicit consideration of  28 degrees of freedom as
           vibrations may cause significant error
 Vibrational temperatures:     25.92    38.33    48.17    75.94   135.24
          (Kelvin)            140.28   167.19   193.56   263.98   300.19
                              311.00   322.15   339.50   367.55   433.38
                              447.92   458.20   464.08   501.19   554.25
                              581.58   659.45   687.94   763.69   803.49
                              816.94   870.78   888.96   917.76   945.66
                             1022.88  1042.52  1080.70  1086.69  1169.44
                             1187.11  1238.51  1258.20  1280.28  1349.34
                             1369.52  1399.33  1486.96  1515.08  1539.53
                             1541.77  1554.51  1621.75  1642.49  1691.23
                             1746.58  1751.07  1793.20  1833.42  1862.69
                             1920.82  1943.23  1946.15  1955.66  1983.23
                             2012.94  2064.94  2080.14  2110.68  2129.02
                             2166.96  2179.77  2181.54  2198.45  2206.09
                             2216.20  2336.10  2393.56  2439.38  2478.39
                             2562.78  4391.68  4393.13  4417.87  4432.45
                             4472.84  4489.10  4500.60  4508.80  4522.58
                             4559.49  4577.32  4617.03  5008.94  5117.86
                             5142.29  5170.42  5261.45

 Zero-point correction=                           0.276588 (Hartree/Particle)
 Thermal correction to Energy=                    0.294441
 Thermal correction to Enthalpy=                  0.295385
 Thermal correction to Gibbs Free Energy=         0.228737
 Sum of electronic and zero-point Energies=          -1066.839627
 Sum of electronic and thermal Energies=             -1066.821773
 Sum of electronic and thermal Enthalpies=           -1066.820829
 Sum of electronic and thermal Free Energies=        -1066.887478

                     E (Thermal)             CV                S
                      KCal/Mol        Cal/Mol-Kelvin    Cal/Mol-Kelvin
 Total                  184.765             65.603            140.274
 Electronic               0.000              0.000              0.000
 Translational            0.889              2.981             42.317
 Rotational               0.889              2.981             33.358
 Vibrational            182.987             59.642             64.599
 Vibration     1          0.593              1.986              6.842
 Vibration     2          0.593              1.984              6.065
 Vibration     3          0.594              1.983              5.612
 Vibration     4          0.596              1.976              4.710
 Vibration     5          0.603              1.953              3.575
 Vibration     6          0.603              1.951              3.504
 Vibration     7          0.608              1.936              3.163
 Vibration     8          0.613              1.919              2.880
 Vibration     9          0.631              1.862              2.293
 Vibration    10          0.642              1.828              2.056
 Vibration    11          0.645              1.816              1.991
 Vibration    12          0.649              1.805              1.927
 Vibration    13          0.655              1.786              1.833
 Vibration    14          0.666              1.754              1.693
 Vibration    15          0.693              1.671              1.410
 Vibration    16          0.700              1.652              1.355
 Vibration    17          0.705              1.638              1.318
 Vibration    18          0.708              1.630              1.297
 Vibration    19          0.726              1.579              1.174
 Vibration    20          0.754              1.502              1.019
 Vibration    21          0.769              1.461              0.947
 Vibration    22          0.816              1.342              0.771
 Vibration    23          0.835              1.299              0.715
 Vibration    24          0.886              1.182              0.585
 Vibration    25          0.914              1.121              0.527
 Vibration    26          0.924              1.101              0.508
 Vibration    27          0.964              1.021              0.441
 Vibration    28          0.978              0.994              0.420

                           ! Non-Optimized Parameters !
 Normal termination of Gaussian 16 at Fri Dec 11 00:00:22 2020.

 ----------------------------------------------------------------------
 # B3LYP/6-311++G(d,p) empiricaldispersion=gd3bj scf=xqc pop=npa geom=c
 heck
 ----------------------------------------------------------------------

 --------------------------------------
 CID_63580910_JID_6755_Energie_neutraal
 --------------------------------------
 Structure from the checkpoint file:  "JID_6755.chk"
 Charge =  0 Multiplicity = 1

 SCF Done:  E(RB3LYP) =  -1067.34696646     A.U. after   16 cycles
 Normal termination of Gaussian 16 at Fri Dec 11 00:06:33 2020.

 ----------------------------------------------------------------------
 # B3LYP/6-311++G(d,p) empiricaldispersion=gd3bj scf=xqc pop=npa geom=c
 heck
 ----------------------------------------------------------------------

 ------------------------------------
 CID_63580910_JID_6755_Energie_kation
 ------------------------------------
 Structure from the checkpoint file:  "JID_6755.chk"
 Charge =  1 Multiplicity = 2

 SCF Done:  E(UB3LYP) =  -1067.06603176     A.U. after   26 cycles
 Normal termination of Gaussian 16 at Fri Dec 11 00:19:39 2020.
 Gaussian 16:  ES64L-G16RevA.03 25-Dec-2016

 ----------------------------------------------------------------------
 # B3LYP/6-311++G(d,p) empiricaldispersion=gd3bj scf=xqc pop=npa geom=c
 heck
 ----------------------------------------------------------------------

 -----------------------------------
 CID_63580910_JID_6755_Energie_anion
 -----------------------------------
 Structure from the checkpoint file:  "JID_6755.chk"
 Charge = -1 Multiplicity = 2

                         Standard orientation:
 ---------------------------------------------------------------------
 Center     Atomic      Atomic             Coordinates (Angstroms)
 Number     Number       Type             X           Y           Z
 ---------------------------------------------------------------------
      1          6           0        1.333839   -1.127960    1.997904
      2          6           0        2.053088   -0.535232    0.811853
      3          6           0        1.522009   -0.614581   -0.493854
      4          6           0        2.239812   -0.062514   -1.561265
      5          6           0        3.461644    0.568475   -1.363576
      6          6           0        3.997255    0.664471   -0.070180
      7          6           0        3.276895    0.106356    0.999079
      8          7           0        5.190683    1.344917    0.160388
      9         16           0       -0.036555   -1.428061   -0.820799
     10          6           0       -1.203135   -0.044545   -0.437278
     11          6           0       -2.614761   -0.602362   -0.195893
     12          6           0       -2.759343   -1.273140    1.180334
     13          6           0       -3.743998    0.405776   -0.449815
     14          8           0       -4.684353    0.124364   -1.180914
     15          7           0       -3.712510    1.634842    0.167004
     16          7           0       -2.820200    2.143351    1.121383
     17          1           0        1.925423   -1.012654    2.910928
     18          1           0        0.361892   -0.648278    2.163840
     19          1           0        1.130148   -2.192497    1.844889
     20          1           0        1.828077   -0.137072   -2.563033
     21          1           0        4.001407    0.992921   -2.206413
     22          1           0        3.689100    0.175508    2.003696
     23          1           0        5.683249    1.079855    1.003837
     24          1           0        5.813133    1.405479   -0.635310
     25          1           0       -0.814108    0.466839    0.446100
     26          1           0       -1.193747    0.659456   -1.275420
     27          1           0       -2.810297   -1.362771   -0.959062
     28          1           0       -2.575377   -0.570220    2.001541
     29          1           0       -3.764888   -1.685929    1.304872
     30          1           0       -2.034548   -2.086724    1.275225
     31          1           0       -4.525700    2.213145   -0.004775
     32          1           0       -2.739546    1.509989    1.912887
     33          1           0       -1.900162    2.276782    0.711024
 ---------------------------------------------------------------------

 SCF Done:  E(UB3LYP) =  -1067.34177595     A.U. after   33 cycles
 SCF Done:  E(UB3LYP) =  -1067.34177595     a.u. after    1 cycles

 The electronic state is 2-A.
 Alpha  occ. eigenvalues --  -88.75134 -19.01170 -14.28237 -14.25976 -14.22282
 Alpha  occ. eigenvalues --  -10.19545 -10.12445 -10.11715 -10.11201 -10.09999
 Alpha  occ. eigenvalues --  -10.09726 -10.08779 -10.08677 -10.07641 -10.07480
 Alpha  occ. eigenvalues --  -10.07478  -7.83750  -5.80150  -5.79795  -5.79102
 Alpha  occ. eigenvalues --   -0.96733  -0.90132  -0.82822  -0.76498  -0.73839
 Alpha  occ. eigenvalues --   -0.71873  -0.68139  -0.67728  -0.62777  -0.60027
 Alpha  occ. eigenvalues --   -0.58065  -0.54111  -0.51496  -0.50949  -0.48492
 Alpha  occ. eigenvalues --   -0.44214  -0.43804  -0.42465  -0.41680  -0.40022
 Alpha  occ. eigenvalues --   -0.38431  -0.36487  -0.35682  -0.35283  -0.35153
 Alpha  occ. eigenvalues --   -0.33487  -0.33199  -0.32101  -0.31174  -0.29829
 Alpha  occ. eigenvalues --   -0.29486  -0.28860  -0.28247  -0.27649  -0.26732
 Alpha  occ. eigenvalues --   -0.25539  -0.23778  -0.21311  -0.20827  -0.18548
 Alpha  occ. eigenvalues --   -0.17317  -0.15964  -0.14279  -0.11749   0.03617
 Alpha virt. eigenvalues --    0.05127   0.06730   0.07171   0.07461   0.07598
 Alpha virt. eigenvalues --    0.07885   0.08186   0.08979   0.09226   0.09660
 Alpha virt. eigenvalues --    0.10377   0.10655   0.10687   0.11842   0.12489

  Beta  occ. eigenvalues --  -88.75133 -19.01167 -14.28230 -14.25917 -14.22208
  Beta  occ. eigenvalues --  -10.19545 -10.12428 -10.11693 -10.11198 -10.09994
  Beta  occ. eigenvalues --  -10.09711 -10.08778 -10.08642 -10.07624 -10.07466
  Beta  occ. eigenvalues --  -10.07456  -7.83749  -5.80148  -5.79792  -5.79101
  Beta  occ. eigenvalues --   -0.96723  -0.90088  -0.82739  -0.76464  -0.73810
  Beta  occ. eigenvalues --   -0.71792  -0.68101  -0.67693  -0.62722  -0.59984
  Beta  occ. eigenvalues --   -0.58020  -0.54069  -0.51460  -0.50906  -0.48425
  Beta  occ. eigenvalues --   -0.44147  -0.43738  -0.42402  -0.41617  -0.39993
  Beta  occ. eigenvalues --   -0.38398  -0.36449  -0.35635  -0.35236  -0.35132
  Beta  occ. eigenvalues --   -0.33447  -0.33160  -0.32067  -0.31145  -0.29805
  Beta  occ. eigenvalues --   -0.29456  -0.28806  -0.28207  -0.27622  -0.26701
  Beta  occ. eigenvalues --   -0.25509  -0.23743  -0.21260  -0.20791  -0.18525
  Beta  occ. eigenvalues --   -0.17297  -0.15923  -0.14271  -0.11681
  Beta virt. eigenvalues --    0.05963   0.06648   0.06963   0.07416   0.07620
  Beta virt. eigenvalues --    0.07841   0.08177   0.08650   0.09081   0.09430
  Beta virt. eigenvalues --    0.10017   0.10526   0.10834   0.11083   0.12076

 Mulliken charges and spin densities:
               1          2
     1  C    0.753998  -1.248690
     2  C   -0.177088   0.773757
     3  C    0.000205   0.495677
     4  C   -0.711622   0.101615
     5  C    0.029519   0.032995
     6  C    0.690034  -1.333137
     7  C    0.487621  -0.573740
     8  N   -0.215934  -0.062240
     9  S    0.152297  -0.445491
    10  C   -0.524110  -0.310415
    11  C   -0.231367   0.576890
    12  C    0.193659  -0.730856
    13  C   -0.170561  -0.019795
    14  O   -0.316525  -0.000210
    15  N   -0.323567   0.021300
    16  N   -0.245357  -0.147790
    17  H   -0.258999   0.405823
    18  H   -0.146366   0.343640
    19  H    0.129402   0.035413
    20  H    0.125920   0.046286
    21  H   -0.277916   0.435612
    22  H   -0.458357   0.628662
    23  H   -0.261410   0.511970
    24  H   -0.311790   0.563425
    25  H    0.377220  -0.231265
    26  H    0.202408   0.084525
    27  H    0.245111  -0.013029
    28  H   -0.247902   0.386097
    29  H    0.068960   0.107698
    30  H    0.084655   0.064736
    31  H    0.295746   0.041829
    32  H   -0.005822   0.250278
    33  H    0.047940   0.208429
 Sum of Mulliken charges =  -1.00000   1.00000

 Dipole moment (field-independent basis, Debye):
    X=             -6.0872    Y=             -2.4105    Z=             -2.4036  Tot=              6.9744
 Quadrupole moment (field-independent basis, Debye-Ang):
   XX=           -228.3433   YY=           -135.8219   ZZ=           -145.4301
   XY=            -12.6042   XZ=             -6.9921   YZ=             -5.1577

 Summary of Natural Population Analysis:

                                       Natural Population
                Natural  -----------------------------------------------
    Atom  No    Charge         Core      Valence    Rydberg      Total
 -----------------------------------------------------------------------
      C    1   -0.29411      0.99963     2.28811    0.00637     3.29411
      C    2   -0.00314      0.99946     1.99312    0.01056     3.00314
      C    3   -0.11959      0.99935     2.10666    0.01359     3.11959
      C    4   -0.08702      0.99950     2.07676    0.01076     3.08702
      C    5   -0.12859      0.99952     2.11927    0.00981     3.12859
      C    6    0.09844      0.99949     1.89054    0.01153     2.90156
      C    7   -0.12256      0.99947     2.11354    0.00956     3.12256
      N    8   -0.38988      0.99971     2.87983    0.01033     3.88988
      S    9    0.09810      4.99956     2.88457    0.01777     7.90190
      C   10   -0.24614      0.99957     2.23574    0.01083     3.24614
      C   11   -0.16008      0.99955     2.14910    0.01144     3.16008
      C   12   -0.28381      0.99964     2.27790    0.00627     3.28381
      C   13    0.34428      0.99962     1.63162    0.02447     2.65572
      O   14   -0.32126      0.99988     3.31560    0.00578     4.32126
      N   15   -0.23721      0.99966     2.72379    0.01376     3.73721
      N   16   -0.31592      0.99978     2.80456    0.01159     3.81592
      H   17    0.10225      0.00000     0.39680    0.00096     0.39775
      H   18    0.10604      0.00000     0.39245    0.00151     0.39396
      H   19    0.10746      0.00000     0.39152    0.00102     0.39254
      H   20    0.10289      0.00000     0.39600    0.00110     0.39711
      H   21    0.10058      0.00000     0.39810    0.00132     0.39942
      H   22    0.10068      0.00000     0.39764    0.00169     0.39932
      H   23    0.19009      0.00000     0.30364    0.00627     0.30991
      H   24    0.18952      0.00000     0.30401    0.00647     0.31048
      H   25    0.10275      0.00000     0.39521    0.00204     0.39725
      H   26    0.10241      0.00000     0.39612    0.00147     0.39759
      H   27    0.11210      0.00000     0.38607    0.00182     0.38790
      H   28    0.09617      0.00000     0.40216    0.00167     0.40383
      H   29    0.10258      0.00000     0.39664    0.00078     0.39742
      H   30    0.10909      0.00000     0.38986    0.00105     0.39091
      H   31    0.18807      0.00000     0.30950    0.00243     0.31193
      H   32    0.17861      0.00000     0.31798    0.00341     0.32139
      H   33    0.17721      0.00000     0.32048    0.00231     0.32279
 =======================================================================
   * Total *   -0.00000     19.99337    43.78490    0.22173    64.00000

 Normal termination of Gaussian 16 at Fri Dec 11 00:36:19 2020.
