 Gaussian 16, Revision A.03,

 -----------------------------------------------------------
 # opt freq B3LYP/6-31G(d) empiricaldispersion=gd3bj scf=xqc
 -----------------------------------------------------------

 ------------------------------
 CID_64481982_JID_4147_neutraal
 ------------------------------
 Symbolic Z-matrix:
 Charge =  0 Multiplicity = 1

 SCF Done:  E(RB3LYP) =  -952.544065414     A.U. after   16 cycles
 SCF Done:  E(RB3LYP) =  -952.567028996     A.U. after   13 cycles
 SCF Done:  E(RB3LYP) =  -952.568073439     A.U. after   12 cycles
 SCF Done:  E(RB3LYP) =  -952.568288187     A.U. after   12 cycles
 SCF Done:  E(RB3LYP) =  -952.568180722     A.U. after   12 cycles
 SCF Done:  E(RB3LYP) =  -952.568452199     A.U. after   12 cycles
 SCF Done:  E(RB3LYP) =  -952.568507364     A.U. after   11 cycles
 SCF Done:  E(RB3LYP) =  -952.568527819     A.U. after   11 cycles
 SCF Done:  E(RB3LYP) =  -952.568538434     A.U. after   10 cycles
 SCF Done:  E(RB3LYP) =  -952.568543448     A.U. after   10 cycles
 SCF Done:  E(RB3LYP) =  -952.568545094     A.U. after    9 cycles
 SCF Done:  E(RB3LYP) =  -952.568545721     A.U. after    8 cycles
 SCF Done:  E(RB3LYP) =  -952.568545899     A.U. after    8 cycles
 Optimization completed.
    -- Stationary point found.
 Normal termination of Gaussian 16 at Thu Dec 10 09:17:43 2020.

 --------------------------------------------------------------------
 #N Geom=AllCheck Guess=TCheck SCRF=Check GenChk RB3LYP/6-31G(d) Freq
 --------------------------------------------------------------------

 Structure from the checkpoint file:  "JID_4147.chk"
 ------------------------------
 CID_64481982_JID_4147_neutraal
 ------------------------------
 Charge =  0 Multiplicity = 1

 SCF Done:  E(RB3LYP) =  -952.568545899     A.U. after    1 cycles

  Exact polarizability: 165.647  -9.234 111.672  -1.597  -3.092 118.389
 Approx polarizability: 221.913 -21.082 167.328 -13.052  -6.174 213.476

                      1                      2                      3
                      A                      A                      A
 Frequencies --     26.6162                34.1118                73.3244
 Red. masses --      5.7425                 6.2472                 3.1384
 Frc consts  --      0.0024                 0.0043                 0.0099
 IR Inten    --      0.4373                 1.8595                 0.0906

                      4                      5                      6
                      A                      A                      A
 Frequencies --     77.1195               113.3615               122.9312
 Red. masses --      4.4379                 2.7992                 3.2378
 Frc consts  --      0.0156                 0.0212                 0.0288
 IR Inten    --      1.1559                 1.2304                 0.7371

                      7                      8                      9
                      A                      A                      A
 Frequencies --    144.0460               162.9690               185.7864
 Red. masses --      3.9089                 1.5510                 2.0061
 Frc consts  --      0.0478                 0.0243                 0.0408
 IR Inten    --      5.3687                 1.5920                 1.0635

                     10                     11                     12
                      A                      A                      A
 Frequencies --    210.1346               255.1058               260.9960
 Red. masses --      2.2855                 4.4507                 1.4984
 Frc consts  --      0.0595                 0.1707                 0.0601
 IR Inten    --      2.9659                 2.9689                 1.1077

                     13                     14                     15
                      A                      A                      A
 Frequencies --    268.3112               279.3561               309.3189
 Red. masses --      3.5807                 3.7842                 2.7248
 Frc consts  --      0.1519                 0.1740                 0.1536
 IR Inten    --      2.5977                 3.2123                 2.9437

                     16                     17                     18
                      A                      A                      A
 Frequencies --    371.1927               430.4062               528.9968
 Red. masses --      3.9582                 4.1360                 4.1141
 Frc consts  --      0.3213                 0.4514                 0.6783
 IR Inten    --      2.3390                 0.3087                 5.8807

                     19                     20                     21
                      A                      A                      A
 Frequencies --    559.3226               576.5078               596.6452
 Red. masses --      3.8401                 3.7001                 3.3563
 Frc consts  --      0.7078                 0.7246                 0.7039
 IR Inten    --      0.4310                16.6026                 4.6640

                     22                     23                     24
                      A                      A                      A
 Frequencies --    615.8798               659.5983               681.5761
 Red. masses --      4.9126                 2.5544                 2.5000
 Frc consts  --      1.0979                 0.6548                 0.6843
 IR Inten    --      3.4891                57.0701                45.2743

                     25                     26                     27
                      A                      A                      A
 Frequencies --    732.2909               756.4543               764.0236
 Red. masses --      1.3348                 3.0576                 3.5159
 Frc consts  --      0.4217                 1.0308                 1.2092
 IR Inten    --     31.3480                 2.2573                 3.1573

                     28                     29                     30
                      A                      A                      A
 Frequencies --    785.4407               821.2451               874.8189
 Red. masses --      1.5308                 1.7813                 2.6952
 Frc consts  --      0.5564                 0.7078                 1.2153
 IR Inten    --      8.4482                 9.4485                25.7511

                     31                     32                     33
                      A                      A                      A
 Frequencies --    881.5333               891.5198               894.1925
 Red. masses --      2.0605                 3.4189                 1.3478
 Frc consts  --      0.9434                 1.6010                 0.6349
 IR Inten    --     12.6216                 0.8460                 0.6957

                     34                     35                     36
                      A                      A                      A
 Frequencies --    938.5063              1006.3924              1053.4608
 Red. masses --      1.8882                 1.7450                 2.4300
 Frc consts  --      0.9799                 1.0413                 1.5889
 IR Inten    --     11.9620                10.5027                 0.6448

                     37                     38                     39
                      A                      A                      A
 Frequencies --   1075.1751              1087.8094              1093.4103
 Red. masses --      2.5347                 1.9629                 2.1712
 Frc consts  --      1.7264                 1.3685                 1.5294
 IR Inten    --     55.3664                 6.8202                14.7153

                     40                     41                     42
                      A                      A                      A
 Frequencies --   1103.1110              1128.3947              1142.6238
 Red. masses --      1.6113                 1.7735                 1.7144
 Frc consts  --      1.1552                 1.3305                 1.3188
 IR Inten    --      3.4900                 6.5064                 1.8904

                     43                     44                     45
                      A                      A                      A
 Frequencies --   1172.1216              1201.7441              1221.2707
 Red. masses --      3.6503                 2.8452                 2.0046
 Frc consts  --      2.9547                 2.4209                 1.7616
 IR Inten    --     76.9810                13.0064                15.6594

                     46                     47                     48
                      A                      A                      A
 Frequencies --   1280.7244              1298.7224              1309.2854
 Red. masses --      1.3089                 1.2180                 1.2834
 Frc consts  --      1.2649                 1.2104                 1.2962
 IR Inten    --      0.8039                 3.7079                 1.7247

                     49                     50                     51
                      A                      A                      A
 Frequencies --   1332.0223              1348.9819              1356.9949
 Red. masses --      1.2718                 1.5393                 1.5852
 Frc consts  --      1.3296                 1.6504                 1.7198
 IR Inten    --      0.9035                 6.9757                 0.9843

                     52                     53                     54
                      A                      A                      A
 Frequencies --   1383.9375              1402.9334              1415.5399
 Red. masses --      1.4169                 1.3782                 1.3587
 Frc consts  --      1.5989                 1.5982                 1.6040
 IR Inten    --      0.6327                 3.6290                 6.6330

                     55                     56                     57
                      A                      A                      A
 Frequencies --   1446.4867              1452.3659              1501.7554
 Red. masses --      1.2405                 1.2597                 4.9929
 Frc consts  --      1.5292                 1.5656                 6.6343
 IR Inten    --      1.8313                10.3358                 7.0929

                     58                     59                     60
                      A                      A                      A
 Frequencies --   1514.0089              1517.6899              1524.1463
 Red. masses --      1.1256                 1.0679                 1.2195
 Frc consts  --      1.5202                 1.4493                 1.6691
 IR Inten    --     20.3254                 2.1696                63.6634

                     61                     62                     63
                      A                      A                      A
 Frequencies --   1529.1248              1530.5065              1533.8833
 Red. masses --      1.0596                 1.0500                 1.0565
 Frc consts  --      1.4598                 1.4491                 1.4645
 IR Inten    --      3.4313                 4.4627                 6.2714

                     64                     65                     66
                      A                      A                      A
 Frequencies --   1538.1526              1575.1843              2344.8877
 Red. masses --      1.0593                 6.3159                12.6441
 Frc consts  --      1.4767                 9.2332                40.9622
 IR Inten    --      4.8132                31.5793                 3.4347

                     67                     68                     69
                      A                      A                      A
 Frequencies --   3027.3313              3043.4376              3049.9332
 Red. masses --      1.0817                 1.0804                 1.0663
 Frc consts  --      5.8408                 5.8963                 5.8441
 IR Inten    --     12.4332                 2.1565                32.0857

                     70                     71                     72
                      A                      A                      A
 Frequencies --   3052.2757              3060.2102              3067.5486
 Red. masses --      1.0405                 1.0635                 1.0360
 Frc consts  --      5.7112                 5.8681                 5.7438
 IR Inten    --     15.8662                32.2508                14.4479

                     73                     74                     75
                      A                      A                      A
 Frequencies --   3087.7910              3105.8383              3122.3212
 Red. masses --      1.0994                 1.0988                 1.1021
 Frc consts  --      6.1762                 6.2450                 6.3303
 IR Inten    --     28.1891                 2.6843                35.3518

                     76                     77                     78
                      A                      A                      A
 Frequencies --   3132.9920              3134.2388              3142.9855
 Red. masses --      1.1021                 1.1024                 1.1022
 Frc consts  --      6.3734                 6.3805                 6.4151
 IR Inten    --     24.9823                29.2877                29.6328

                     79                     80                     81
                      A                      A                      A
 Frequencies --   3237.5365              3284.6130              3547.7840
 Red. masses --      1.0915                 1.0982                 1.0746
 Frc consts  --      6.7406                 6.9806                 7.9693
 IR Inten    --      9.0531                 1.4095                13.1380

 - Thermochemistry -
 -------------------
 Temperature   298.150 Kelvin.  Pressure   1.00000 Atm.
 Atom     1 has atomic number  6 and mass  12.00000

 Molecular mass:   209.09867 amu.
 Principal axes and moments of inertia in atomic units:
                           1         2         3
     Eigenvalues --  1512.858905667.887366279.54328
           X            0.99965   0.02469   0.00964
           Y           -0.02466   0.99969  -0.00376
           Z           -0.00973   0.00352   0.99995
 This molecule is an asymmetric top.
 Rotational symmetry number  1.
 Warning -- assumption of classical behavior for rotation
           may cause significant error
 Rotational temperatures (Kelvin)      0.05725     0.01528     0.01379
 Rotational constants (GHZ):           1.19293     0.31842     0.28740
 Zero-point vibrational energy     636433.2 (Joules/Mol)
                                  152.11119 (Kcal/Mol)
 Warning -- explicit consideration of  22 degrees of freedom as
           vibrations may cause significant error
 Vibrational temperatures:     38.29    49.08   105.50   110.96   163.10
          (Kelvin)            176.87   207.25   234.48   267.31   302.34
                              367.04   375.52   386.04   401.93   445.04
                              534.06   619.26   761.11   804.74   829.47
                              858.44   886.11   949.01   980.64  1053.60
                             1088.37  1099.26  1130.07  1181.59  1258.67
                             1268.33  1282.70  1286.54  1350.30  1447.97
                             1515.70  1546.94  1565.12  1573.17  1587.13
                             1623.51  1643.98  1686.42  1729.04  1757.14
                             1842.68  1868.57  1883.77  1916.48  1940.88
                             1952.41  1991.18  2018.51  2036.65  2081.17
                             2089.63  2160.69  2178.32  2183.62  2192.91
                             2200.07  2202.06  2206.92  2213.06  2266.34
                             3373.77  4355.65  4378.83  4388.17  4391.54
                             4402.96  4413.52  4442.64  4468.61  4492.32
                             4507.68  4509.47  4522.06  4658.09  4725.83
                             5104.47

 Zero-point correction=                           0.242405 (Hartree/Particle)
 Thermal correction to Energy=                    0.257483
 Thermal correction to Enthalpy=                  0.258427
 Thermal correction to Gibbs Free Energy=         0.198748
 Sum of electronic and zero-point Energies=           -952.326141
 Sum of electronic and thermal Energies=              -952.311063
 Sum of electronic and thermal Enthalpies=            -952.310118
 Sum of electronic and thermal Free Energies=         -952.369798

                     E (Thermal)             CV                S
                      KCal/Mol        Cal/Mol-Kelvin    Cal/Mol-Kelvin
 Total                  161.573             54.878            125.607
 Electronic               0.000              0.000              0.000
 Translational            0.889              2.981             41.917
 Rotational               0.889              2.981             32.354
 Vibrational            159.796             48.916             51.336
 Vibration     1          0.593              1.984              6.067
 Vibration     2          0.594              1.983              5.575
 Vibration     3          0.599              1.967              4.062
 Vibration     4          0.599              1.964              3.963
 Vibration     5          0.607              1.938              3.211
 Vibration     6          0.610              1.930              3.054
 Vibration     7          0.616              1.909              2.749
 Vibration     8          0.623              1.888              2.515
 Vibration     9          0.632              1.859              2.269
 Vibration    10          0.642              1.825              2.043
 Vibration    11          0.665              1.754              1.695
 Vibration    12          0.669              1.744              1.655
 Vibration    13          0.673              1.731              1.607
 Vibration    14          0.680              1.712              1.538
 Vibration    15          0.699              1.656              1.366
 Vibration    16          0.743              1.531              1.075
 Vibration    17          0.792              1.404              0.857
 Vibration    18          0.884              1.186              0.589
 Vibration    19          0.915              1.119              0.525
 Vibration    20          0.933              1.082              0.492
 Vibration    21          0.954              1.039              0.455
 Vibration    22          0.975              0.998              0.423

 Optimization completed.
    -- Stationary point found.
 Normal termination of Gaussian 16 at Thu Dec 10 09:25:13 2020.

 ----------------------------------------------------------------------
 # B3LYP/6-311++G(d,p) empiricaldispersion=gd3bj scf=xqc pop=npa geom=c
 heck
 ----------------------------------------------------------------------

 --------------------------------------
 CID_64481982_JID_4147_Energie_neutraal
 --------------------------------------
 Structure from the checkpoint file:  "JID_4147.chk"
 Charge =  0 Multiplicity = 1

 SCF Done:  E(RB3LYP) =  -952.749604729     A.U. after   16 cycles
 Normal termination of Gaussian 16 at Thu Dec 10 09:28:28 2020.

 ----------------------------------------------------------------------
 # B3LYP/6-311++G(d,p) empiricaldispersion=gd3bj scf=xqc pop=npa geom=c
 heck
 ----------------------------------------------------------------------

 ------------------------------------
 CID_64481982_JID_4147_Energie_kation
 ------------------------------------
 Structure from the checkpoint file:  "JID_4147.chk"
 Charge =  1 Multiplicity = 2

 SCF Done:  E(UB3LYP) =  -952.436018317     A.U. after   25 cycles
 Normal termination of Gaussian 16 at Thu Dec 10 09:35:11 2020.
 Gaussian 16:  ES64L-G16RevA.03 25-Dec-2016

 ----------------------------------------------------------------------
 # B3LYP/6-311++G(d,p) empiricaldispersion=gd3bj scf=xqc pop=npa geom=c
 heck
 ----------------------------------------------------------------------

 -----------------------------------
 CID_64481982_JID_4147_Energie_anion
 -----------------------------------
 Structure from the checkpoint file:  "JID_4147.chk"
 Charge = -1 Multiplicity = 2

                         Standard orientation:
 ---------------------------------------------------------------------
 Center     Atomic      Atomic             Coordinates (Angstroms)
 Number     Number       Type             X           Y           Z
 ---------------------------------------------------------------------
      1          6           0       -4.472932   -1.545514   -0.227270
      2          6           0       -3.010918   -1.579125    0.218878
      3          6           0       -2.171024   -0.398073   -0.312017
      4          6           0       -2.795082    0.883887    0.115304
      5          7           0       -3.270295    1.870808    0.502121
      6          7           0       -0.786171   -0.554772    0.088409
      7          6           0        0.239941    0.152283   -0.673244
      8          6           0        0.136096    1.701935   -0.733355
      9          6           0        0.253451    2.400656    0.620914
     10          6           0        1.576049   -0.257684   -0.103330
     11          7           0        1.769379   -0.539239    1.152987
     12          6           0        3.097519   -0.803027    1.410386
     13          6           0        3.938756   -0.713963    0.340997
     14         16           0        3.036674   -0.284982   -1.080064
     15          1           0       -4.983110   -0.648176    0.137888
     16          1           0       -5.010762   -2.418348    0.156069
     17          1           0       -4.553580   -1.557316   -1.320939
     18          1           0       -2.948347   -1.581042    1.314410
     19          1           0       -2.512170   -2.488683   -0.130255
     20          1           0       -2.202319   -0.417962   -1.409722
     21          1           0       -0.643044   -0.441722    1.087757
     22          1           0        0.178527   -0.215954   -1.706801
     23          1           0        0.923245    2.059896   -1.409798
     24          1           0       -0.817538    1.963906   -1.206100
     25          1           0        1.221606    2.202899    1.090966
     26          1           0        0.145828    3.482965    0.498029
     27          1           0       -0.531079    2.073456    1.309049
     28          1           0        3.398445   -1.060306    2.419097
     29          1           0        5.005975   -0.879725    0.303189
 ---------------------------------------------------------------------

 SCF Done:  E(UB3LYP) =  -952.741442056     A.U. after   33 cycles
 SCF Done:  E(UB3LYP) =  -952.741442056     a.u. after    1 cycles

 The electronic state is 2-A.
 Alpha  occ. eigenvalues --  -88.75949 -14.20912 -14.20373 -14.19139 -10.13829
 Alpha  occ. eigenvalues --  -10.10668 -10.10523 -10.10523 -10.08648 -10.07910
 Alpha  occ. eigenvalues --  -10.07898 -10.06402 -10.06310 -10.05312  -7.84598
 Alpha  occ. eigenvalues --   -5.80872  -5.80529  -5.80217  -0.85017  -0.82521
 Alpha  occ. eigenvalues --   -0.79845  -0.70689  -0.67976  -0.66622  -0.63284
 Alpha  occ. eigenvalues --   -0.60085  -0.56289  -0.51819  -0.49652  -0.47436
 Alpha  occ. eigenvalues --   -0.44679  -0.42050  -0.39214  -0.37631  -0.36073
 Alpha  occ. eigenvalues --   -0.35432  -0.33716  -0.33387  -0.30795  -0.29893
 Alpha  occ. eigenvalues --   -0.29775  -0.28651  -0.27566  -0.26623  -0.26479
 Alpha  occ. eigenvalues --   -0.25531  -0.25107  -0.24808  -0.24323  -0.23933
 Alpha  occ. eigenvalues --   -0.23119  -0.22043  -0.17069  -0.16240  -0.13679
 Alpha  occ. eigenvalues --   -0.13042   0.04709
 Alpha virt. eigenvalues --    0.06712   0.07530   0.07845   0.08948   0.09469
 Alpha virt. eigenvalues --    0.09802   0.10233   0.10557   0.11302   0.11873
 Alpha virt. eigenvalues --    0.12167   0.12739   0.12868   0.13217   0.13388

  Beta  occ. eigenvalues --  -88.75919 -14.20896 -14.20365 -14.19107 -10.13799
  Beta  occ. eigenvalues --  -10.10675 -10.10519 -10.10222 -10.08640 -10.07885
  Beta  occ. eigenvalues --  -10.07710 -10.06374 -10.06273 -10.05312  -7.84570
  Beta  occ. eigenvalues --   -5.80861  -5.80519  -5.80108  -0.84811  -0.82460
  Beta  occ. eigenvalues --   -0.79814  -0.70605  -0.67751  -0.66550  -0.63072
  Beta  occ. eigenvalues --   -0.59967  -0.56230  -0.51733  -0.49481  -0.47214
  Beta  occ. eigenvalues --   -0.44591  -0.41863  -0.39097  -0.37576  -0.36003
  Beta  occ. eigenvalues --   -0.35244  -0.33653  -0.33335  -0.30711  -0.29779
  Beta  occ. eigenvalues --   -0.29647  -0.28158  -0.27517  -0.26551  -0.26417
  Beta  occ. eigenvalues --   -0.25446  -0.24915  -0.24755  -0.24274  -0.23870
  Beta  occ. eigenvalues --   -0.23083  -0.21975  -0.16429  -0.16148  -0.13311
  Beta  occ. eigenvalues --   -0.12300
  Beta virt. eigenvalues --    0.07306   0.07540   0.08409   0.08918   0.09251
  Beta virt. eigenvalues --    0.09660   0.10016   0.10577   0.10680   0.11538
  Beta virt. eigenvalues --    0.11947   0.12397   0.12848   0.13177   0.13350

 Mulliken charges and spin densities:
               1          2
     1  C    0.715958  -1.359464
     2  C   -0.898361   0.715161
     3  C   -0.080597   0.349904
     4  C    0.781390  -1.215394
     5  N   -0.318141   0.063630
     6  N    0.164455  -0.007415
     7  C   -0.602665  -0.304661
     8  C    0.248854  -0.293639
     9  C   -0.706972  -0.052763
    10  C    0.584288  -0.069437
    11  N    0.003119   0.010868
    12  C   -0.050482  -0.002920
    13  C   -0.178983   0.122923
    14  S   -0.194324   0.039808
    15  H    0.124437   0.041500
    16  H   -0.361961   0.503752
    17  H   -0.379326   0.528974
    18  H   -0.016974   0.127517
    19  H   -0.072781   0.281166
    20  H   -0.228611   0.415637
    21  H    0.280542  -0.045024
    22  H   -0.685322   0.934388
    23  H    0.115966   0.013002
    24  H   -0.008411   0.183186
    25  H    0.161060  -0.001185
    26  H    0.128032   0.002706
    27  H    0.153462   0.022703
    28  H    0.126284   0.005195
    29  H    0.196065  -0.010117
 Sum of Mulliken charges =  -1.00000   1.00000

 Dipole moment (field-independent basis, Debye):
    X=              5.9560    Y=              1.8025    Z=              3.3333  Tot=              7.0593
 Quadrupole moment (field-independent basis, Debye-Ang):
   XX=           -156.5724   YY=           -128.1879   ZZ=           -122.6750
   XY=             -2.7275   XZ=             -5.7201   YZ=             -6.5017

 Summary of Natural Population Analysis:

                                       Natural Population
                Natural  -----------------------------------------------
    Atom  No    Charge         Core      Valence    Rydberg      Total
 -----------------------------------------------------------------------
      C    1   -0.29030      0.99966     2.28539    0.00525     3.29030
      C    2   -0.18192      0.99963     2.17261    0.00968     3.18192
      C    3   -0.06105      0.99950     2.04805    0.01350     3.06105
      C    4    0.15394      0.99964     1.82699    0.01943     2.84606
      N    5   -0.19204      0.99979     2.68083    0.01142     3.69204
      N    6   -0.32913      0.99972     2.81730    0.01211     3.82913
      C    7   -0.03279      0.99952     2.01709    0.01618     3.03279
      C    8   -0.19336      0.99962     2.18544    0.00830     3.19336
      C    9   -0.29192      0.99966     2.28638    0.00588     3.29192
      C   10    0.09152      0.99958     1.88896    0.01994     2.90848
      N   11   -0.25808      0.99963     2.74721    0.01123     3.75808
      C   12   -0.02452      0.99954     2.01149    0.01349     3.02452
      C   13   -0.18495      0.99954     2.17650    0.00891     3.18495
      S   14    0.18519      4.99943     2.79481    0.02057     7.81481
      H   15    0.10057      0.00000     0.39847    0.00095     0.39943
      H   16    0.10152      0.00000     0.39745    0.00103     0.39848
      H   17    0.10121      0.00000     0.39702    0.00177     0.39879
      H   18    0.09438      0.00000     0.40435    0.00126     0.40562
      H   19    0.10779      0.00000     0.39075    0.00146     0.39221
      H   20    0.11709      0.00000     0.37862    0.00429     0.38291
      H   21    0.18693      0.00000     0.30975    0.00332     0.31307
      H   22    0.10581      0.00000     0.39104    0.00314     0.39419
      H   23    0.09788      0.00000     0.40119    0.00093     0.40212
      H   24    0.10091      0.00000     0.39780    0.00129     0.39909
      H   25    0.10148      0.00000     0.39762    0.00090     0.39852
      H   26    0.09646      0.00000     0.40291    0.00063     0.40354
      H   27    0.10094      0.00000     0.39822    0.00084     0.39906
      H   28    0.09299      0.00000     0.40606    0.00096     0.40701
      H   29    0.10344      0.00000     0.39579    0.00076     0.39656
 =======================================================================
   * Total *    0.00000     17.99446    37.80611    0.19943    56.00000

 Normal termination of Gaussian 16 at Thu Dec 10 09:44:08 2020.
