 Gaussian 16, Revision A.03,

 -----------------------------------------------------------
 # opt freq B3LYP/6-31G(d) empiricaldispersion=gd3bj scf=xqc
 -----------------------------------------------------------

 -------------------------------
 CID_130648050_JID_3971_neutraal
 -------------------------------
 Symbolic Z-matrix:
 Charge =  0 Multiplicity = 1

 SCF Done:  E(RB3LYP) =  -541.927255045     A.U. after   13 cycles
 SCF Done:  E(RB3LYP) =  -541.936185145     A.U. after   11 cycles
 SCF Done:  E(RB3LYP) =  -541.937529419     A.U. after   10 cycles
 SCF Done:  E(RB3LYP) =  -541.937742973     A.U. after   11 cycles
 SCF Done:  E(RB3LYP) =  -541.938718959     A.U. after   10 cycles
 SCF Done:  E(RB3LYP) =  -541.938822894     A.U. after   11 cycles
 SCF Done:  E(RB3LYP) =  -541.939515144     A.U. after   10 cycles
 SCF Done:  E(RB3LYP) =  -541.939555904     A.U. after   10 cycles
 SCF Done:  E(RB3LYP) =  -541.939577301     A.U. after   10 cycles
 SCF Done:  E(RB3LYP) =  -541.939588273     A.U. after    9 cycles
 SCF Done:  E(RB3LYP) =  -541.939588640     A.U. after    7 cycles
 SCF Done:  E(RB3LYP) =  -541.939588731     A.U. after    6 cycles
 SCF Done:  E(RB3LYP) =  -541.939588768     A.U. after    6 cycles
 SCF Done:  E(RB3LYP) =  -541.939588763     A.U. after    5 cycles
 Optimization completed.
    -- Stationary point found.
 Normal termination of Gaussian 16 at Sun Dec 13 20:03:37 2020.

 --------------------------------------------------------------------
 #N Geom=AllCheck Guess=TCheck SCRF=Check GenChk RB3LYP/6-31G(d) Freq
 --------------------------------------------------------------------

 Structure from the checkpoint file:  "JID_3971.chk"
 -------------------------------
 CID_130648050_JID_3971_neutraal
 -------------------------------
 Charge =  0 Multiplicity = 1

 SCF Done:  E(RB3LYP) =  -541.939588763     A.U. after    1 cycles

  Exact polarizability: 136.915   2.027 124.141  -1.871   0.126 113.333
 Approx polarizability: 169.407   1.023 174.523  -4.340   2.122 174.205

                      1                      2                      3
                      A                      A                      A
 Frequencies --     32.7337                70.2914                77.3001
 Red. masses --      2.8927                 2.9967                 2.7363
 Frc consts  --      0.0018                 0.0087                 0.0096
 IR Inten    --      0.1689                 0.0602                 0.1605

                      4                      5                      6
                      A                      A                      A
 Frequencies --    135.7432               154.0199               175.7145
 Red. masses --      2.5554                 2.3944                 3.1985
 Frc consts  --      0.0277                 0.0335                 0.0582
 IR Inten    --      1.2497                 6.6006                 1.4365

                      7                      8                      9
                      A                      A                      A
 Frequencies --    214.6112               218.2791               245.4445
 Red. masses --      2.0637                 1.5125                 1.8706
 Frc consts  --      0.0560                 0.0425                 0.0664
 IR Inten    --      3.2118                22.6150                 0.7397

                     10                     11                     12
                      A                      A                      A
 Frequencies --    258.2586               286.9145               325.1545
 Red. masses --      2.3335                 3.1916                 1.9228
 Frc consts  --      0.0917                 0.1548                 0.1198
 IR Inten    --     20.4692                 6.8206                 1.1635

                     13                     14                     15
                      A                      A                      A
 Frequencies --    363.3296               416.5805               438.3105
 Red. masses --      2.9030                 2.1845                 1.9921
 Frc consts  --      0.2258                 0.2234                 0.2255
 IR Inten    --      1.3614                 1.8200                 0.7978

                     16                     17                     18
                      A                      A                      A
 Frequencies --    444.2977               467.3472               537.4244
 Red. masses --      2.8323                 2.9923                 1.5820
 Frc consts  --      0.3294                 0.3851                 0.2692
 IR Inten    --      0.1327                 7.9069                 1.8154

                     19                     20                     21
                      A                      A                      A
 Frequencies --    580.6073               718.6794               755.8029
 Red. masses --      3.0464                 2.9940                 1.4052
 Frc consts  --      0.6051                 0.9111                 0.4729
 IR Inten    --      7.9733                 2.5957                 1.8513

                     22                     23                     24
                      A                      A                      A
 Frequencies --    805.3128               814.3100               843.3796
 Red. masses --      1.4658                 2.0833                 2.8311
 Frc consts  --      0.5601                 0.8139                 1.1864
 IR Inten    --      0.3642                 2.8352                34.3883

                     25                     26                     27
                      A                      A                      A
 Frequencies --    866.2891               875.8336               901.6108
 Red. masses --      2.1823                 1.2666                 1.5297
 Frc consts  --      0.9649                 0.5724                 0.7326
 IR Inten    --     17.7827                29.1892                42.4136

                     28                     29                     30
                      A                      A                      A
 Frequencies --    906.1696               927.4658               936.6861
 Red. masses --      1.8047                 1.4975                 2.2438
 Frc consts  --      0.8731                 0.7590                 1.1599
 IR Inten    --      3.6554                16.1073                 6.2304

                     31                     32                     33
                      A                      A                      A
 Frequencies --    941.7879               944.4859               953.2912
 Red. masses --      1.9488                 2.3519                 1.8754
 Frc consts  --      1.0184                 1.2361                 1.0041
 IR Inten    --      2.3156                 4.6940                46.1682

                     34                     35                     36
                      A                      A                      A
 Frequencies --    987.0994              1019.3198              1053.2515
 Red. masses --      2.5620                 2.3743                 1.8221
 Frc consts  --      1.4708                 1.4534                 1.1909
 IR Inten    --      8.0582                11.3906                 0.7159

                     37                     38                     39
                      A                      A                      A
 Frequencies --   1059.8670              1070.2438              1080.7352
 Red. masses --      2.1078                 1.5996                 1.8694
 Frc consts  --      1.3950                 1.0795                 1.2865
 IR Inten    --      4.5856                 2.4793                14.0724

                     40                     41                     42
                      A                      A                      A
 Frequencies --   1102.7688              1110.3313              1142.2960
 Red. masses --      1.1349                 2.8370                 1.2620
 Frc consts  --      0.8132                 2.0607                 0.9702
 IR Inten    --      2.4809                 0.8335                 2.2861

                     43                     44                     45
                      A                      A                      A
 Frequencies --   1143.4042              1160.9919              1178.7745
 Red. masses --      1.5006                 1.6330                 2.0547
 Frc consts  --      1.1559                 1.2968                 1.6821
 IR Inten    --      0.7836                 5.0518                 5.8560

                     46                     47                     48
                      A                      A                      A
 Frequencies --   1209.1854              1216.4407              1228.7823
 Red. masses --      1.4783                 1.4044                 1.5020
 Frc consts  --      1.2735                 1.2244                 1.3362
 IR Inten    --      2.0792                 1.9790                 1.4801

                     49                     50                     51
                      A                      A                      A
 Frequencies --   1236.5613              1271.8658              1279.6182
 Red. masses --      1.4673                 2.6107                 1.4662
 Frc consts  --      1.3219                 2.4883                 1.4146
 IR Inten    --      0.5798                26.5567                 8.1414

                     52                     53                     54
                      A                      A                      A
 Frequencies --   1290.4245              1297.8570              1302.2957
 Red. masses --      1.4384                 1.3341                 1.2501
 Frc consts  --      1.4112                 1.3240                 1.2492
 IR Inten    --      2.8911                 3.3439                 5.8957

                     55                     56                     57
                      A                      A                      A
 Frequencies --   1308.8890              1324.0442              1352.0224
 Red. masses --      1.2278                 1.3334                 1.2899
 Frc consts  --      1.2393                 1.3773                 1.3892
 IR Inten    --      1.7619                 5.2391                 0.3107

                     58                     59                     60
                      A                      A                      A
 Frequencies --   1363.7423              1374.5208              1379.9457
 Red. masses --      1.3822                 1.5256                 1.4256
 Frc consts  --      1.5146                 1.6983                 1.5994
 IR Inten    --      6.4520                17.2916                 4.4927

                     61                     62                     63
                      A                      A                      A
 Frequencies --   1386.4982              1393.5219              1400.9838
 Red. masses --      1.4110                 1.3829                 1.4983
 Frc consts  --      1.5981                 1.5822                 1.7327
 IR Inten    --      0.7586                 0.6832                 0.7172

                     64                     65                     66
                      A                      A                      A
 Frequencies --   1404.9257              1417.8556              1420.0779
 Red. masses --      1.5251                 1.3625                 1.3360
 Frc consts  --      1.7736                 1.6138                 1.5874
 IR Inten    --      1.8288                 9.3393                19.0898

                     67                     68                     69
                      A                      A                      A
 Frequencies --   1447.7241              1501.3038              1512.5956
 Red. masses --      1.4539                 1.0866                 1.0864
 Frc consts  --      1.7954                 1.4430                 1.4645
 IR Inten    --     14.2049                 6.5534                 0.2515

                     70                     71                     72
                      A                      A                      A
 Frequencies --   1515.5723              1516.4467              1518.6654
 Red. masses --      1.0918                 1.1045                 1.0960
 Frc consts  --      1.4775                 1.4965                 1.4892
 IR Inten    --      1.4823                 0.8418                 2.2041

                     73                     74                     75
                      A                      A                      A
 Frequencies --   1523.1159              1537.6597              1541.8824
 Red. masses --      1.0867                 1.0991                 1.0828
 Frc consts  --      1.4854                 1.5311                 1.5167
 IR Inten    --      9.7297                 1.5109                 6.7232

                     76                     77                     78
                      A                      A                      A
 Frequencies --   1570.9746              1693.8354              2962.0191
 Red. masses --      1.1260                 1.0895                 1.0685
 Frc consts  --      1.6372                 1.8416                 5.5231
 IR Inten    --      3.5509                20.6541                91.4129

                     79                     80                     81
                      A                      A                      A
 Frequencies --   2983.9934              2989.9366              3000.4131
 Red. masses --      1.0767                 1.0709                 1.0763
 Frc consts  --      5.6486                 5.6408                 5.7087
 IR Inten    --     10.2109               106.2748                53.7031

                     82                     83                     84
                      A                      A                      A
 Frequencies --   3003.6412              3013.0620              3017.1881
 Red. masses --      1.0748                 1.0711                 1.0719
 Frc consts  --      5.7131                 5.7293                 5.7491
 IR Inten    --     26.7078                20.0460                 5.3850

                     85                     86                     87
                      A                      A                      A
 Frequencies --   3021.6120              3023.1304              3030.2869
 Red. masses --      1.0658                 1.0654                 1.0676
 Frc consts  --      5.7331                 5.7371                 5.7759
 IR Inten    --      3.8060                13.3746               117.4984

                     88                     89                     90
                      A                      A                      A
 Frequencies --   3048.7110              3051.9937              3068.0366
 Red. masses --      1.0921                 1.0986                 1.0915
 Frc consts  --      5.9805                 6.0293                 6.0535
 IR Inten    --     71.2177                59.5132                30.5015

                     91                     92                     93
                      A                      A                      A
 Frequencies --   3068.5688              3069.7729              3075.0172
 Red. masses --      1.0976                 1.0918                 1.1033
 Frc consts  --      6.0892                 6.0617                 6.1464
 IR Inten    --     65.3181                66.9207                89.8681

                     94                     95                     96
                      A                      A                      A
 Frequencies --   3096.9222              3101.2756              3121.0693
 Red. masses --      1.0910                 1.0591                 1.0909
 Frc consts  --      6.1650                 6.0017                 6.2609
 IR Inten    --     53.5131                39.4239                21.2089

                     97                     98                     99
                      A                      A                      A
 Frequencies --   3155.5196              3469.9911              3559.2258
 Red. masses --      1.1105                 1.0502                 1.0905
 Frc consts  --      6.5147                 7.4503                 8.1392
 IR Inten    --     30.5697                 2.4112                 0.8664

 - Thermochemistry -
 -------------------
 Temperature   298.150 Kelvin.  Pressure   1.00000 Atm.
 Atom     1 has atomic number  6 and mass  12.00000

 Molecular mass:   182.17830 amu.
 Principal axes and moments of inertia in atomic units:
                           1         2         3
     Eigenvalues --  1493.181743597.339584189.31954
           X            0.99999   0.00434  -0.00316
           Y           -0.00434   0.99999  -0.00080
           Z            0.00315   0.00081   0.99999
 This molecule is an asymmetric top.
 Rotational symmetry number  1.
 Warning -- assumption of classical behavior for rotation
           may cause significant error
 Rotational temperatures (Kelvin)      0.05801     0.02408     0.02067
 Rotational constants (GHZ):           1.20865     0.50169     0.43080
 Zero-point vibrational energy     857804.8 (Joules/Mol)
                                  205.02028 (Kcal/Mol)
 Warning -- explicit consideration of  19 degrees of freedom as
           vibrations may cause significant error
 Vibrational temperatures:     47.10   101.13   111.22   195.30   221.60
          (Kelvin)            252.81   308.78   314.05   353.14   371.58
                              412.81   467.82   522.75   599.37   630.63
                              639.25   672.41   773.23   835.36  1034.02
                             1087.43  1158.67  1171.61  1213.44  1246.40
                             1260.13  1297.22  1303.78  1334.42  1347.68
                             1355.02  1358.90  1371.57  1420.22  1466.57
                             1515.39  1524.91  1539.84  1554.94  1586.64
                             1597.52  1643.51  1645.10  1670.41  1695.99
                             1739.75  1750.19  1767.94  1779.14  1829.93
                             1841.09  1856.63  1867.33  1873.71  1883.20
                             1905.00  1945.26  1962.12  1977.63  1985.43
                             1994.86  2004.97  2015.70  2021.37  2039.98
                             2043.18  2082.95  2160.04  2176.29  2180.57
                             2181.83  2185.02  2191.42  2212.35  2218.42
                             2260.28  2437.05  4261.68  4293.30  4301.85
                             4316.93  4321.57  4335.12  4341.06  4347.43
                             4349.61  4359.91  4386.42  4391.14  4414.22
                             4414.99  4416.72  4424.26  4455.78  4462.04
                             4490.52  4540.09  4992.54  5120.93

 Zero-point correction=                           0.326721 (Hartree/Particle)
 Thermal correction to Energy=                    0.340024
 Thermal correction to Enthalpy=                  0.340968
 Thermal correction to Gibbs Free Energy=         0.286810
 Sum of electronic and zero-point Energies=           -541.612868
 Sum of electronic and thermal Energies=              -541.599565
 Sum of electronic and thermal Enthalpies=            -541.598621
 Sum of electronic and thermal Free Energies=         -541.652779

                     E (Thermal)             CV                S
                      KCal/Mol        Cal/Mol-Kelvin    Cal/Mol-Kelvin
 Total                  213.368             52.160            113.986
 Electronic               0.000              0.000              0.000
 Translational            0.889              2.981             41.506
 Rotational               0.889              2.981             31.487
 Vibrational            211.591             46.199             40.992
 Vibration     1          0.594              1.983              5.656
 Vibration     2          0.598              1.968              4.145
 Vibration     3          0.599              1.964              3.958
 Vibration     4          0.614              1.918              2.863
 Vibration     5          0.620              1.898              2.622
 Vibration     6          0.628              1.872              2.373
 Vibration     7          0.645              1.819              2.004
 Vibration     8          0.646              1.813              1.973
 Vibration     9          0.660              1.770              1.763
 Vibration    10          0.667              1.749              1.674
 Vibration    11          0.684              1.698              1.492
 Vibration    12          0.709              1.625              1.284
 Vibration    13          0.737              1.548              1.108
 Vibration    14          0.780              1.434              0.904
 Vibration    15          0.798              1.387              0.832
 Vibration    16          0.804              1.373              0.813
 Vibration    17          0.825              1.322              0.745
 Vibration    18          0.892              1.167              0.571
 Vibration    19          0.937              1.073              0.484

                           ! Non-Optimized Parameters !
 Normal termination of Gaussian 16 at Sun Dec 13 20:14:09 2020.

 ----------------------------------------------------------------------
 # B3LYP/6-311++G(d,p) empiricaldispersion=gd3bj scf=xqc pop=npa geom=c
 heck
 ----------------------------------------------------------------------

 ---------------------------------------
 CID_130648050_JID_3971_Energie_neutraal
 ---------------------------------------
 Structure from the checkpoint file:  "JID_3971.chk"
 Charge =  0 Multiplicity = 1

 SCF Done:  E(RB3LYP) =  -542.092626990     A.U. after   14 cycles
 Normal termination of Gaussian 16 at Sun Dec 13 20:19:14 2020.

 ----------------------------------------------------------------------
 # B3LYP/6-311++G(d,p) empiricaldispersion=gd3bj scf=xqc pop=npa geom=c
 heck
 ----------------------------------------------------------------------

 -------------------------------------
 CID_130648050_JID_3971_Energie_kation
 -------------------------------------
 Structure from the checkpoint file:  "JID_3971.chk"
 Charge =  1 Multiplicity = 2

 SCF Done:  E(UB3LYP) =  -541.820115010     A.U. after   18 cycles
 Normal termination of Gaussian 16 at Sun Dec 13 20:28:35 2020.
 Gaussian 16:  ES64L-G16RevA.03 25-Dec-2016

 ----------------------------------------------------------------------
 # B3LYP/6-311++G(d,p) empiricaldispersion=gd3bj scf=xqc pop=npa geom=c
 heck
 ----------------------------------------------------------------------

 ------------------------------------
 CID_130648050_JID_3971_Energie_anion
 ------------------------------------
 Structure from the checkpoint file:  "JID_3971.chk"
 Charge = -1 Multiplicity = 2

                         Standard orientation:
 ---------------------------------------------------------------------
 Center     Atomic      Atomic             Coordinates (Angstroms)
 Number     Number       Type             X           Y           Z
 ---------------------------------------------------------------------
      1          6           0       -3.430390   -0.894789   -0.145664
      2          6           0       -2.969727    0.166851   -1.151534
      3          6           0       -1.963557    1.139831   -0.524882
      4          6           0       -0.745874    0.405611    0.066042
      5          6           0       -1.225028   -0.645699    1.083585
      6          6           0       -2.229899   -1.626702    0.465352
      7          6           0        0.272962    1.385049    0.679752
      8          6           0        1.537091    0.707690    1.275750
      9          7           0        2.350125   -0.168448    0.458388
     10          6           0        2.092859   -1.586955    0.182780
     11          6           0        3.032283   -1.458481   -1.042856
     12          6           0        2.822770    0.070104   -0.908743
     13          7           0        0.581037    2.458761   -0.281737
     14          1           0       -4.111412   -1.610093   -0.623783
     15          1           0       -4.000039   -0.405971    0.658298
     16          1           0       -2.500375   -0.332969   -2.012240
     17          1           0       -3.832238    0.719270   -1.545079
     18          1           0       -2.454733    1.705223    0.281692
     19          1           0       -1.630652    1.880844   -1.255738
     20          1           0       -0.248099   -0.126762   -0.760670
     21          1           0       -1.699865   -0.123006    1.927753
     22          1           0       -0.381092   -1.204499    1.500555
     23          1           0       -2.564348   -2.347612    1.221884
     24          1           0       -1.724010   -2.209183   -0.319287
     25          1           0       -0.224698    1.880032    1.529434
     26          1           0        2.182660    1.523949    1.638870
     27          1           0        1.261003    0.130220    2.166923
     28          1           0        2.388575   -2.269488    0.990625
     29          1           0        1.062213   -1.830549   -0.120497
     30          1           0        2.698489   -1.922782   -1.973204
     31          1           0        4.057365   -1.763354   -0.821039
     32          1           0        2.055378    0.419587   -1.620784
     33          1           0        3.697527    0.729366   -0.990089
     34          1           0        1.272865    3.087506    0.124451
     35          1           0        1.016411    2.063028   -1.112132
 ---------------------------------------------------------------------

 SCF Done:  E(UB3LYP) =  -542.076312892     A.U. after   27 cycles

 The electronic state is 2-A.
 Alpha  occ. eigenvalues --  -14.19772 -14.18813 -10.09429 -10.09400 -10.09279
 Alpha  occ. eigenvalues --  -10.08880 -10.06963 -10.06891 -10.06400 -10.06350
 Alpha  occ. eigenvalues --  -10.06313 -10.06269 -10.05629  -0.84045  -0.78628
 Alpha  occ. eigenvalues --   -0.72955  -0.67317  -0.64725  -0.63956  -0.57686
 Alpha  occ. eigenvalues --   -0.57424  -0.52558  -0.50739  -0.47774  -0.45774
 Alpha  occ. eigenvalues --   -0.44714  -0.40374  -0.38686  -0.37891  -0.36497
 Alpha  occ. eigenvalues --   -0.35833  -0.34393  -0.33725  -0.33244  -0.32281
 Alpha  occ. eigenvalues --   -0.29722  -0.28674  -0.27811  -0.26890  -0.26476
 Alpha  occ. eigenvalues --   -0.25687  -0.24888  -0.24393  -0.24131  -0.22923
 Alpha  occ. eigenvalues --   -0.22629  -0.21622  -0.19963  -0.19712  -0.14931
 Alpha  occ. eigenvalues --   -0.10077   0.04523
 Alpha virt. eigenvalues --    0.06473   0.06880   0.07311   0.08445   0.08701
 Alpha virt. eigenvalues --    0.08930   0.09375   0.09968   0.11038   0.11203
 Alpha virt. eigenvalues --    0.11341   0.11591   0.12339   0.12929   0.13447

  Beta  occ. eigenvalues --  -14.19774 -14.18788 -10.09423 -10.09370 -10.09261
  Beta  occ. eigenvalues --  -10.08866 -10.06942 -10.06884 -10.06385 -10.06333
  Beta  occ. eigenvalues --  -10.06303 -10.06257 -10.05624  -0.84033  -0.78591
  Beta  occ. eigenvalues --   -0.72929  -0.67287  -0.64699  -0.63929  -0.57630
  Beta  occ. eigenvalues --   -0.57386  -0.52516  -0.50702  -0.47730  -0.45732
  Beta  occ. eigenvalues --   -0.44646  -0.40333  -0.38649  -0.37855  -0.36461
  Beta  occ. eigenvalues --   -0.35804  -0.34366  -0.33702  -0.33217  -0.32251
  Beta  occ. eigenvalues --   -0.29698  -0.28643  -0.27782  -0.26863  -0.26455
  Beta  occ. eigenvalues --   -0.25661  -0.24860  -0.24354  -0.24098  -0.22889
  Beta  occ. eigenvalues --   -0.22589  -0.21593  -0.19937  -0.19686  -0.14909
  Beta  occ. eigenvalues --   -0.10063
  Beta virt. eigenvalues --    0.06585   0.07279   0.07526   0.07897   0.08827
  Beta virt. eigenvalues --    0.09199   0.09366   0.09838   0.10300   0.11351
  Beta virt. eigenvalues --    0.11612   0.11743   0.11908   0.12540   0.13210

 Mulliken charges and spin densities:
               1          2
     1  C    0.272978  -0.760401
     2  C   -0.318486   0.018221
     3  C    0.552349  -0.738417
     4  C    0.120381  -0.294296
     5  C   -0.833420   0.497562
     6  C    0.476395  -0.796002
     7  C    0.441497  -0.179721
     8  C   -0.599683  -0.094389
     9  N    0.091016  -0.002644
    10  C   -0.412313   0.087819
    11  C    1.150792  -1.416592
    12  C    0.078190  -0.355130
    13  N   -0.364309   0.054684
    14  H   -0.217538   0.388170
    15  H    0.088266   0.018520
    16  H   -0.210088   0.341315
    17  H   -0.043940   0.213933
    18  H    0.031377   0.101422
    19  H    0.092272   0.078461
    20  H    0.620270  -0.482977
    21  H   -0.094771   0.251536
    22  H    0.106041   0.031511
    23  H   -0.329418   0.495148
    24  H   -0.134540   0.258158
    25  H    0.016307   0.160120
    26  H   -0.407469   0.600834
    27  H    0.001628   0.149895
    28  H   -0.556534   0.721367
    29  H    0.352326  -0.280544
    30  H   -0.513047   0.670667
    31  H    0.177887  -0.038559
    32  H   -0.023988   0.076461
    33  H   -0.696498   0.866767
    34  H    0.025027   0.206914
    35  H    0.061047   0.150185
 Sum of Mulliken charges =  -1.00000   1.00000

 Dipole moment (field-independent basis, Debye):
    X=             -2.2574    Y=              0.8549    Z=              1.3025  Tot=              2.7429
 Quadrupole moment (field-independent basis, Debye-Ang):
   XX=           -153.9641   YY=           -134.3696   ZZ=           -121.6992
   XY=             -8.4936   XZ=             -0.6617   YZ=              1.2582

 Summary of Natural Population Analysis:

                                       Natural Population
                Natural  -----------------------------------------------
    Atom  No    Charge         Core      Valence    Rydberg      Total
 -----------------------------------------------------------------------
      C    1   -0.18891      0.99963     2.18117    0.00811     3.18891
      C    2   -0.18929      0.99963     2.18141    0.00825     3.18929
      C    3   -0.18718      0.99961     2.17974    0.00783     3.18718
      C    4   -0.11544      0.99957     2.10590    0.00998     3.11544
      C    5   -0.18986      0.99961     2.18143    0.00882     3.18986
      C    6   -0.18860      0.99963     2.18011    0.00886     3.18860
      C    7   -0.01538      0.99957     2.00282    0.01299     3.01538
      C    8   -0.08546      0.99958     2.07270    0.01318     3.08546
      N    9   -0.28976      0.99972     2.77431    0.01573     3.78976
      C   10   -0.07359      0.99964     2.06367    0.01028     3.07359
      C   11   -0.19075      0.99962     2.18416    0.00696     3.19075
      C   12   -0.07331      0.99964     2.06274    0.01094     3.07331
      N   13   -0.42333      0.99977     2.91323    0.01033     3.92333
      H   14    0.09781      0.00000     0.40111    0.00109     0.40219
      H   15    0.08999      0.00000     0.40883    0.00118     0.41001
      H   16    0.09352      0.00000     0.40508    0.00140     0.40648
      H   17    0.09584      0.00000     0.40331    0.00085     0.40416
      H   18    0.09100      0.00000     0.40775    0.00125     0.40900
      H   19    0.10938      0.00000     0.38931    0.00131     0.39062
      H   20    0.09399      0.00000     0.40294    0.00307     0.40601
      H   21    0.09247      0.00000     0.40613    0.00140     0.40753
      H   22    0.10095      0.00000     0.39767    0.00138     0.39905
      H   23    0.09817      0.00000     0.40073    0.00110     0.40183
      H   24    0.09392      0.00000     0.40442    0.00166     0.40608
      H   25    0.08653      0.00000     0.41184    0.00164     0.41347
      H   26    0.09246      0.00000     0.40606    0.00148     0.40754
      H   27    0.09765      0.00000     0.40112    0.00123     0.40235
      H   28    0.08795      0.00000     0.41035    0.00170     0.41205
      H   29    0.08169      0.00000     0.41621    0.00210     0.41831
      H   30    0.09663      0.00000     0.40204    0.00132     0.40337
      H   31    0.09712      0.00000     0.40147    0.00141     0.40288
      H   32    0.07516      0.00000     0.42255    0.00229     0.42484
      H   33    0.09095      0.00000     0.40699    0.00206     0.40905
      H   34    0.17475      0.00000     0.32316    0.00209     0.32525
      H   35    0.17296      0.00000     0.32480    0.00224     0.32704
 =======================================================================
   * Total *    0.00000     12.99522    37.83727    0.16751    51.00000

 Normal termination of Gaussian 16 at Sun Dec 13 20:42:11 2020.
