 Gaussian 16, Revision A.03,

 -----------------------------------------------------------
 # opt freq B3LYP/6-31G(d) empiricaldispersion=gd3bj scf=xqc
 -----------------------------------------------------------

 -------------------------------
 CID_44008914_JID_10923_neutraal
 -------------------------------
 Symbolic Z-matrix:
 Charge =  0 Multiplicity = 1

 SCF Done:  E(RB3LYP) =  -1288.80611710     A.U. after   15 cycles
 SCF Done:  E(RB3LYP) =  -1288.81339993     A.U. after   12 cycles
 SCF Done:  E(RB3LYP) =  -1288.81385140     A.U. after   12 cycles
 SCF Done:  E(RB3LYP) =  -1288.81447884     A.U. after   12 cycles
 SCF Done:  E(RB3LYP) =  -1288.81478444     A.U. after   11 cycles
 SCF Done:  E(RB3LYP) =  -1288.81483210     A.U. after   11 cycles
 SCF Done:  E(RB3LYP) =  -1288.81486324     A.U. after   10 cycles
 SCF Done:  E(RB3LYP) =  -1288.81489499     A.U. after   11 cycles
 SCF Done:  E(RB3LYP) =  -1288.81504915     A.U. after   12 cycles
 SCF Done:  E(RB3LYP) =  -1288.81502020     A.U. after   13 cycles
 SCF Done:  E(RB3LYP) =  -1288.81578559     A.U. after    8 cycles
 SCF Done:  E(RB3LYP) =  -1288.81578569     A.U. after    8 cycles
 SCF Done:  E(RB3LYP) =  -1288.81578573     A.U. after    8 cycles
 SCF Done:  E(RB3LYP) =  -1288.81578574     A.U. after    7 cycles
 Optimization completed.
    -- Stationary point found.
 Normal termination of Gaussian 16 at Sat Dec 12 16:52:37 2020.

 --------------------------------------------------------------------
 #N Geom=AllCheck Guess=TCheck SCRF=Check GenChk RB3LYP/6-31G(d) Freq
 --------------------------------------------------------------------

 Structure from the checkpoint file:  "JID_10923.chk"
 -------------------------------
 CID_44008914_JID_10923_neutraal
 -------------------------------
 Charge =  0 Multiplicity = 1

 SCF Done:  E(RB3LYP) =  -1288.81578574     A.U. after    1 cycles

  Exact polarizability: 221.494 -10.538 201.652 -14.382   2.602 105.362
 Approx polarizability: 327.755 -10.833 328.687 -34.873   2.031 168.665

                      1                      2                      3
                      A                      A                      A
 Frequencies --     13.8627                47.9295                52.8812
 Red. masses --      5.8055                 5.9790                 3.7267
 Frc consts  --      0.0007                 0.0081                 0.0061
 IR Inten    --      1.6459                 0.0782                 0.1468

                      4                      5                      6
                      A                      A                      A
 Frequencies --     58.1882                67.5475               107.0481
 Red. masses --      5.1897                 5.7419                 3.3168
 Frc consts  --      0.0104                 0.0154                 0.0224
 IR Inten    --      1.6108                 2.4900                 1.8383

                      7                      8                      9
                      A                      A                      A
 Frequencies --    127.1197               141.7377               158.5661
 Red. masses --      5.6853                 2.9187                 3.3469
 Frc consts  --      0.0541                 0.0345                 0.0496
 IR Inten    --      0.7849                 4.0240                 1.7929

                     10                     11                     12
                      A                      A                      A
 Frequencies --    188.6715               205.3297               234.9750
 Red. masses --      6.2920                 7.2060                 2.4238
 Frc consts  --      0.1320                 0.1790                 0.0788
 IR Inten    --      0.3147                 2.7288                 6.0545

                     13                     14                     15
                      A                      A                      A
 Frequencies --    250.3527               262.2192               308.2398
 Red. masses --      1.4877                 4.6275                 5.4673
 Frc consts  --      0.0549                 0.1875                 0.3061
 IR Inten    --      1.3938                 2.2162                 2.7826

                     16                     17                     18
                      A                      A                      A
 Frequencies --    334.9794               337.3761               346.0775
 Red. masses --      2.6751                 8.8634                 6.8008
 Frc consts  --      0.1769                 0.5944                 0.4799
 IR Inten    --      2.4605                 1.8371                 3.5251

                     19                     20                     21
                      A                      A                      A
 Frequencies --    397.1183               423.8099               463.3301
 Red. masses --     10.9153                 2.5248                 2.5166
 Frc consts  --      1.0142                 0.2672                 0.3183
 IR Inten    --      1.1334                 1.3496                 2.1965

                     22                     23                     24
                      A                      A                      A
 Frequencies --    469.3102               511.5026               518.9024
 Red. masses --      6.2292                 2.4282                 1.4323
 Frc consts  --      0.8084                 0.3743                 0.2272
 IR Inten    --     11.9644                 5.5655                70.5386

                     25                     26                     27
                      A                      A                      A
 Frequencies --    570.8099               575.7697               594.3955
 Red. masses --      1.9516                 6.0843                 9.0136
 Frc consts  --      0.3746                 1.1884                 1.8763
 IR Inten    --     57.6432                 2.2653                 7.0900

                     28                     29                     30
                      A                      A                      A
 Frequencies --    617.2267               656.3744               672.9817
 Red. masses --      2.2718                 7.1876                 3.9436
 Frc consts  --      0.5099                 1.8245                 1.0523
 IR Inten    --     27.4876                17.4328                 9.5935

                     31                     32                     33
                      A                      A                      A
 Frequencies --    688.6914               705.6049               712.2803
 Red. masses --      4.4729                 6.4524                 3.5365
 Frc consts  --      1.2499                 1.8928                 1.0571
 IR Inten    --     33.2046                18.7568                19.5452

                     34                     35                     36
                      A                      A                      A
 Frequencies --    752.1409               767.6276               778.6727
 Red. masses --      8.6702                 2.8744                 6.6175
 Frc consts  --      2.8899                 0.9979                 2.3640
 IR Inten    --     17.4942                 5.1523                19.5479

                     37                     38                     39
                      A                      A                      A
 Frequencies --    793.8455               853.1325               872.0526
 Red. masses --      1.7615                 3.3806                 2.8262
 Frc consts  --      0.6540                 1.4497                 1.2663
 IR Inten    --     11.9196                 8.2382                 0.5351

                     40                     41                     42
                      A                      A                      A
 Frequencies --    885.1641               890.8966               897.3725
 Red. masses --      1.3540                 2.6416                 3.1676
 Frc consts  --      0.6251                 1.2353                 1.5029
 IR Inten    --     10.2180                13.1145                 3.3809

                     43                     44                     45
                      A                      A                      A
 Frequencies --    921.5091               941.1469               965.4351
 Red. masses --      1.5203                 2.0826                 3.8193
 Frc consts  --      0.7606                 1.0869                 2.0974
 IR Inten    --      7.5544                 0.5852                49.0490

                     46                     47                     48
                      A                      A                      A
 Frequencies --   1025.4943              1032.1770              1052.1795
 Red. masses --      1.6485                 3.2739                 1.8313
 Frc consts  --      1.0214                 2.0551                 1.1945
 IR Inten    --      4.8352                15.2027                 6.5927

                     49                     50                     51
                      A                      A                      A
 Frequencies --   1078.4806              1094.8891              1099.1214
 Red. masses --      2.4764                 2.8729                 3.3019
 Frc consts  --      1.6971                 2.0291                 2.3502
 IR Inten    --     18.4069                 2.1585                14.1184

                     52                     53                     54
                      A                      A                      A
 Frequencies --   1134.6758              1179.3840              1184.8281
 Red. masses --      1.7506                 4.1113                 1.5302
 Frc consts  --      1.3280                 3.3693                 1.2656
 IR Inten    --      8.2031                87.7769                13.6080

                     55                     56                     57
                      A                      A                      A
 Frequencies --   1188.9367              1217.2601              1243.1901
 Red. masses --      1.6853                 2.2581                 1.5649
 Frc consts  --      1.4036                 1.9713                 1.4250
 IR Inten    --      8.5974                 1.4422                 9.3863

                     58                     59                     60
                      A                      A                      A
 Frequencies --   1252.9888              1273.9563              1293.0283
 Red. masses --      3.9812                 2.3096                 1.4191
 Frc consts  --      3.6826                 2.2085                 1.3979
 IR Inten    --     68.3858                34.6132                11.8960

                     61                     62                     63
                      A                      A                      A
 Frequencies --   1309.9397              1321.9830              1324.3661
 Red. masses --      1.3758                 1.2093                 1.4177
 Frc consts  --      1.3909                 1.2452                 1.4651
 IR Inten    --     11.8344                 0.8043                19.7219

                     64                     65                     66
                      A                      A                      A
 Frequencies --   1345.8030              1376.1980              1396.2299
 Red. masses --      1.8916                 2.0783                 1.3174
 Frc consts  --      2.0186                 2.3191                 1.5131
 IR Inten    --     13.7708               129.0864                17.8485

                     67                     68                     69
                      A                      A                      A
 Frequencies --   1408.6907              1418.2238              1435.3122
 Red. masses --      1.3973                 1.3861                 6.7447
 Frc consts  --      1.6337                 1.6426                 8.1867
 IR Inten    --     24.3917                14.0460                 6.9419

                     70                     71                     72
                      A                      A                      A
 Frequencies --   1438.0981              1450.2318              1465.3963
 Red. masses --      1.4915                 1.4243                 4.8631
 Frc consts  --      1.8175                 1.7650                 6.1528
 IR Inten    --     78.0734                25.2654                14.7559

                     73                     74                     75
                      A                      A                      A
 Frequencies --   1494.9481              1515.0807              1520.3207
 Red. masses --      1.6519                 1.2555                 1.0901
 Frc consts  --      2.1752                 1.6980                 1.4845
 IR Inten    --     58.4823                32.7033                11.6743

                     76                     77                     78
                      A                      A                      A
 Frequencies --   1522.9292              1527.3288              1536.7778
 Red. masses --      1.0651                 1.0993                 1.0891
 Frc consts  --      1.4554                 1.5109                 1.5154
 IR Inten    --      7.6210                 7.9829                15.3595

                     79                     80                     81
                      A                      A                      A
 Frequencies --   1541.1755              1546.3922              1605.5451
 Red. masses --      1.0670                 6.8792                 6.5382
 Frc consts  --      1.4932                 9.6923                 9.9301
 IR Inten    --      5.0041                64.6062               396.9616

                     82                     83                     84
                      A                      A                      A
 Frequencies --   1610.9393              1763.5921              1783.7617
 Red. masses --      6.8805                 7.2166                12.6058
 Frc consts  --     10.5203                13.2245                23.6317
 IR Inten    --    182.3883               305.8595               589.2881

                     85                     86                     87
                      A                      A                      A
 Frequencies --   3042.9780              3050.6972              3066.7732
 Red. masses --      1.0390                 1.0677                 1.0626
 Frc consts  --      5.6683                 5.8544                 5.8883
 IR Inten    --     30.8475                15.1306                41.6656

                     88                     89                     90
                      A                      A                      A
 Frequencies --   3080.5561              3096.6257              3101.5312
 Red. masses --      1.0685                 1.0960                 1.0649
 Frc consts  --      5.9741                 6.1918                 6.0354
 IR Inten    --      3.3097                15.8562                12.4777

                     91                     92                     93
                      A                      A                      A
 Frequencies --   3106.8215              3121.5906              3123.9690
 Red. masses --      1.1032                 1.1009                 1.0841
 Frc consts  --      6.2736                 6.3202                 6.2336
 IR Inten    --     20.6676                35.7709                 8.6942

                     94                     95                     96
                      A                      A                      A
 Frequencies --   3124.5673              3170.1431              3187.0561
 Red. masses --      1.1006                 1.0951                 1.1046
 Frc consts  --      6.3309                 6.4844                 6.6108
 IR Inten    --     24.2663                 4.7127                17.8830

                     97                     98                     99
                      A                      A                      A
 Frequencies --   3276.0503              3593.8619              3665.4221
 Red. masses --      1.0967                 1.0759                 1.0815
 Frc consts  --      6.9352                 8.1870                 8.5607
 IR Inten    --      3.6289                26.0530               107.5535

 - Thermochemistry -
 -------------------
 Temperature   298.150 Kelvin.  Pressure   1.00000 Atm.
 Atom     1 has atomic number  6 and mass  12.00000

 Molecular mass:   293.09465 amu.
 Principal axes and moments of inertia in atomic units:
                           1         2         3
     Eigenvalues --  3684.902698470.13831**********
           X            0.99958   0.02861  -0.00339
           Y           -0.02861   0.99959   0.00112
           Z            0.00342  -0.00103   0.99999
 This molecule is an asymmetric top.
 Rotational symmetry number  1.
 Warning -- assumption of classical behavior for rotation
           may cause significant error
 Rotational temperatures (Kelvin)      0.02351     0.01023     0.00762
 Rotational constants (GHZ):           0.48977     0.21307     0.15873
 Zero-point vibrational energy     735456.4 (Joules/Mol)
                                  175.77829 (Kcal/Mol)
 Warning -- explicit consideration of  28 degrees of freedom as
           vibrations may cause significant error
 Vibrational temperatures:     19.95    68.96    76.08    83.72    97.19
          (Kelvin)            154.02   182.90   203.93   228.14   271.46
                              295.42   338.08   360.20   377.27   443.49
                              481.96   485.41   497.93   571.36   609.77
                              666.63   675.23   735.94   746.58   821.27
                              828.40   855.20   888.05   944.38   968.27
                              990.87  1015.21  1024.81  1082.16  1104.44
                             1120.34  1142.17  1227.47  1254.69  1273.55
                             1281.80  1291.12  1325.85  1354.10  1389.05
                             1475.46  1485.07  1513.85  1551.69  1575.30
                             1581.39  1632.55  1696.87  1704.70  1710.61
                             1751.37  1788.67  1802.77  1832.94  1860.38
                             1884.71  1902.04  1905.47  1936.31  1980.04
                             2008.86  2026.79  2040.51  2065.09  2069.10
                             2086.56  2108.38  2150.90  2179.86  2187.40
                             2191.16  2197.49  2211.08  2217.41  2224.91
                             2310.02  2317.78  2537.42  2566.44  4378.17
                             4389.27  4412.40  4432.23  4455.35  4462.41
                             4470.02  4491.27  4494.69  4495.56  4561.13
                             4585.46  4713.51  5170.77  5273.72

 Zero-point correction=                           0.280121 (Hartree/Particle)
 Thermal correction to Energy=                    0.297979
 Thermal correction to Enthalpy=                  0.298923
 Thermal correction to Gibbs Free Energy=         0.232254
 Sum of electronic and zero-point Energies=          -1288.535665
 Sum of electronic and thermal Energies=             -1288.517806
 Sum of electronic and thermal Enthalpies=           -1288.516862
 Sum of electronic and thermal Free Energies=        -1288.583532

                     E (Thermal)             CV                S
                      KCal/Mol        Cal/Mol-Kelvin    Cal/Mol-Kelvin
 Total                  186.985             67.851            140.317
 Electronic               0.000              0.000              0.000
 Translational            0.889              2.981             42.923
 Rotational               0.889              2.981             34.228
 Vibrational            185.207             61.889             63.166
 Vibration     1          0.593              1.986              7.362
 Vibration     2          0.595              1.978              4.901
 Vibration     3          0.596              1.976              4.707
 Vibration     4          0.596              1.974              4.518
 Vibration     5          0.598              1.970              4.224
 Vibration     6          0.606              1.944              3.322
 Vibration     7          0.611              1.926              2.989
 Vibration     8          0.615              1.912              2.780
 Vibration     9          0.621              1.893              2.567
 Vibration    10          0.633              1.855              2.241
 Vibration    11          0.640              1.832              2.085
 Vibration    12          0.655              1.787              1.841
 Vibration    13          0.663              1.762              1.728
 Vibration    14          0.670              1.742              1.647
 Vibration    15          0.698              1.658              1.372
 Vibration    16          0.716              1.606              1.236
 Vibration    17          0.718              1.601              1.225
 Vibration    18          0.724              1.583              1.184
 Vibration    19          0.764              1.476              0.973
 Vibration    20          0.786              1.418              0.879
 Vibration    21          0.821              1.331              0.756
 Vibration    22          0.826              1.318              0.739
 Vibration    23          0.867              1.225              0.630
 Vibration    24          0.874              1.208              0.613
 Vibration    25          0.927              1.094              0.503
 Vibration    26          0.932              1.084              0.493
 Vibration    27          0.952              1.044              0.459
 Vibration    28          0.977              0.995              0.421

 Optimization completed.
    -- Stationary point found.
 Normal termination of Gaussian 16 at Sat Dec 12 17:10:45 2020.

 ----------------------------------------------------------------------
 # B3LYP/6-311++G(d,p) empiricaldispersion=gd3bj scf=xqc pop=npa geom=c
 heck
 ----------------------------------------------------------------------

 ---------------------------------------
 CID_44008914_JID_10923_Energie_neutraal
 ---------------------------------------
 Structure from the checkpoint file:  "JID_10923.chk"
 Charge =  0 Multiplicity = 1

 SCF Done:  E(RB3LYP) =  -1289.08955952     A.U. after   17 cycles
 Normal termination of Gaussian 16 at Sat Dec 12 17:18:12 2020.

 ----------------------------------------------------------------------
 # B3LYP/6-311++G(d,p) empiricaldispersion=gd3bj scf=xqc pop=npa geom=c
 heck
 ----------------------------------------------------------------------

 -------------------------------------
 CID_44008914_JID_10923_Energie_kation
 -------------------------------------
 Structure from the checkpoint file:  "JID_10923.chk"
 Charge =  1 Multiplicity = 2

 SCF Done:  E(UB3LYP) =  -1288.78765417     A.U. after   33 cycles
 SCF Done:  E(UB3LYP) =  -1288.78765417     a.u. after    1 cycles
 Normal termination of Gaussian 16 at Sat Dec 12 17:38:12 2020.
 Gaussian 16:  ES64L-G16RevA.03 25-Dec-2016

 ----------------------------------------------------------------------
 # B3LYP/6-311++G(d,p) empiricaldispersion=gd3bj scf=xqc pop=npa geom=c
 heck
 ----------------------------------------------------------------------

 ------------------------------------
 CID_44008914_JID_10923_Energie_anion
 ------------------------------------
 Structure from the checkpoint file:  "JID_10923.chk"
 Charge = -1 Multiplicity = 2

                         Standard orientation:
 ---------------------------------------------------------------------
 Center     Atomic      Atomic             Coordinates (Angstroms)
 Number     Number       Type             X           Y           Z
 ---------------------------------------------------------------------
      1          6           0       -4.276629   -2.201042    1.175560
      2          6           0       -3.215540   -2.270290    0.075904
      3          6           0       -3.556059   -1.403011   -1.143179
      4          7           0       -3.765947    0.012212   -0.836072
      5          6           0       -2.850865    0.985695   -0.574648
      6          8           0       -3.206002    2.104717   -0.202248
      7          6           0       -1.375310    0.657104   -0.763985
      8          6           0       -0.589589    0.874078    0.544867
      9          6           0       -0.453710    2.345617    0.954305
     10         16           0        1.051471    2.964948    0.093789
     11          6           0        1.732459    1.336884    0.070233
     12          7           0        2.980711    1.106228   -0.220896
     13          6           0        3.281928   -0.220642   -0.196403
     14          6           0        2.425489   -1.289902    0.107690
     15          6           0        3.236163   -2.449363   -0.004378
     16          7           0        4.479512   -2.137485   -0.342579
     17          7           0        4.488376   -0.774575   -0.455811
     18          6           0        1.047587   -1.022011    0.408676
     19          8           0        0.143549   -1.813316    0.653329
     20          7           0        0.787433    0.381352    0.382760
     21          1           0       -4.379935   -1.180988    1.562824
     22          1           0       -4.010353   -2.848919    2.016767
     23          1           0       -5.259570   -2.520565    0.805866
     24          1           0       -2.236251   -1.979333    0.470948
     25          1           0       -3.106144   -3.305139   -0.274684
     26          1           0       -2.778296   -1.495040   -1.907509
     27          1           0       -4.485126   -1.755379   -1.605067
     28          1           0       -4.712773    0.312220   -0.637518
     29          1           0       -1.211774   -0.369417   -1.089327
     30          1           0       -0.978495    1.330405   -1.532101
     31          1           0       -1.053461    0.295460    1.346277
     32          1           0       -1.331797    2.908952    0.640561
     33          1           0       -0.304811    2.444307    2.032213
     34          1           0        2.957466   -3.482440    0.149344
     35          1           0        5.341264   -0.297327   -0.707540
 ---------------------------------------------------------------------

 SCF Done:  E(UB3LYP) =  -1289.08712402     A.U. after   33 cycles
 SCF Done:  E(UB3LYP) =  -1289.08712402     a.u. after    1 cycles

 The electronic state is 2-A.
 Alpha  occ. eigenvalues --  -88.76045 -18.99992 -18.98968 -14.27398 -14.26488
 Alpha  occ. eigenvalues --  -14.24958 -14.22406 -14.19899 -10.18769 -10.17676
 Alpha  occ. eigenvalues --  -10.15142 -10.14112 -10.13817 -10.11880 -10.11274
 Alpha  occ. eigenvalues --  -10.09335 -10.09333 -10.07263 -10.06903 -10.06555
 Alpha  occ. eigenvalues --   -7.84669  -5.81030  -5.80695  -5.80079  -0.95210
 Alpha  occ. eigenvalues --   -0.95035  -0.93974  -0.88900  -0.83585  -0.81650
 Alpha  occ. eigenvalues --   -0.72887  -0.71887  -0.69260  -0.68739  -0.66953
 Alpha  occ. eigenvalues --   -0.61378  -0.60233  -0.57047  -0.52674  -0.52106
 Alpha  occ. eigenvalues --   -0.51411  -0.50501  -0.47932  -0.45841  -0.42267
 Alpha  occ. eigenvalues --   -0.41307  -0.39938  -0.39487  -0.38856  -0.37056
 Alpha  occ. eigenvalues --   -0.36239  -0.36012  -0.35175  -0.33893  -0.33308
 Alpha  occ. eigenvalues --   -0.32241  -0.31640  -0.31479  -0.31248  -0.30702
 Alpha  occ. eigenvalues --   -0.29960  -0.29175  -0.28087  -0.27569  -0.26308
 Alpha  occ. eigenvalues --   -0.25866  -0.24671  -0.24286  -0.20050  -0.19708
 Alpha  occ. eigenvalues --   -0.18232  -0.17422  -0.16984  -0.16625  -0.16477
 Alpha  occ. eigenvalues --   -0.15644  -0.12073   0.04114
 Alpha virt. eigenvalues --    0.05192   0.07682   0.07895   0.08062   0.08212
 Alpha virt. eigenvalues --    0.08471   0.09276   0.09712   0.09909   0.10064
 Alpha virt. eigenvalues --    0.10486   0.11158   0.11575   0.12060   0.12573

  Beta  occ. eigenvalues --  -88.76041 -18.99990 -18.98933 -14.27264 -14.26478
  Beta  occ. eigenvalues --  -14.24946 -14.22143 -14.19813 -10.18769 -10.17620
  Beta  occ. eigenvalues --  -10.14639 -10.14111 -10.13787 -10.11852 -10.11265
  Beta  occ. eigenvalues --  -10.09361 -10.09333 -10.07256 -10.06880 -10.06523
  Beta  occ. eigenvalues --   -7.84665  -5.81039  -5.80703  -5.80041  -0.95165
  Beta  occ. eigenvalues --   -0.94879  -0.93762  -0.88606  -0.83560  -0.81434
  Beta  occ. eigenvalues --   -0.72776  -0.71616  -0.69155  -0.68640  -0.66829
  Beta  occ. eigenvalues --   -0.61243  -0.60159  -0.56905  -0.52592  -0.51824
  Beta  occ. eigenvalues --   -0.51338  -0.50435  -0.47872  -0.45648  -0.42179
  Beta  occ. eigenvalues --   -0.41254  -0.39836  -0.39399  -0.38665  -0.37006
  Beta  occ. eigenvalues --   -0.36135  -0.35575  -0.35152  -0.33800  -0.33145
  Beta  occ. eigenvalues --   -0.32167  -0.31485  -0.31236  -0.31097  -0.30617
  Beta  occ. eigenvalues --   -0.29805  -0.29111  -0.27772  -0.26764  -0.26271
  Beta  occ. eigenvalues --   -0.25834  -0.24616  -0.24195  -0.19715  -0.19054
  Beta  occ. eigenvalues --   -0.18045  -0.17351  -0.16947  -0.16469  -0.16151
  Beta  occ. eigenvalues --   -0.15335  -0.11213
  Beta virt. eigenvalues --    0.06406   0.07841   0.07968   0.08246   0.08401
  Beta virt. eigenvalues --    0.08689   0.08889   0.09524   0.09886   0.09984
  Beta virt. eigenvalues --    0.10142   0.10565   0.11372   0.11779   0.12144

 Mulliken charges and spin densities:
               1          2
     1  C    0.302348  -0.935855
     2  C   -0.606200   0.487882
     3  C    0.573687  -0.921200
     4  N   -0.239664   0.054896
     5  C   -0.354030   0.062875
     6  O   -0.353154   0.007073
     7  C    0.437345  -0.269184
     8  C   -0.189559   0.084461
     9  C   -0.990841  -0.007269
    10  S   -0.240929   0.046666
    11  C   -0.158319   0.249772
    12  N   -0.128447   0.035946
    13  C    0.478616  -0.000486
    14  C    0.276777   0.040828
    15  C   -0.587995   0.006535
    16  N   -0.192820   0.116931
    17  N   -0.183095   0.047231
    18  C   -0.076172   0.021361
    19  O   -0.332916   0.017127
    20  N    0.356746  -0.012076
    21  H    0.123705   0.042249
    22  H   -0.007426   0.138669
    23  H   -0.239226   0.382613
    24  H    0.458968  -0.197111
    25  H   -0.075734   0.222694
    26  H    0.030766   0.136471
    27  H   -0.751292   0.945965
    28  H    0.063039   0.252433
    29  H    0.267062  -0.084943
    30  H    0.193569  -0.004058
    31  H    0.216883   0.025679
    32  H    0.249585  -0.002111
    33  H    0.219319   0.003320
    34  H    0.156228   0.007671
    35  H    0.303178  -0.003060
 Sum of Mulliken charges =  -1.00000   1.00000

 Dipole moment (field-independent basis, Debye):
    X=              3.6824    Y=              3.1458    Z=              1.4158  Tot=              5.0459
 Quadrupole moment (field-independent basis, Debye-Ang):
   XX=           -221.6308   YY=           -174.2948   ZZ=           -140.1921
   XY=             -4.8395   XZ=             -8.4250   YZ=             -0.7606

 Summary of Natural Population Analysis:

                                       Natural Population
                Natural  -----------------------------------------------
    Atom  No    Charge         Core      Valence    Rydberg      Total
 -----------------------------------------------------------------------
      C    1   -0.28875      0.99967     2.28393    0.00516     3.28875
      C    2   -0.20645      0.99963     2.19824    0.00858     3.20645
      C    3   -0.08913      0.99961     2.07769    0.01183     3.08913
      N    4   -0.31273      0.99966     2.80233    0.01073     3.81273
      C    5    0.34231      0.99966     1.63424    0.02378     2.65769
      O    6   -0.33585      0.99988     3.33049    0.00548     4.33585
      C    7   -0.24378      0.99956     2.23420    0.01002     3.24378
      C    8   -0.00093      0.99959     1.99032    0.01102     3.00093
      C    9   -0.24811      0.99956     2.24017    0.00838     3.24811
      S   10    0.12581      4.99956     2.85624    0.01839     7.87419
      C   11    0.24464      0.99958     1.73724    0.01854     2.75536
      N   12   -0.27622      0.99961     2.76496    0.01166     3.77622
      C   13    0.19678      0.99949     1.78918    0.01455     2.80322
      C   14   -0.14027      0.99942     2.13144    0.00942     3.14027
      C   15   -0.00437      0.99963     1.98973    0.01501     3.00437
      N   16   -0.12122      0.99974     2.60770    0.01379     3.62122
      N   17   -0.16655      0.99965     2.65489    0.01202     3.66655
      C   18    0.34376      0.99958     1.63648    0.02018     2.65624
      O   19   -0.32850      0.99988     3.32345    0.00517     4.32850
      N   20   -0.25473      0.99959     2.74322    0.01193     3.75473
      H   21    0.09607      0.00000     0.40293    0.00100     0.40393
      H   22    0.09964      0.00000     0.39970    0.00066     0.40036
      H   23    0.09714      0.00000     0.40155    0.00131     0.40286
      H   24    0.11377      0.00000     0.38446    0.00177     0.38623
      H   25    0.09763      0.00000     0.40139    0.00099     0.40237
      H   26    0.09729      0.00000     0.40166    0.00104     0.40271
      H   27    0.10168      0.00000     0.39537    0.00295     0.39832
      H   28    0.19597      0.00000     0.30174    0.00229     0.30403
      H   29    0.11488      0.00000     0.38382    0.00130     0.38512
      H   30    0.11533      0.00000     0.38341    0.00125     0.38467
      H   31    0.11235      0.00000     0.38616    0.00148     0.38765
      H   32    0.12893      0.00000     0.37004    0.00103     0.37107
      H   33    0.10073      0.00000     0.39815    0.00112     0.39927
      H   34    0.09891      0.00000     0.40010    0.00099     0.40109
      H   35    0.19397      0.00000     0.30390    0.00213     0.30603
 =======================================================================
   * Total *   -0.00000     23.99254    52.74053    0.26693    77.00000

 Normal termination of Gaussian 16 at Sat Dec 12 17:58:45 2020.
