 Gaussian 16, Revision A.03,

 -----------------------------------------------------------
 # opt freq B3LYP/6-31G(d) empiricaldispersion=gd3bj scf=xqc
 -----------------------------------------------------------

 ------------------------------
 CID_86276623_JID_1934_neutraal
 ------------------------------
 Symbolic Z-matrix:
 Charge =  0 Multiplicity = 1

 SCF Done:  E(RB3LYP) =  -476.924057535     A.U. after   14 cycles
 SCF Done:  E(RB3LYP) =  -476.933247166     A.U. after   12 cycles
 SCF Done:  E(RB3LYP) =  -476.934604965     A.U. after   11 cycles
 SCF Done:  E(RB3LYP) =  -476.935452329     A.U. after   12 cycles
 SCF Done:  E(RB3LYP) =  -476.935648929     A.U. after   10 cycles
 SCF Done:  E(RB3LYP) =  -476.935737934     A.U. after   11 cycles
 SCF Done:  E(RB3LYP) =  -476.935760366     A.U. after    9 cycles
 SCF Done:  E(RB3LYP) =  -476.935777950     A.U. after   10 cycles
 SCF Done:  E(RB3LYP) =  -476.935793487     A.U. after   10 cycles
 SCF Done:  E(RB3LYP) =  -476.935802285     A.U. after    9 cycles
 SCF Done:  E(RB3LYP) =  -476.935808623     A.U. after    8 cycles
 SCF Done:  E(RB3LYP) =  -476.935808096     A.U. after    7 cycles
 SCF Done:  E(RB3LYP) =  -476.935809904     A.U. after    8 cycles
 SCF Done:  E(RB3LYP) =  -476.935807898     A.U. after    8 cycles
 SCF Done:  E(RB3LYP) =  -476.935807799     A.U. after    7 cycles
 SCF Done:  E(RB3LYP) =  -476.935807738     A.U. after    7 cycles
 Optimization completed.
    -- Stationary point found.

 1\1\GINC-NODE357\FOpt\RB3LYP\6-31G(d)\C8H13N3\VSC10255\08-Dec-2020\0\\
 # opt freq B3LYP/6-31G(d) empiricaldispersion=gd3bj scf=xqc\\CID_86276
 623_JID_1934_neutraal\\0,1\C,0.2514731966,1.0106581903,-0.1987120841\C
 ,0.9535929244,-0.3665697814,-0.0601659119\C,-0.3820843377,-1.040309396
 2,-0.4772311829\C,-1.1161062862,0.2802929274,-0.1255976918\C,-0.803407
 7114,-2.3123920513,0.2460619628\N,-2.1618950277,-2.7124862915,-0.08236
 63425\C,-2.590900307,-3.2539072666,-1.2910415413\C,-3.9634244031,-3.34
 11598431,-1.1809774144\N,-4.3808519255,-2.8668896363,0.0403881639\C,-3

 Normal termination of Gaussian 16 at Tue Dec  8 21:36:37 2020.

 --------------------------------------------------------------------
 #N Geom=AllCheck Guess=TCheck SCRF=Check GenChk RB3LYP/6-31G(d) Freq
 --------------------------------------------------------------------

 Structure from the checkpoint file:  "JID_1934.chk"
 ------------------------------
 CID_86276623_JID_1934_neutraal
 ------------------------------
 Charge =  0 Multiplicity = 1

 SCF Done:  E(RB3LYP) =  -476.935807738     A.U. after    1 cycles

  Exact polarizability: 123.537  -2.680  91.641  13.627   4.911  76.350
 Approx polarizability: 158.504  -8.909 151.262  23.993  11.112 112.399

                      1                      2                      3
                      A                      A                      A
 Frequencies --     37.3866                53.7397                73.8461
 Red. masses --      3.2765                 4.3922                 2.9404
 Frc consts  --      0.0027                 0.0075                 0.0094
 IR Inten    --      0.8541                 1.4134                 0.3707

                      4                      5                      6
                      A                      A                      A
 Frequencies --    138.7259               194.1355               209.0862
 Red. masses --      2.0582                 3.5146                 1.1211
 Frc consts  --      0.0233                 0.0780                 0.0289
 IR Inten    --      0.1946                 4.8471                34.3646

                      7                      8                      9
                      A                      A                      A
 Frequencies --    292.0201               298.5178               365.2940
 Red. masses --      2.7464                 3.7821                 3.4630
 Frc consts  --      0.1380                 0.1986                 0.2723
 IR Inten    --      3.4945                 5.8738                 3.2770

                     10                     11                     12
                      A                      A                      A
 Frequencies --    425.6071               439.9071               620.4685
 Red. masses --      2.2020                 2.6301                 2.0514
 Frc consts  --      0.2350                 0.2999                 0.4653
 IR Inten    --      0.5333                 2.1147                 3.1805

                     13                     14                     15
                      A                      A                      A
 Frequencies --    622.7550               638.6604               669.9762
 Red. masses --      1.5599                 2.6021                 3.4816
 Frc consts  --      0.3564                 0.6253                 0.9208
 IR Inten    --     44.5565                14.7760                17.0594

                     16                     17                     18
                      A                      A                      A
 Frequencies --    690.8027               763.8879               775.5065
 Red. masses --      3.4545                 1.9537                 1.6934
 Frc consts  --      0.9713                 0.6717                 0.6001
 IR Inten    --     49.2925                37.3971                26.7546

                     19                     20                     21
                      A                      A                      A
 Frequencies --    781.5634               800.7303               814.1003
 Red. masses --      1.5088                 1.4619                 1.8370
 Frc consts  --      0.5430                 0.5523                 0.7173
 IR Inten    --     19.9927               132.3014                81.0034

                     22                     23                     24
                      A                      A                      A
 Frequencies --    893.6630               914.9665               943.1304
 Red. masses --      1.9200                 1.7325                 2.3348
 Frc consts  --      0.9034                 0.8545                 1.2236
 IR Inten    --      0.6817                 0.1180                 1.2993

                     25                     26                     27
                      A                      A                      A
 Frequencies --    979.4195               981.5016              1013.2611
 Red. masses --      1.2085                 2.6319                 3.6714
 Frc consts  --      0.6830                 1.4938                 2.2209
 IR Inten    --      0.3589                 0.9868                20.9462

                     28                     29                     30
                      A                      A                      A
 Frequencies --   1059.2059              1076.0898              1115.7643
 Red. masses --      3.6938                 2.3093                 1.5093
 Frc consts  --      2.4417                 1.5755                 1.1071
 IR Inten    --      7.8362                 2.1199                 6.7082

                     31                     32                     33
                      A                      A                      A
 Frequencies --   1122.4388              1147.3351              1208.6150
 Red. masses --      2.4842                 1.7524                 1.8814
 Frc consts  --      1.8440                 1.3591                 1.6192
 IR Inten    --      1.7728                 1.2750                18.8912

                     34                     35                     36
                      A                      A                      A
 Frequencies --   1215.5065              1224.6793              1269.4018
 Red. masses --      1.3492                 1.5249                 1.4025
 Frc consts  --      1.1745                 1.3475                 1.3315
 IR Inten    --      0.7237                 1.0630                19.1754

                     37                     38                     39
                      A                      A                      A
 Frequencies --   1270.1672              1274.6553              1279.6537
 Red. masses --      1.3399                 1.1962                 1.4660
 Frc consts  --      1.2736                 1.1450                 1.4143
 IR Inten    --      0.4097                 0.8660                 4.7027

                     40                     41                     42
                      A                      A                      A
 Frequencies --   1294.8880              1309.9527              1376.6293
 Red. masses --      1.3876                 1.4782                 1.8096
 Frc consts  --      1.3708                 1.4945                 2.0205
 IR Inten    --      0.7730                 2.8310                93.3336

                     43                     44                     45
                      A                      A                      A
 Frequencies --   1378.4825              1415.1214              1416.5648
 Red. masses --      1.8712                 2.1706                 2.9519
 Frc consts  --      2.0949                 2.5610                 3.4900
 IR Inten    --     14.2745                 0.4661                 3.9464

                     46                     47                     48
                      A                      A                      A
 Frequencies --   1465.8637              1507.5068              1512.2681
 Red. masses --      3.1531                 1.1008                 1.1468
 Frc consts  --      3.9919                 1.4739                 1.5452
 IR Inten    --     43.7679                 1.0849                 7.3653

                     49                     50                     51
                      A                      A                      A
 Frequencies --   1516.6827              1541.2389              1552.1857
 Red. masses --      1.1048                 1.1815                 2.6803
 Frc consts  --      1.4974                 1.6535                 3.8047
 IR Inten    --      7.4823                 5.2190                61.8524

                     52                     53                     54
                      A                      A                      A
 Frequencies --   1631.9026              1678.9427              3050.8565
 Red. masses --      3.8527                 1.2924                 1.0600
 Frc consts  --      6.0451                 2.1465                 5.8132
 IR Inten    --    108.3063               100.4419                24.5922

                     55                     56                     57
                      A                      A                      A
 Frequencies --   3058.1254              3060.4863              3067.7158
 Red. masses --      1.0643                 1.0748                 1.0719
 Frc consts  --      5.8642                 5.9314                 5.9432
 IR Inten    --     48.0243                20.6418                16.8529

                     58                     59                     60
                      A                      A                      A
 Frequencies --   3075.1200              3099.7310              3113.3721
 Red. masses --      1.0607                 1.1038                 1.1044
 Frc consts  --      5.9098                 6.2485                 6.3071
 IR Inten    --     41.4516                18.6862                21.3811

                     61                     62                     63
                      A                      A                      A
 Frequencies --   3122.2753              3134.4073              3258.8122
 Red. masses --      1.1046                 1.1066                 1.0957
 Frc consts  --      6.3447                 6.4052                 6.8560
 IR Inten    --     23.6811                64.0842                 3.7722

                     64                     65                     66
                      A                      A                      A
 Frequencies --   3286.1056              3523.4228              3621.8942
 Red. masses --      1.0974                 1.0483                 1.0960
 Frc consts  --      6.9817                 7.6675                 8.4708
 IR Inten    --      2.1171                 5.5117                 9.5722

 - Thermochemistry -
 -------------------
 Temperature   298.150 Kelvin.  Pressure   1.00000 Atm.
 Atom     1 has atomic number  6 and mass  12.00000

 Molecular mass:   151.11095 amu.
 Principal axes and moments of inertia in atomic units:
                           1         2         3
     Eigenvalues --   604.432083414.066323434.58880
           X            0.99997   0.00437   0.00577
           Y           -0.00477   0.99747   0.07086
           Z           -0.00545  -0.07089   0.99747
 This molecule is an asymmetric top.
 Rotational symmetry number  1.
 Warning -- assumption of classical behavior for rotation
           may cause significant error
 Rotational temperatures (Kelvin)      0.14330     0.02537     0.02522
 Rotational constants (GHZ):           2.98585     0.52862     0.52546
 Zero-point vibrational energy     548886.9 (Joules/Mol)
                                  131.18712 (Kcal/Mol)
 Warning -- explicit consideration of  12 degrees of freedom as
           vibrations may cause significant error
 Vibrational temperatures:     53.79    77.32   106.25   199.60   279.32
          (Kelvin)            300.83   420.15   429.50   525.58   612.35
                              632.93   892.72   896.01   918.89   963.95
                              993.91  1099.06  1115.78  1124.50  1152.07
                             1171.31  1285.78  1316.43  1356.95  1409.17
                             1412.16  1457.86  1523.96  1548.25  1605.34
                             1614.94  1650.76  1738.93  1748.84  1762.04
                             1826.39  1827.49  1833.94  1841.14  1863.06
                             1884.73  1980.66  1983.33  2036.04  2038.12
                             2109.05  2168.97  2175.82  2182.17  2217.50
                             2233.25  2347.94  2415.62  4389.50  4399.96
                             4403.36  4413.76  4424.41  4459.82  4479.45
                             4492.26  4509.71  4688.70  4727.97  5069.42
                             5211.10

 Zero-point correction=                           0.209060 (Hartree/Particle)
 Thermal correction to Energy=                    0.219564
 Thermal correction to Enthalpy=                  0.220509
 Thermal correction to Gibbs Free Energy=         0.171780
 Sum of electronic and zero-point Energies=           -476.726748
 Sum of electronic and thermal Energies=              -476.716243
 Sum of electronic and thermal Enthalpies=            -476.715299
 Sum of electronic and thermal Free Energies=         -476.764027

                     E (Thermal)             CV                S
                      KCal/Mol        Cal/Mol-Kelvin    Cal/Mol-Kelvin
 Total                  137.779             39.652            102.557
 Electronic               0.000              0.000              0.000
 Translational            0.889              2.981             40.949
 Rotational               0.889              2.981             30.339
 Vibrational            136.001             33.690             31.269
 Vibration     1          0.594              1.982              5.393
 Vibration     2          0.596              1.976              4.675
 Vibration     3          0.599              1.966              4.048
 Vibration     4          0.614              1.915              2.821
 Vibration     5          0.635              1.848              2.188
 Vibration     6          0.642              1.827              2.052
 Vibration     7          0.687              1.689              1.462
 Vibration     8          0.692              1.676              1.425
 Vibration     9          0.739              1.544              1.099
 Vibration    10          0.787              1.415              0.873
 Vibration    11          0.800              1.383              0.827
 Vibration    12          0.981              0.989              0.416

                           ! Non-Optimized Parameters !

 1\1\GINC-NODE357\Freq\RB3LYP\6-31G(d)\C8H13N3\VSC10255\08-Dec-2020\0\\
 #N Geom=AllCheck Guess=TCheck SCRF=Check GenChk RB3LYP/6-31G(d) Freq\\
 CID_86276623_JID_1934_neutraal\\0,1\C,0.2514731966,1.0106581903,-0.198
 7120841\C,0.9535929244,-0.3665697814,-0.0601659119\C,-0.3820843377,-1.
 0403093962,-0.4772311829\C,-1.1161062862,0.2802929274,-0.1255976918\C,
 -0.8034077114,-2.3123920513,0.2460619628\N,-2.1618950277,-2.7124862915
 ,-0.0823663425\C,-2.590900307,-3.2539072666,-1.2910415413\C,-3.9634244
 031,-3.3411598431,-1.1809774144\N,-4.3808519255,-2.8668896363,0.040388

 Normal termination of Gaussian 16 at Tue Dec  8 21:41:38 2020.

 ----------------------------------------------------------------------
 # B3LYP/6-311++G(d,p) empiricaldispersion=gd3bj scf=xqc pop=npa geom=c
 heck
 ----------------------------------------------------------------------

 --------------------------------------
 CID_86276623_JID_1934_Energie_neutraal
 --------------------------------------
 Structure from the checkpoint file:  "JID_1934.chk"
 Charge =  0 Multiplicity = 1

 SCF Done:  E(RB3LYP) =  -477.072391278     A.U. after   14 cycles
 Normal termination of Gaussian 16 at Tue Dec  8 21:43:40 2020.

 ----------------------------------------------------------------------
 # B3LYP/6-311++G(d,p) empiricaldispersion=gd3bj scf=xqc pop=npa geom=c
 heck
 ----------------------------------------------------------------------

 ------------------------------------
 CID_86276623_JID_1934_Energie_kation
 ------------------------------------
 Structure from the checkpoint file:  "JID_1934.chk"
 Charge =  1 Multiplicity = 2

 SCF Done:  E(UB3LYP) =  -476.799969465     A.U. after   19 cycles
 Normal termination of Gaussian 16 at Tue Dec  8 21:48:20 2020.
 Gaussian 16:  ES64L-G16RevA.03 25-Dec-2016

 -----------------------------------
 CID_86276623_JID_1934_Energie_anion
 -----------------------------------
 Structure from the checkpoint file:  "JID_1934.chk"
 Charge = -1 Multiplicity = 2

                         Standard orientation:
 ---------------------------------------------------------------------
 Center     Atomic      Atomic             Coordinates (Angstroms)
 Number     Number       Type             X           Y           Z
 ---------------------------------------------------------------------
      1          6           0        3.502543    0.333459   -0.908421
      2          6           0        3.234685   -0.610806    0.293885
      3          6           0        1.716736   -0.503468   -0.016298
      4          6           0        2.014184    0.769942   -0.850789
      5          6           0        0.749222   -0.387281    1.153863
      6          7           0       -0.604203   -0.074824    0.724866
      7          6           0       -1.483458   -0.940161    0.079745
      8          6           0       -2.578501   -0.166403   -0.245417
      9          7           0       -2.392637    1.131513    0.169048
     10          6           0       -1.201601    1.146380    0.741648
     11          7           0       -3.787595   -0.548116   -0.841251
     12          1           0        3.725432   -0.228125   -1.821304
     13          1           0        4.263634    1.108923   -0.782551
     14          1           0        3.688947   -1.606101    0.279182
     15          1           0        3.480955   -0.129768    1.248119
     16          1           0        1.398629   -1.321713   -0.672887
     17          1           0        1.879253    1.677216   -0.250135
     18          1           0        1.474277    0.896174   -1.792912
     19          1           0        0.730869   -1.315204    1.738589
     20          1           0        1.071799    0.415380    1.826377
     21          1           0       -1.259909   -1.987582   -0.050322
     22          1           0       -0.725691    2.009823    1.187040
     23          1           0       -4.291525    0.273121   -1.159956
     24          1           0       -3.668469   -1.202127   -1.607177
 ---------------------------------------------------------------------

 SCF Done:  E(UB3LYP) =  -477.057420029     A.U. after   32 cycles

 The electronic state is 2-A.
 Alpha  occ. eigenvalues --  -14.26418 -14.20914 -14.18763 -10.11805 -10.11494
 Alpha  occ. eigenvalues --  -10.11357 -10.08052 -10.07612 -10.06605 -10.06543
 Alpha  occ. eigenvalues --  -10.06489  -0.91587  -0.81549  -0.76839  -0.74310
 Alpha  occ. eigenvalues --   -0.64617  -0.61582  -0.55930  -0.53602  -0.48785
 Alpha  occ. eigenvalues --   -0.48238  -0.44853  -0.43095  -0.39443  -0.38291
 Alpha  occ. eigenvalues --   -0.38008  -0.36146  -0.33048  -0.32567  -0.31585
 Alpha  occ. eigenvalues --   -0.30730  -0.28739  -0.27198  -0.25051  -0.23199
 Alpha  occ. eigenvalues --   -0.21657  -0.21011  -0.20354  -0.17752  -0.15734
 Alpha  occ. eigenvalues --   -0.09574   0.04583
 Alpha virt. eigenvalues --    0.06376   0.07382   0.07621   0.08843   0.09607
 Alpha virt. eigenvalues --    0.09943   0.10599   0.10684   0.11628   0.12437
 Alpha virt. eigenvalues --    0.12685   0.13223   0.14055   0.14997   0.16082

  Beta  occ. eigenvalues --  -14.26418 -14.20883 -14.18758 -10.11797 -10.11495
  Beta  occ. eigenvalues --  -10.11332 -10.08027 -10.07599 -10.06581 -10.06529
  Beta  occ. eigenvalues --  -10.06453  -0.91579  -0.81518  -0.76805  -0.74282
  Beta  occ. eigenvalues --   -0.64583  -0.61548  -0.55862  -0.53545  -0.48751
  Beta  occ. eigenvalues --   -0.48198  -0.44770  -0.43049  -0.39399  -0.38223
  Beta  occ. eigenvalues --   -0.37959  -0.36113  -0.33014  -0.32535  -0.31556
  Beta  occ. eigenvalues --   -0.30703  -0.28699  -0.27149  -0.25018  -0.23167
  Beta  occ. eigenvalues --   -0.21613  -0.20967  -0.20316  -0.17738  -0.15717
  Beta  occ. eigenvalues --   -0.09552
  Beta virt. eigenvalues --    0.07036   0.07470   0.08182   0.08398   0.09380
  Beta virt. eigenvalues --    0.10297   0.10344   0.11036   0.11186   0.12296
  Beta virt. eigenvalues --    0.12636   0.13062   0.13575   0.14509   0.15080

 Mulliken charges and spin densities:
               1          2
     1  C   -0.713421   0.374794
     2  C    1.877344  -2.434518
     3  C   -1.920876   2.670092
     4  C    1.048265  -1.438716
     5  C    1.101374  -2.035450
     6  N    0.086172   0.103484
     7  C   -0.417553   0.318936
     8  C    0.996701  -1.159981
     9  N   -0.212472  -0.007444
    10  C    0.159302  -0.245828
    11  N   -0.410114   0.083438
    12  H   -0.058064   0.195587
    13  H   -0.323671   0.466528
    14  H   -0.463094   0.610727
    15  H   -0.228188   0.353163
    16  H   -0.306998   0.502335
    17  H    0.012025   0.120311
    18  H    0.042270   0.114884
    19  H   -0.085544   0.269197
    20  H   -0.384700   0.563558
    21  H   -0.707803   0.853473
    22  H   -0.051517   0.201638
    23  H    0.118389   0.123890
    24  H   -0.157827   0.395902
 Sum of Mulliken charges =  -1.00000   1.00000

 Dipole moment (field-independent basis, Debye):
    X=             -1.6243    Y=              2.6947    Z=              0.1018  Tot=              3.1480
 Quadrupole moment (field-independent basis, Debye-Ang):
   XX=           -142.4352   YY=           -106.6294   ZZ=            -98.1400
   XY=              0.4713   XZ=             -3.4014   YZ=             -3.1554

 Summary of Natural Population Analysis:

                                       Natural Population
                Natural  -----------------------------------------------
    Atom  No    Charge         Core      Valence    Rydberg      Total
 -----------------------------------------------------------------------
      C    1   -0.18668      0.99965     2.17980    0.00723     3.18668
      C    2   -0.18457      0.99963     2.17659    0.00835     3.18457
      C    3   -0.11537      0.99960     2.10391    0.01186     3.11537
      C    4   -0.18543      0.99963     2.17881    0.00699     3.18543
      C    5   -0.07940      0.99957     2.06752    0.01230     3.07940
      N    6   -0.20120      0.99966     2.69103    0.01052     3.70120
      C    7   -0.06706      0.99949     2.05533    0.01224     3.06706
      C    8    0.14365      0.99955     1.84053    0.01627     2.85635
      N    9   -0.27795      0.99970     2.76793    0.01032     3.77795
      C   10    0.11037      0.99963     1.87419    0.01580     2.88963
      N   11   -0.40819      0.99972     2.89759    0.01088     3.90819
      H   12    0.09571      0.00000     0.40262    0.00167     0.40429
      H   13    0.09506      0.00000     0.40350    0.00144     0.40494
      H   14    0.10043      0.00000     0.39743    0.00214     0.39957
      H   15    0.09594      0.00000     0.40188    0.00218     0.40406
      H   16    0.10185      0.00000     0.39590    0.00225     0.39815
      H   17    0.09422      0.00000     0.40408    0.00170     0.40578
      H   18    0.09931      0.00000     0.39955    0.00114     0.40069
      H   19    0.10215      0.00000     0.39633    0.00153     0.39785
      H   20    0.09975      0.00000     0.39831    0.00194     0.40025
      H   21    0.10626      0.00000     0.39207    0.00167     0.39374
      H   22    0.09164      0.00000     0.40697    0.00139     0.40836
      H   23    0.18452      0.00000     0.31337    0.00211     0.31548
      H   24    0.18498      0.00000     0.31257    0.00245     0.31502
 =======================================================================
   * Total *   -0.00000     10.99583    29.85782    0.14634    41.00000

 Normal termination of Gaussian 16 at Tue Dec  8 21:53:18 2020.
