 Gaussian 16, Revision A.03,

 -----------------------------------------------------------
 # opt freq B3LYP/6-31G(d) empiricaldispersion=gd3bj scf=xqc
 -----------------------------------------------------------

 -------------------------------
 CID_66483612_JID_10763_neutraal
 -------------------------------
 Symbolic Z-matrix:
 Charge =  0 Multiplicity = 1

 SCF Done:  E(RB3LYP) =  -897.716911352     A.U. after   16 cycles
 SCF Done:  E(RB3LYP) =  -897.313180145     A.U. after   18 cycles
 SCF Done:  E(RB3LYP) =  -897.734264575     A.U. after   14 cycles
 SCF Done:  E(RB3LYP) =  -897.739961191     A.U. after   12 cycles
 SCF Done:  E(RB3LYP) =  -897.737640328     A.U. after   13 cycles
 SCF Done:  E(RB3LYP) =  -897.742573966     A.U. after   11 cycles
 SCF Done:  E(RB3LYP) =  -897.743542503     A.U. after   12 cycles
 SCF Done:  E(RB3LYP) =  -897.743503675     A.U. after   13 cycles
 SCF Done:  E(RB3LYP) =  -897.744212997     A.U. after   12 cycles
 SCF Done:  E(RB3LYP) =  -897.744603582     A.U. after   12 cycles
 SCF Done:  E(RB3LYP) =  -897.745074577     A.U. after   10 cycles
 SCF Done:  E(RB3LYP) =  -897.745076427     A.U. after    9 cycles
 SCF Done:  E(RB3LYP) =  -897.745076842     A.U. after    7 cycles
 SCF Done:  E(RB3LYP) =  -897.745076964     A.U. after    7 cycles
 SCF Done:  E(RB3LYP) =  -897.745076994     A.U. after    7 cycles
 Optimization completed.
    -- Stationary point found.
 Normal termination of Gaussian 16 at Sat Dec 12 16:44:33 2020.

 --------------------------------------------------------------------
 #N Geom=AllCheck Guess=TCheck SCRF=Check GenChk RB3LYP/6-31G(d) Freq
 --------------------------------------------------------------------

 Structure from the checkpoint file:  "JID_10763.chk"
 -------------------------------
 CID_66483612_JID_10763_neutraal
 -------------------------------
 Charge =  0 Multiplicity = 1

 SCF Done:  E(RB3LYP) =  -897.745076994     A.U. after    1 cycles

  Exact polarizability: 238.288  16.731 177.216 -18.168  -0.132 129.395
 Approx polarizability: 338.784  38.481 282.995 -40.962   1.896 210.710

                      1                      2                      3
                      A                      A                      A
 Frequencies --     40.1570                49.1384                74.9083
 Red. masses --      5.1060                 4.0195                 4.8472
 Frc consts  --      0.0049                 0.0057                 0.0160
 IR Inten    --      0.2358                 1.6318                 1.0622

                      4                      5                      6
                      A                      A                      A
 Frequencies --     82.6098                90.9458               100.6930
 Red. masses --      4.3241                 3.3594                 4.1060
 Frc consts  --      0.0174                 0.0164                 0.0245
 IR Inten    --      1.3251                 0.4476                 2.7011

                      7                      8                      9
                      A                      A                      A
 Frequencies --    112.7976               135.5261               152.9825
 Red. masses --      2.0861                 3.2974                 4.9631
 Frc consts  --      0.0156                 0.0357                 0.0684
 IR Inten    --      3.5806                 3.7906                 1.0273

                     10                     11                     12
                      A                      A                      A
 Frequencies --    179.3012               199.5480               208.3260
 Red. masses --      4.4022                 3.5532                 2.5658
 Frc consts  --      0.0834                 0.0834                 0.0656
 IR Inten    --      2.9452                 1.6034                 0.4429

                     13                     14                     15
                      A                      A                      A
 Frequencies --    227.2061               248.4152               261.7168
 Red. masses --      4.3491                 1.8845                 3.1763
 Frc consts  --      0.1323                 0.0685                 0.1282
 IR Inten    --      0.1611                 6.0635                 4.3463

                     16                     17                     18
                      A                      A                      A
 Frequencies --    273.6547               283.9001               325.6348
 Red. masses --      3.0900                 2.2688                 2.6659
 Frc consts  --      0.1363                 0.1077                 0.1666
 IR Inten    --      2.4717                 4.7414                 1.1311

                     19                     20                     21
                      A                      A                      A
 Frequencies --    349.0628               371.5700               387.8349
 Red. masses --      6.2097                 3.8910                 2.2407
 Frc consts  --      0.4458                 0.3165                 0.1986
 IR Inten    --      2.2883                 0.0133                11.0574

                     22                     23                     24
                      A                      A                      A
 Frequencies --    399.3653               428.9029               467.2777
 Red. masses --      5.8135                 5.0269                 3.1289
 Frc consts  --      0.5463                 0.5448                 0.4025
 IR Inten    --      5.7186                 5.1614                 5.4946

                     25                     26                     27
                      A                      A                      A
 Frequencies --    525.0561               533.5921               547.5311
 Red. masses --      6.0056                 3.8150                 5.5985
 Frc consts  --      0.9755                 0.6400                 0.9889
 IR Inten    --      2.7712                 1.3116                 5.9228

                     28                     29                     30
                      A                      A                      A
 Frequencies --    581.9540               597.9241               627.5256
 Red. masses --      4.6660                 6.9462                 4.7221
 Frc consts  --      0.9311                 1.4632                 1.0956
 IR Inten    --      3.6696                 7.6705                 1.7396

                     31                     32                     33
                      A                      A                      A
 Frequencies --    668.3207               724.0936               740.1256
 Red. masses --      4.1091                 3.5796                 6.1694
 Frc consts  --      1.0814                 1.1058                 1.9912
 IR Inten    --     35.2248                 1.1249                 6.8197

                     34                     35                     36
                      A                      A                      A
 Frequencies --    772.8714               779.0468               795.5116
 Red. masses --      5.9240                 2.0640                 4.8875
 Frc consts  --      2.0849                 0.7381                 1.8223
 IR Inten    --     10.6920                15.3329                 4.5410

                     37                     38                     39
                      A                      A                      A
 Frequencies --    815.0604               828.5352               858.3786
 Red. masses --      1.1072                 1.1455                 1.4312
 Frc consts  --      0.4334                 0.4633                 0.6213
 IR Inten    --     48.0109                47.0758                19.7062

                     40                     41                     42
                      A                      A                      A
 Frequencies --    881.7074               915.8932               948.6256
 Red. masses --      1.4513                 3.5832                 1.3876
 Frc consts  --      0.6647                 1.7710                 0.7357
 IR Inten    --      0.7935                 2.8205                 1.1765

                     43                     44                     45
                      A                      A                      A
 Frequencies --    960.6488               975.2464               978.5143
 Red. masses --      2.4922                 6.0758                 2.1518
 Frc consts  --      1.3551                 3.4048                 1.2139
 IR Inten    --      9.9167                12.6498                 4.8910

                     46                     47                     48
                      A                      A                      A
 Frequencies --    982.7836              1004.3703              1019.6811
 Red. masses --      1.4397                 2.3574                 1.6224
 Frc consts  --      0.8193                 1.4011                 0.9939
 IR Inten    --      0.3326                 2.4100                 3.9690

                     49                     50                     51
                      A                      A                      A
 Frequencies --   1055.0452              1081.9269              1087.3271
 Red. masses --      2.3570                 5.5132                 1.8170
 Frc consts  --      1.5458                 3.8024                 1.2657
 IR Inten    --     14.2384                57.0422                 4.0078

                     52                     53                     54
                      A                      A                      A
 Frequencies --   1099.8868              1107.6878              1121.7149
 Red. masses --      2.1384                 2.4364                 2.0772
 Frc consts  --      1.5241                 1.7613                 1.5399
 IR Inten    --     28.9238                31.8291                47.1344

                     55                     56                     57
                      A                      A                      A
 Frequencies --   1147.6527              1174.3544              1182.7479
 Red. masses --      2.4961                 2.5272                 2.3187
 Frc consts  --      1.9370                 2.0535                 1.9111
 IR Inten    --     19.7662                21.3399                 6.6550

                     58                     59                     60
                      A                      A                      A
 Frequencies --   1211.6720              1238.1436              1254.1167
 Red. masses --      2.3167                 2.0636                 1.7121
 Frc consts  --      2.0039                 1.8638                 1.5865
 IR Inten    --     19.5276                 1.2347                 5.2717

                     61                     62                     63
                      A                      A                      A
 Frequencies --   1261.6959              1274.1362              1283.2337
 Red. masses --      1.2238                 2.6448                 1.3618
 Frc consts  --      1.1478                 2.5297                 1.3213
 IR Inten    --      8.3569                12.0225                11.3333

                     64                     65                     66
                      A                      A                      A
 Frequencies --   1295.0880              1303.3387              1310.9640
 Red. masses --      2.4626                 1.2799                 1.7700
 Frc consts  --      2.4335                 1.2810                 1.7923
 IR Inten    --     38.8316                 1.2306                30.1743

                     67                     68                     69
                      A                      A                      A
 Frequencies --   1328.1374              1336.8806              1351.4857
 Red. masses --      1.7128                 1.8727                 1.2743
 Frc consts  --      1.7801                 1.9719                 1.3714
 IR Inten    --     72.2830                14.7933                19.9751

                     70                     71                     72
                      A                      A                      A
 Frequencies --   1385.2500              1394.0219              1406.8586
 Red. masses --      1.2720                 1.2689                 1.3304
 Frc consts  --      1.4381                 1.4528                 1.5514
 IR Inten    --      9.6627                35.6314                14.2329

                     73                     74                     75
                      A                      A                      A
 Frequencies --   1417.9594              1424.2581              1439.0647
 Red. masses --      1.4661                 1.4204                 1.2854
 Frc consts  --      1.7368                 1.6976                 1.5684
 IR Inten    --     49.1435                25.5721                18.1701

                     76                     77                     78
                      A                      A                      A
 Frequencies --   1445.4495              1457.2392              1468.9979
 Red. masses --      1.9528                 1.4098                 3.0592
 Frc consts  --      2.4038                 1.7638                 3.8895
 IR Inten    --     19.1873                13.7634               190.9673

                     79                     80                     81
                      A                      A                      A
 Frequencies --   1511.7052              1521.8815              1524.9307
 Red. masses --      1.0739                 1.0613                 1.1780
 Frc consts  --      1.4459                 1.4483                 1.6140
 IR Inten    --     84.6735                 3.0465                15.7646

                     82                     83                     84
                      A                      A                      A
 Frequencies --   1526.0500              1528.4416              1532.5569
 Red. masses --      1.1097                 1.5472                 1.0838
 Frc consts  --      1.5226                 2.1296                 1.4997
 IR Inten    --     21.1700                13.1058                 8.2911

                     85                     86                     87
                      A                      A                      A
 Frequencies --   1533.1886              1539.0230              1540.0699
 Red. masses --      1.3371                 1.0760                 1.0816
 Frc consts  --      1.8519                 1.5015                 1.5115
 IR Inten    --      5.2118                 6.9014                 3.2251

                     88                     89                     90
                      A                      A                      A
 Frequencies --   1556.0377              1592.7065              1638.8989
 Red. masses --      1.0902                 6.5771                 6.0247
 Frc consts  --      1.5552                 9.8300                 9.5343
 IR Inten    --     10.7291                 8.4219                 5.2045

                     91                     92                     93
                      A                      A                      A
 Frequencies --   1744.5850              2343.7880              2960.9488
 Red. masses --     11.2220                11.8994                 1.0737
 Frc consts  --     20.1236                38.5134                 5.5462
 IR Inten    --    295.8741                 5.5738                26.1636

                     94                     95                     96
                      A                      A                      A
 Frequencies --   2965.4843              2967.3118              2997.0899
 Red. masses --      1.0733                 1.0733                 1.0714
 Frc consts  --      5.5609                 5.5681                 5.6701
 IR Inten    --    135.6807                43.0425                64.6721

                     97                     98                     99
                      A                      A                      A
 Frequencies --   3033.1991              3036.8320              3061.2457
 Red. masses --      1.0729                 1.0732                 1.0365
 Frc consts  --      5.8158                 5.8315                 5.7227
 IR Inten    --     43.3128                76.4409                16.1894

                    100                    101                    102
                      A                      A                      A
 Frequencies --   3065.9702              3089.6531              3097.7503
 Red. masses --      1.0873                 1.0895                 1.0938
 Frc consts  --      6.0221                 6.1275                 6.1840
 IR Inten    --     39.4358                 9.1653                12.7750

                    103                    104                    105
                      A                      A                      A
 Frequencies --   3121.9901              3130.0968              3144.0808
 Red. masses --      1.0945                 1.0942                 1.1029
 Frc consts  --      6.2855                 6.3160                 6.4234
 IR Inten    --     22.6288                27.7524                21.0233

                    106                    107                    108
                      A                      A                      A
 Frequencies --   3150.9954              3170.1774              3182.1828
 Red. masses --      1.0919                 1.0908                 1.0882
 Frc consts  --      6.3876                 6.4589                 6.4924
 IR Inten    --      9.4682                 3.1747                26.2484

                    109                    110                    111
                      A                      A                      A
 Frequencies --   3185.6653              3220.2449              3341.5938
 Red. masses --      1.0924                 1.0938                 1.0714
 Frc consts  --      6.5319                 6.6829                 7.0489
 IR Inten    --     11.8684                 9.7880               641.8250

 - Thermochemistry -
 -------------------
 Temperature   298.150 Kelvin.  Pressure   1.00000 Atm.
 Atom     1 has atomic number  6 and mass  12.00000

 Molecular mass:   273.14773 amu.
 Principal axes and moments of inertia in atomic units:
                           1         2         3
     Eigenvalues --  3079.847097642.166368933.13528
           X            0.99997   0.00458   0.00648
           Y           -0.00455   0.99997  -0.00554
           Z           -0.00650   0.00551   0.99996
 This molecule is an asymmetric top.
 Rotational symmetry number  1.
 Warning -- assumption of classical behavior for rotation
           may cause significant error
 Rotational temperatures (Kelvin)      0.02812     0.01133     0.00970
 Rotational constants (GHZ):           0.58598     0.23616     0.20203
 Zero-point vibrational energy     863806.6 (Joules/Mol)
                                  206.45473 (Kcal/Mol)
 Warning -- explicit consideration of  29 degrees of freedom as
           vibrations may cause significant error
 Vibrational temperatures:     57.78    70.70   107.78   118.86   130.85
          (Kelvin)            144.87   162.29   194.99   220.11   257.97
                              287.11   299.73   326.90   357.41   376.55
                              393.73   408.47   468.52   502.22   534.61
                              558.01   574.60   617.10   672.31   755.44
                              767.72   787.78   837.30   860.28   902.87
                              961.56  1041.81  1064.88  1111.99  1120.87
                             1144.56  1172.69  1192.08  1235.02  1268.58
                             1317.77  1364.86  1382.16  1403.16  1407.86
                             1414.01  1445.06  1467.09  1517.97  1556.65
                             1564.42  1582.49  1593.72  1613.90  1651.22
                             1689.63  1701.71  1743.33  1781.41  1804.39
                             1815.30  1833.20  1846.29  1863.34  1875.21
                             1886.18  1910.89  1923.47  1944.49  1993.07
                             2005.69  2024.16  2040.13  2049.19  2070.49
                             2079.68  2096.64  2113.56  2175.01  2189.65
                             2194.04  2195.65  2199.09  2205.01  2205.92
                             2214.31  2215.82  2238.79  2291.55  2358.01
                             2510.07  3372.19  4260.14  4266.67  4269.30
                             4312.14  4364.10  4369.32  4404.45  4411.25
                             4445.32  4456.97  4491.85  4503.51  4523.63
                             4533.58  4561.18  4578.45  4583.46  4633.21
                             4807.81

 Zero-point correction=                           0.329007 (Hartree/Particle)
 Thermal correction to Energy=                    0.347629
 Thermal correction to Enthalpy=                  0.348573
 Thermal correction to Gibbs Free Energy=         0.282298
 Sum of electronic and zero-point Energies=           -897.416070
 Sum of electronic and thermal Energies=              -897.397448
 Sum of electronic and thermal Enthalpies=            -897.396504
 Sum of electronic and thermal Free Energies=         -897.462779

                     E (Thermal)             CV                S
                      KCal/Mol        Cal/Mol-Kelvin    Cal/Mol-Kelvin
 Total                  218.140             70.809            139.489
 Electronic               0.000              0.000              0.000
 Translational            0.889              2.981             42.713
 Rotational               0.889              2.981             33.708
 Vibrational            216.363             64.847             63.068
 Vibration     1          0.594              1.981              5.251
 Vibration     2          0.595              1.978              4.852
 Vibration     3          0.599              1.966              4.020
 Vibration     4          0.600              1.961              3.828
 Vibration     5          0.602              1.956              3.640
 Vibration     6          0.604              1.949              3.441
 Vibration     7          0.607              1.939              3.220
 Vibration     8          0.613              1.918              2.866
 Vibration     9          0.619              1.899              2.635
 Vibration    10          0.629              1.868              2.336
 Vibration    11          0.638              1.841              2.137
 Vibration    12          0.642              1.828              2.058
 Vibration    13          0.651              1.800              1.901
 Vibration    14          0.662              1.765              1.742
 Vibration    15          0.669              1.743              1.650
 Vibration    16          0.676              1.722              1.573
 Vibration    17          0.682              1.704              1.510
 Vibration    18          0.710              1.624              1.282
 Vibration    19          0.726              1.577              1.170
 Vibration    20          0.743              1.531              1.073
 Vibration    21          0.756              1.496              1.008
 Vibration    22          0.765              1.471              0.965
 Vibration    23          0.790              1.407              0.862
 Vibration    24          0.825              1.323              0.745
 Vibration    25          0.880              1.195              0.598
 Vibration    26          0.889              1.176              0.579
 Vibration    27          0.903              1.145              0.549
 Vibration    28          0.939              1.070              0.482
 Vibration    29          0.956              1.036              0.453

                           ! Non-Optimized Parameters !
 Normal termination of Gaussian 16 at Sat Dec 12 17:05:30 2020.

 ----------------------------------------------------------------------
 # B3LYP/6-311++G(d,p) empiricaldispersion=gd3bj scf=xqc pop=npa geom=c
 heck
 ----------------------------------------------------------------------

 ---------------------------------------
 CID_66483612_JID_10763_Energie_neutraal
 ---------------------------------------
 Structure from the checkpoint file:  "JID_10763.chk"
 Charge =  0 Multiplicity = 1

 SCF Done:  E(RB3LYP) =  -897.995526505     A.U. after   17 cycles
 Normal termination of Gaussian 16 at Sat Dec 12 17:14:13 2020.

 ----------------------------------------------------------------------
 # B3LYP/6-311++G(d,p) empiricaldispersion=gd3bj scf=xqc pop=npa geom=c
 heck
 ----------------------------------------------------------------------

 -------------------------------------
 CID_66483612_JID_10763_Energie_kation
 -------------------------------------
 Structure from the checkpoint file:  "JID_10763.chk"
 Charge =  1 Multiplicity = 2

 SCF Done:  E(UB3LYP) =  -897.696767384     A.U. after   30 cycles
 Normal termination of Gaussian 16 at Sat Dec 12 17:35:14 2020.
 Gaussian 16:  ES64L-G16RevA.03 25-Dec-2016

 ----------------------------------------------------------------------
 # B3LYP/6-311++G(d,p) empiricaldispersion=gd3bj scf=xqc pop=npa geom=c
 heck
 ----------------------------------------------------------------------

 ------------------------------------
 CID_66483612_JID_10763_Energie_anion
 ------------------------------------
 Structure from the checkpoint file:  "JID_10763.chk"
 Charge = -1 Multiplicity = 2

                         Standard orientation:
 ---------------------------------------------------------------------
 Center     Atomic      Atomic             Coordinates (Angstroms)
 Number     Number       Type             X           Y           Z
 ---------------------------------------------------------------------
      1          6           0        4.249820    0.923354    1.405178
      2          6           0        3.965222   -0.311886    0.555154
      3          7           0        2.532190   -0.523869    0.298001
      4          6           0        2.331532   -1.444880   -0.846766
      5          6           0        1.010591   -2.215687   -0.737124
      6          7           0       -0.022658   -1.383732   -0.135280
      7          6           0        0.277363   -0.852838    1.198238
      8          6           0        1.780794   -0.965594    1.472447
      9          6           0       -1.244375   -1.307557   -0.741045
     10          8           0       -1.527671   -1.927375   -1.763071
     11          6           0       -2.298112   -0.435685   -0.105048
     12          6           0       -2.194316    0.968747   -0.025155
     13          6           0       -3.301565    1.676580    0.484225
     14          7           0       -4.431301    1.106029    0.897249
     15          6           0       -4.515942   -0.228807    0.802678
     16          6           0       -3.493326   -1.028941    0.300196
     17          6           0       -1.016137    1.659082   -0.423714
     18          6           0        0.012478    2.217969   -0.738451
     19          6           0        1.334869    2.783075   -1.032814
     20          8           0        2.316138    1.791905   -1.264843
     21          1           0        3.851206    1.814391    0.911432
     22          1           0        5.331048    1.050078    1.523629
     23          1           0        3.817336    0.852689    2.408599
     24          1           0        4.440646   -0.179630   -0.422544
     25          1           0        4.413262   -1.214124    1.010327
     26          1           0        2.348977   -0.841093   -1.759752
     27          1           0        3.151782   -2.178133   -0.906412
     28          1           0        1.144357   -3.125918   -0.137130
     29          1           0        0.654967   -2.521370   -1.720315
     30          1           0       -0.279689   -1.396742    1.973499
     31          1           0       -0.006126    0.198684    1.242625
     32          1           0        2.057410   -1.993268    1.767913
     33          1           0        2.020128   -0.318826    2.319289
     34          1           0       -3.247934    2.761024    0.550660
     35          1           0       -5.449193   -0.675248    1.139186
     36          1           0       -3.620754   -2.102751    0.211726
     37          1           0        1.286664    3.406019   -1.934307
     38          1           0        1.620014    3.453702   -0.203119
     39          1           0        2.217164    1.083694   -0.579773
 ---------------------------------------------------------------------

 SCF Done:  E(UB3LYP) =  -898.001836044     A.U. after   33 cycles
 SCF Done:  E(UB3LYP) =  -898.001836045     a.u. after    2 cycles

 The electronic state is 2-A.
 Alpha  occ. eigenvalues --  -19.00065 -18.95271 -14.23388 -14.22151 -14.14825
 Alpha  occ. eigenvalues --  -10.13391 -10.12257 -10.12109 -10.11550 -10.10810
 Alpha  occ. eigenvalues --  -10.10247 -10.10227 -10.08576 -10.06239 -10.04129
 Alpha  occ. eigenvalues --  -10.04091 -10.03480 -10.03397 -10.03030 -10.02385
 Alpha  occ. eigenvalues --   -0.90912  -0.90534  -0.85923  -0.81084  -0.79091
 Alpha  occ. eigenvalues --   -0.68721  -0.68070  -0.67359  -0.64223  -0.61699
 Alpha  occ. eigenvalues --   -0.61304  -0.56571  -0.56246  -0.53886  -0.51067
 Alpha  occ. eigenvalues --   -0.49433  -0.47745  -0.44149  -0.42762  -0.40504
 Alpha  occ. eigenvalues --   -0.40360  -0.39668  -0.38574  -0.36535  -0.36207
 Alpha  occ. eigenvalues --   -0.35005  -0.34321  -0.33876  -0.33248  -0.32757
 Alpha  occ. eigenvalues --   -0.31749  -0.31030  -0.30545  -0.29960  -0.29148
 Alpha  occ. eigenvalues --   -0.28655  -0.27897  -0.26835  -0.25954  -0.25452
 Alpha  occ. eigenvalues --   -0.24964  -0.24518  -0.24312  -0.22237  -0.18584
 Alpha  occ. eigenvalues --   -0.16935  -0.15386  -0.14836  -0.14370  -0.12521
 Alpha  occ. eigenvalues --   -0.12253  -0.10709  -0.09995   0.04757
 Alpha virt. eigenvalues --    0.05670   0.06864   0.07749   0.08584   0.09678
 Alpha virt. eigenvalues --    0.09855   0.09926   0.10466   0.11106   0.11290
 Alpha virt. eigenvalues --    0.11490   0.12393   0.12507   0.12873   0.13319

  Beta  occ. eigenvalues --  -19.00060 -18.95128 -14.23383 -14.22126 -14.14536
  Beta  occ. eigenvalues --  -10.13322 -10.12279 -10.12107 -10.11548 -10.10802
  Beta  occ. eigenvalues --  -10.10245 -10.10225 -10.08570 -10.06318 -10.03884
  Beta  occ. eigenvalues --  -10.03785 -10.03530 -10.03502 -10.02607 -10.02150
  Beta  occ. eigenvalues --   -0.90692  -0.90495  -0.85883  -0.80989  -0.78582
  Beta  occ. eigenvalues --   -0.68544  -0.68003  -0.66928  -0.63846  -0.61381
  Beta  occ. eigenvalues --   -0.61203  -0.56518  -0.56134  -0.53789  -0.50787
  Beta  occ. eigenvalues --   -0.49051  -0.47513  -0.44117  -0.42656  -0.40438
  Beta  occ. eigenvalues --   -0.40212  -0.39595  -0.38512  -0.36459  -0.36025
  Beta  occ. eigenvalues --   -0.34834  -0.34045  -0.33822  -0.33134  -0.32641
  Beta  occ. eigenvalues --   -0.31667  -0.30966  -0.30324  -0.29944  -0.29084
  Beta  occ. eigenvalues --   -0.28606  -0.27807  -0.26641  -0.25343  -0.25208
  Beta  occ. eigenvalues --   -0.24859  -0.24230  -0.23862  -0.21981  -0.17743
  Beta  occ. eigenvalues --   -0.16422  -0.15169  -0.14341  -0.14036  -0.12179
  Beta  occ. eigenvalues --   -0.11538  -0.10348  -0.08535
  Beta virt. eigenvalues --    0.05594   0.06851   0.07632   0.08504   0.09607
  Beta virt. eigenvalues --    0.09760   0.09859   0.10288   0.10709   0.11266
  Beta virt. eigenvalues --    0.11388   0.11508   0.12313   0.12455   0.12822

 Mulliken charges and spin densities:
               1          2
     1  C   -0.368808  -0.091216
     2  C   -0.197713  -0.016582
     3  N   -0.021978   0.011595
     4  C   -0.239090  -0.033952
     5  C   -0.285806  -0.008575
     6  N    0.141518   0.002399
     7  C   -0.121049   0.018505
     8  C   -0.603510  -0.075162
     9  C   -0.695743   0.036912
    10  O   -0.338993   0.044037
    11  C    0.446943   0.295024
    12  C   -0.126222   0.187870
    13  C   -0.113414  -0.043346
    14  N   -0.111707   0.119958
    15  C   -0.584502   0.240963
    16  C    0.170223  -0.089030
    17  C    0.096401  -0.040598
    18  C    0.044306   0.158620
    19  C   -0.482591  -0.053207
    20  O   -0.341733   0.000042
    21  H    0.164615   0.020088
    22  H    0.089502   0.042865
    23  H    0.084003   0.038291
    24  H    0.155215   0.001387
    25  H    0.093233   0.016211
    26  H    0.208929   0.004734
    27  H    0.061894   0.056325
    28  H    0.098693   0.046184
    29  H    0.222797  -0.002221
    30  H    0.180298   0.008376
    31  H    0.107975  -0.006694
    32  H    0.111665   0.031635
    33  H    0.125621   0.006763
    34  H    0.129033   0.006653
    35  H    0.115084  -0.021228
    36  H    0.160995   0.006484
    37  H    0.149983   0.000853
    38  H    0.073163   0.073491
    39  H    0.400772   0.005544
 Sum of Mulliken charges =  -1.00000   1.00000

 Dipole moment (field-independent basis, Debye):
    X=             10.3807    Y=             -2.5217    Z=              3.2010  Tot=             11.1519
 Quadrupole moment (field-independent basis, Debye-Ang):
   XX=           -183.4879   YY=           -141.7205   ZZ=           -139.0547
   XY=              0.2509   XZ=              4.9414   YZ=             -5.7979

 Summary of Natural Population Analysis:

                                       Natural Population
                Natural  -----------------------------------------------
    Atom  No    Charge         Core      Valence    Rydberg      Total
 -----------------------------------------------------------------------
      C    1   -0.29536      0.99966     2.28994    0.00576     3.29536
      C    2   -0.08096      0.99964     2.07204    0.00928     3.08096
      N    3   -0.29966      0.99972     2.78637    0.01356     3.79966
      C    4   -0.08508      0.99962     2.07521    0.01024     3.08508
      C    5   -0.09463      0.99962     2.08562    0.00939     3.09463
      N    6   -0.25800      0.99963     2.74692    0.01145     3.75800
      C    7   -0.08523      0.99961     2.07575    0.00987     3.08523
      C    8   -0.08698      0.99962     2.07711    0.01025     3.08698
      C    9    0.34700      0.99963     1.62803    0.02534     2.65300
      O   10   -0.31605      0.99988     3.31009    0.00608     4.31605
      C   11    0.07809      0.99947     1.90201    0.02042     2.92191
      C   12   -0.03439      0.99955     2.00330    0.03154     3.03439
      C   13    0.03686      0.99967     1.95014    0.01333     2.96314
      N   14   -0.19081      0.99970     2.68451    0.00660     3.69081
      C   15    0.05547      0.99963     1.92140    0.02350     2.94453
      C   16   -0.15663      0.99958     2.13841    0.01865     3.15663
      C   17   -0.01516      0.99933     2.00374    0.01208     3.01516
      C   18   -0.02195      0.99927     2.01037    0.01231     3.02195
      C   19   -0.00302      0.99957     1.98225    0.02120     3.00302
      O   20   -0.39698      0.99990     3.38389    0.01319     4.39698
      H   21    0.10946      0.00000     0.38870    0.00184     0.39054
      H   22    0.09749      0.00000     0.40167    0.00085     0.40251
      H   23    0.09477      0.00000     0.40414    0.00109     0.40523
      H   24    0.09906      0.00000     0.39997    0.00098     0.40094
      H   25    0.08021      0.00000     0.41861    0.00118     0.41979
      H   26    0.10427      0.00000     0.39459    0.00113     0.39573
      H   27    0.08224      0.00000     0.41592    0.00184     0.41776
      H   28    0.08411      0.00000     0.41411    0.00178     0.41589
      H   29    0.12286      0.00000     0.37587    0.00127     0.37714
      H   30    0.09263      0.00000     0.40628    0.00109     0.40737
      H   31    0.11450      0.00000     0.38364    0.00186     0.38550
      H   32    0.07932      0.00000     0.41899    0.00169     0.42068
      H   33    0.10041      0.00000     0.39866    0.00093     0.39959
      H   34    0.08077      0.00000     0.41708    0.00215     0.41923
      H   35    0.07499      0.00000     0.42319    0.00182     0.42501
      H   36    0.09806      0.00000     0.39994    0.00200     0.40194
      H   37    0.09922      0.00000     0.39898    0.00180     0.40078
      H   38    0.07961      0.00000     0.41765    0.00274     0.42039
      H   39    0.24250      0.00000     0.25220    0.00530     0.25750
 =======================================================================
   * Total *    0.03302     19.99230    52.65730    0.31739    72.96698

 Normal termination of Gaussian 16 at Sat Dec 12 18:18:04 2020.
