 Gaussian 16, Revision A.03,

 -----------------------------------------------------------
 # opt freq B3LYP/6-31G(d) empiricaldispersion=gd3bj scf=xqc
 -----------------------------------------------------------

 -------------------------------
 CID_107908232_JID_4375_neutraal
 -------------------------------
 Symbolic Z-matrix:
 Charge =  0 Multiplicity = 1

 SCF Done:  E(RB3LYP) =  -581.254149985     A.U. after   13 cycles
 SCF Done:  E(RB3LYP) =  -581.257193892     A.U. after   12 cycles
 SCF Done:  E(RB3LYP) =  -581.258000070     A.U. after   11 cycles
 SCF Done:  E(RB3LYP) =  -581.258354290     A.U. after   11 cycles
 SCF Done:  E(RB3LYP) =  -581.258485049     A.U. after   10 cycles
 SCF Done:  E(RB3LYP) =  -581.258486858     A.U. after   10 cycles
 SCF Done:  E(RB3LYP) =  -581.258536995     A.U. after   10 cycles
 SCF Done:  E(RB3LYP) =  -581.258540280     A.U. after    9 cycles
 SCF Done:  E(RB3LYP) =  -581.258540673     A.U. after    8 cycles
 SCF Done:  E(RB3LYP) =  -581.258541102     A.U. after    8 cycles
 SCF Done:  E(RB3LYP) =  -581.258541173     A.U. after    7 cycles
 SCF Done:  E(RB3LYP) =  -581.258541182     A.U. after    6 cycles
 Optimization completed.
    -- Stationary point found.
 Normal termination of Gaussian 16 at Thu Dec 10 09:27:18 2020.

 --------------------------------------------------------------------
 #N Geom=AllCheck Guess=TCheck SCRF=Check GenChk RB3LYP/6-31G(d) Freq
 --------------------------------------------------------------------

 Structure from the checkpoint file:  "JID_4375.chk"
 -------------------------------
 CID_107908232_JID_4375_neutraal
 -------------------------------
 Charge =  0 Multiplicity = 1

 SCF Done:  E(RB3LYP) =  -581.258541182     A.U. after    1 cycles

  Exact polarizability: 149.487   0.588 141.314   3.158  -3.414 124.045
 Approx polarizability: 175.800   0.623 205.555   2.905 -10.944 189.994

                      1                      2                      3
                      A                      A                      A
 Frequencies --     23.5405                31.2286                42.9670
 Red. masses --      3.0921                 3.3858                 3.0479
 Frc consts  --      0.0010                 0.0019                 0.0033
 IR Inten    --      0.0581                 0.1358                 0.0762

                      4                      5                      6
                      A                      A                      A
 Frequencies --     74.1934                97.1311               160.2169
 Red. masses --      3.1039                 2.9176                 3.0380
 Frc consts  --      0.0101                 0.0162                 0.0459
 IR Inten    --      0.0199                 0.6336                 0.4431

                      7                      8                      9
                      A                      A                      A
 Frequencies --    201.4642               230.0990               235.4379
 Red. masses --      3.1253                 1.8694                 1.8188
 Frc consts  --      0.0747                 0.0583                 0.0594
 IR Inten    --      0.4702                 0.5578                 0.6140

                     10                     11                     12
                      A                      A                      A
 Frequencies --    247.2748               269.6506               280.0631
 Red. masses --      2.4662                 1.4747                 1.4676
 Frc consts  --      0.0888                 0.0632                 0.0678
 IR Inten    --      2.8187                 0.1807                 0.3526

                     13                     14                     15
                      A                      A                      A
 Frequencies --    285.9521               316.5981               365.4508
 Red. masses --      1.2788                 2.4770                 2.1780
 Frc consts  --      0.0616                 0.1463                 0.1714
 IR Inten    --      0.4343                 0.1114                 4.9561

                     16                     17                     18
                      A                      A                      A
 Frequencies --    368.7326               376.3881               395.8289
 Red. masses --      2.4692                 2.1484                 2.1784
 Frc consts  --      0.1978                 0.1793                 0.2011
 IR Inten    --      2.8690                 3.0360                 1.4756

                     19                     20                     21
                      A                      A                      A
 Frequencies --    428.4625               460.7302               492.8432
 Red. masses --      2.0766                 2.0433                 2.7347
 Frc consts  --      0.2246                 0.2555                 0.3914
 IR Inten    --      0.1710                 3.3876                 1.0437

                     22                     23                     24
                      A                      A                      A
 Frequencies --    524.7228               563.8924               601.7275
 Red. masses --      2.0923                 2.3524                 2.0966
 Frc consts  --      0.3394                 0.4407                 0.4473
 IR Inten    --      5.3743                 2.4037                 0.2974

                     25                     26                     27
                      A                      A                      A
 Frequencies --    663.8872               780.5045               788.5355
 Red. masses --      1.7847                 2.1905                 2.5593
 Frc consts  --      0.4634                 0.7862                 0.9376
 IR Inten    --     10.6088                11.6781                14.8448

                     28                     29                     30
                      A                      A                      A
 Frequencies --    797.5817               829.8164               845.7577
 Red. masses --      2.0376                 1.5481                 2.0301
 Frc consts  --      0.7637                 0.6281                 0.8556
 IR Inten    --     25.0115                 1.8325                 5.1980

                     31                     32                     33
                      A                      A                      A
 Frequencies --    870.3418               920.5195               935.8989
 Red. masses --      2.1017                 2.3876                 1.8000
 Frc consts  --      0.9380                 1.1920                 0.9289
 IR Inten    --      4.4124                 2.1697                 1.2241

                     34                     35                     36
                      A                      A                      A
 Frequencies --    947.6064               965.4063              1005.1198
 Red. masses --      1.3591                 1.6343                 1.4692
 Frc consts  --      0.7190                 0.8974                 0.8745
 IR Inten    --     37.8558                 4.3709                 9.2373

                     37                     38                     39
                      A                      A                      A
 Frequencies --   1010.4301              1016.4546              1033.5880
 Red. masses --      1.9559                 1.6824                 1.7122
 Frc consts  --      1.1765                 1.0241                 1.0777
 IR Inten    --      0.7135                19.2703                 1.4254

                     40                     41                     42
                      A                      A                      A
 Frequencies --   1044.7047              1052.2753              1059.1804
 Red. masses --      2.1622                 1.1706                 1.5328
 Frc consts  --      1.3904                 0.7637                 1.0131
 IR Inten    --      0.7718                19.7841                 9.4957

                     43                     44                     45
                      A                      A                      A
 Frequencies --   1097.9244              1106.8417              1127.9814
 Red. masses --      1.7718                 2.1530                 1.6928
 Frc consts  --      1.2584                 1.5541                 1.2690
 IR Inten    --      8.4016                 5.4423                 1.9301

                     46                     47                     48
                      A                      A                      A
 Frequencies --   1134.2566              1146.8899              1163.3401
 Red. masses --      2.3322                 1.7876                 2.1021
 Frc consts  --      1.7678                 1.3854                 1.6762
 IR Inten    --      8.1928                 8.0995                38.7952

                     49                     50                     51
                      A                      A                      A
 Frequencies --   1182.4155              1185.4842              1194.0069
 Red. masses --      2.4886                 2.1493                 1.2906
 Frc consts  --      2.0499                 1.7797                 1.0841
 IR Inten    --     28.1760                17.1764                 6.2183

                     52                     53                     54
                      A                      A                      A
 Frequencies --   1210.7463              1230.0646              1264.6622
 Red. masses --      2.1520                 1.4237                 1.3896
 Frc consts  --      1.8587                 1.2692                 1.3095
 IR Inten    --      4.6802                 3.0136                 1.3807

                     55                     56                     57
                      A                      A                      A
 Frequencies --   1303.2256              1316.7159              1324.8786
 Red. masses --      1.2137                 1.2764                 1.9632
 Frc consts  --      1.2145                 1.3039                 2.0304
 IR Inten    --      4.6378                19.6111                31.0897

                     58                     59                     60
                      A                      A                      A
 Frequencies --   1333.0990              1340.0540              1352.3630
 Red. masses --      1.2920                 1.2475                 1.2913
 Frc consts  --      1.3528                 1.3199                 1.3914
 IR Inten    --     12.1090                13.9574                17.8916

                     61                     62                     63
                      A                      A                      A
 Frequencies --   1361.0244              1366.2004              1386.8630
 Red. masses --      1.2452                 1.2307                 1.3446
 Frc consts  --      1.3590                 1.3534                 1.5237
 IR Inten    --      2.4393                24.2894                 3.0510

                     64                     65                     66
                      A                      A                      A
 Frequencies --   1400.6871              1402.2137              1413.7908
 Red. masses --      1.3941                 1.3589                 1.4336
 Frc consts  --      1.6115                 1.5742                 1.6882
 IR Inten    --      0.7563                 3.4608                 0.7969

                     67                     68                     69
                      A                      A                      A
 Frequencies --   1424.9087              1433.5946              1436.0153
 Red. masses --      1.6362                 1.3553                 1.3933
 Frc consts  --      1.9573                 1.6411                 1.6928
 IR Inten    --      2.6025                22.8824                25.6505

                     70                     71                     72
                      A                      A                      A
 Frequencies --   1441.9291              1475.0407              1484.8218
 Red. masses --      1.4084                 1.1772                 1.2052
 Frc consts  --      1.7253                 1.5091                 1.5655
 IR Inten    --     13.9604                 7.3472                 0.0296

                     73                     74                     75
                      A                      A                      A
 Frequencies --   1503.8864              1504.6617              1513.3157
 Red. masses --      1.1095                 1.1275                 1.0881
 Frc consts  --      1.4785                 1.5040                 1.4681
 IR Inten    --      0.7116                 0.8345                 8.7522

                     76                     77                     78
                      A                      A                      A
 Frequencies --   1515.7546              1519.6849              1520.6968
 Red. masses --      1.0514                 1.0860                 1.0846
 Frc consts  --      1.4232                 1.4777                 1.4778
 IR Inten    --     12.5511                 6.1211                 2.7036

                     79                     80                     81
                      A                      A                      A
 Frequencies --   1523.0333              1531.8527              1537.0574
 Red. masses --      1.0910                 1.0673                 1.0529
 Frc consts  --      1.4910                 1.4755                 1.4656
 IR Inten    --      6.4273                 3.2047                 1.9303

                     82                     83                     84
                      A                      A                      A
 Frequencies --   1541.5022              1544.6038              1735.7360
 Red. masses --      1.1122                 1.1600                 4.4544
 Frc consts  --      1.5571                 1.6306                 7.9070
 IR Inten    --      4.1443                 0.0366                 3.9574

                     85                     86                     87
                      A                      A                      A
 Frequencies --   2881.8931              2888.1916              2891.0609
 Red. masses --      1.0740                 1.0803                 1.0722
 Frc consts  --      5.2556                 5.3092                 5.2802
 IR Inten    --     27.8893                90.0717                84.6810

                     88                     89                     90
                      A                      A                      A
 Frequencies --   2926.8791              2943.7939              2982.9392
 Red. masses --      1.0631                 1.0723                 1.0817
 Frc consts  --      5.3657                 5.4750                 5.6707
 IR Inten    --    141.5130                87.7029                27.2297

                     91                     92                     93
                      A                      A                      A
 Frequencies --   3023.3100              3033.5704              3047.0432
 Red. masses --      1.0688                 1.0610                 1.0706
 Frc consts  --      5.7561                 5.7528                 5.8567
 IR Inten    --     24.4944                45.7605                26.5741

                     94                     95                     96
                      A                      A                      A
 Frequencies --   3054.3052              3055.7213              3064.1412
 Red. masses --      1.0388                 1.0871                 1.0854
 Frc consts  --      5.7097                 5.9806                 6.0040
 IR Inten    --     20.5821                22.1622                68.7491

                     97                     98                     99
                      A                      A                      A
 Frequencies --   3066.4429              3072.5065              3074.6537
 Red. masses --      1.0826                 1.0726                 1.1038
 Frc consts  --      5.9975                 5.9657                 6.1482
 IR Inten    --      2.1059                70.9726                35.6979

                    100                    101                    102
                      A                      A                      A
 Frequencies --   3092.2364              3115.2968              3118.0922
 Red. masses --      1.0929                 1.1039                 1.0994
 Frc consts  --      6.1572                 6.3123                 6.2980
 IR Inten    --     75.1204                36.0985                26.9893

                    103                    104                    105
                      A                      A                      A
 Frequencies --   3133.9403              3141.0642              3159.4869
 Red. masses --      1.0940                 1.1032                 1.0750
 Frc consts  --      6.3307                 6.4128                 6.3228
 IR Inten    --      8.7909                26.4961                16.6582

                    106                    107                    108
                      A                      A                      A
 Frequencies --   3174.3780              3246.3904              3499.4390
 Red. masses --      1.0738                 1.1155                 1.0746
 Frc consts  --      6.3752                 6.9263                 7.7531
 IR Inten    --      7.4723                15.1875                 0.9926

 - Thermochemistry -
 -------------------
 Temperature   298.150 Kelvin.  Pressure   1.00000 Atm.
 Atom     1 has atomic number  6 and mass  12.00000

 Molecular mass:   196.19395 amu.
 Principal axes and moments of inertia in atomic units:
                           1         2         3
     Eigenvalues --  1509.977745627.730036157.62039
           X            1.00000   0.00138   0.00036
           Y           -0.00138   0.99973   0.02313
           Z           -0.00033  -0.02313   0.99973
 This molecule is an asymmetric top.
 Rotational symmetry number  1.
 Warning -- assumption of classical behavior for rotation
           may cause significant error
 Rotational temperatures (Kelvin)      0.05736     0.01539     0.01407
 Rotational constants (GHZ):           1.19521     0.32069     0.29309
 Zero-point vibrational energy     926285.3 (Joules/Mol)
                                  221.38750 (Kcal/Mol)
 Warning -- explicit consideration of  24 degrees of freedom as
           vibrations may cause significant error
 Vibrational temperatures:     33.87    44.93    61.82   106.75   139.75
          (Kelvin)            230.52   289.86   331.06   338.74   355.77
                              387.97   402.95   411.42   455.51   525.80
                              530.52   541.54   569.51   616.46   662.89
                              709.09   754.96   811.32   865.75   955.19
                             1122.97  1134.53  1147.54  1193.92  1216.86
                             1252.23  1324.42  1346.55  1363.39  1389.00
                             1446.14  1453.78  1462.45  1487.10  1503.10
                             1513.99  1523.92  1579.67  1592.50  1622.91
                             1631.94  1650.12  1673.79  1701.23  1705.65
                             1717.91  1741.99  1769.79  1819.57  1875.05
                             1894.46  1906.20  1918.03  1928.04  1945.75
                             1958.21  1965.66  1995.39  2015.28  2017.47
                             2034.13  2050.13  2062.62  2066.11  2074.61
                             2122.25  2136.33  2163.76  2164.87  2177.32
                             2180.83  2186.49  2187.94  2191.31  2203.99
                             2211.48  2217.88  2222.34  2497.34  4146.40
                             4155.46  4159.59  4211.13  4235.46  4291.78
                             4349.87  4364.63  4384.02  4394.46  4396.50
                             4408.62  4411.93  4420.65  4423.74  4449.04
                             4482.22  4486.24  4509.04  4519.29  4545.80
                             4567.22  4670.83  5034.91

 Zero-point correction=                           0.352803 (Hartree/Particle)
 Thermal correction to Energy=                    0.368270
 Thermal correction to Enthalpy=                  0.369215
 Thermal correction to Gibbs Free Energy=         0.309082
 Sum of electronic and zero-point Energies=           -580.905738
 Sum of electronic and thermal Energies=              -580.890271
 Sum of electronic and thermal Enthalpies=            -580.889327
 Sum of electronic and thermal Free Energies=         -580.949459

                     E (Thermal)             CV                S
                      KCal/Mol        Cal/Mol-Kelvin    Cal/Mol-Kelvin
 Total                  231.093             59.463            126.559
 Electronic               0.000              0.000              0.000
 Translational            0.889              2.981             41.727
 Rotational               0.889              2.981             32.326
 Vibrational            229.316             53.502             52.506
 Vibration     1          0.593              1.985              6.311
 Vibration     2          0.594              1.983              5.750
 Vibration     3          0.595              1.980              5.117
 Vibration     4          0.599              1.966              4.039
 Vibration     5          0.603              1.951              3.511
 Vibration     6          0.622              1.891              2.547
 Vibration     7          0.638              1.838              2.120
 Vibration     8          0.652              1.795              1.878
 Vibration     9          0.655              1.787              1.837
 Vibration    10          0.661              1.767              1.750
 Vibration    11          0.674              1.729              1.598
 Vibration    12          0.680              1.710              1.533
 Vibration    13          0.684              1.700              1.498
 Vibration    14          0.703              1.642              1.328
 Vibration    15          0.739              1.543              1.099
 Vibration    16          0.741              1.537              1.085
 Vibration    17          0.747              1.520              1.054
 Vibration    18          0.763              1.479              0.978
 Vibration    19          0.790              1.408              0.864
 Vibration    20          0.819              1.337              0.764
 Vibration    21          0.849              1.266              0.676
 Vibration    22          0.880              1.195              0.599
 Vibration    23          0.920              1.109              0.516
 Vibration    24          0.960              1.028              0.447

 Optimization completed.
    -- Stationary point found.
 Normal termination of Gaussian 16 at Thu Dec 10 09:40:11 2020.

 ----------------------------------------------------------------------
 # B3LYP/6-311++G(d,p) empiricaldispersion=gd3bj scf=xqc pop=npa geom=c
 heck
 ----------------------------------------------------------------------

 ---------------------------------------
 CID_107908232_JID_4375_Energie_neutraal
 ---------------------------------------
 Structure from the checkpoint file:  "JID_4375.chk"
 Charge =  0 Multiplicity = 1

 SCF Done:  E(RB3LYP) =  -581.423397837     A.U. after   14 cycles
 Normal termination of Gaussian 16 at Thu Dec 10 09:46:53 2020.

 ----------------------------------------------------------------------
 # B3LYP/6-311++G(d,p) empiricaldispersion=gd3bj scf=xqc pop=npa geom=c
 heck
 ----------------------------------------------------------------------

 -------------------------------------
 CID_107908232_JID_4375_Energie_kation
 -------------------------------------
 Structure from the checkpoint file:  "JID_4375.chk"
 Charge =  1 Multiplicity = 2

 SCF Done:  E(UB3LYP) =  -581.146723603     A.U. after   25 cycles
 Normal termination of Gaussian 16 at Thu Dec 10 10:03:39 2020.
 Gaussian 16:  ES64L-G16RevA.03 25-Dec-2016

 ----------------------------------------------------------------------
 # B3LYP/6-311++G(d,p) empiricaldispersion=gd3bj scf=xqc pop=npa geom=c
 heck
 ----------------------------------------------------------------------

 ------------------------------------
 CID_107908232_JID_4375_Energie_anion
 ------------------------------------
 Structure from the checkpoint file:  "JID_4375.chk"
 Charge = -1 Multiplicity = 2

                         Standard orientation:
 ---------------------------------------------------------------------
 Center     Atomic      Atomic             Coordinates (Angstroms)
 Number     Number       Type             X           Y           Z
 ---------------------------------------------------------------------
      1          6           0       -3.763892   -1.272269   -1.047092
      2          6           0       -3.277636   -0.040386   -0.285617
      3          6           0       -2.930013   -0.321567    1.160644
      4          6           0       -2.816463   -1.520003    1.731161
      5          7           0       -2.126710    0.523674   -1.014859
      6          6           0       -1.603392    1.803431   -0.520735
      7          6           0       -0.417824    1.692528    0.449497
      8          6           0        0.837739    1.009201   -0.115732
      9          6           0        0.742661   -0.524644   -0.124139
     10          6           0        2.040535   -1.161088   -0.617826
     11          7           0        3.185360   -0.736895    0.185977
     12          6           0        3.342256    0.713833    0.149643
     13          6           0        2.091156    1.419129    0.672730
     14          6           0        4.403445   -1.411362   -0.224733
     15          1           0       -2.968649   -2.020947   -1.115857
     16          1           0       -4.056431   -0.998511   -2.067666
     17          1           0       -4.632620   -1.720309   -0.555742
     18          1           0       -4.108501    0.695735   -0.257215
     19          1           0       -2.784728    0.563297    1.778221
     20          1           0       -2.573184   -1.620653    2.785277
     21          1           0       -2.956576   -2.444860    1.179531
     22          1           0       -2.420213    0.646624   -1.980917
     23          1           0       -1.261877    2.371869   -1.395062
     24          1           0       -2.398382    2.411703   -0.049654
     25          1           0       -0.161359    2.720664    0.745237
     26          1           0       -0.718636    1.177478    1.368744
     27          1           0        0.975148    1.346369   -1.156967
     28          1           0       -0.099717   -0.839874   -0.743873
     29          1           0        0.541877   -0.873717    0.897589
     30          1           0        2.192830   -0.907550   -1.689626
     31          1           0        1.969473   -2.254015   -0.558915
     32          1           0        4.211401    0.980966    0.763136
     33          1           0        3.556949    1.067505   -0.882423
     34          1           0        2.237602    2.506072    0.621153
     35          1           0        1.953789    1.158057    1.730819
     36          1           0        4.695282   -1.185825   -1.270724
     37          1           0        5.231282   -1.112605    0.428090
     38          1           0        4.273255   -2.495741   -0.137794
 ---------------------------------------------------------------------

 SCF Done:  E(UB3LYP) =  -581.407700917     A.U. after   32 cycles

 The electronic state is 2-A.
 Alpha  occ. eigenvalues --  -14.20831 -14.19260 -10.10415 -10.09421 -10.09385
 Alpha  occ. eigenvalues --  -10.09017 -10.08815 -10.07919 -10.07094 -10.06756
 Alpha  occ. eigenvalues --  -10.06487 -10.06073 -10.05945 -10.05159  -0.83353
 Alpha  occ. eigenvalues --   -0.80620  -0.71405  -0.69077  -0.65321  -0.64611
 Alpha  occ. eigenvalues --   -0.61820  -0.58272  -0.54137  -0.52730  -0.51877
 Alpha  occ. eigenvalues --   -0.47773  -0.45333  -0.43937  -0.39465  -0.39307
 Alpha  occ. eigenvalues --   -0.38193  -0.36681  -0.36569  -0.35901  -0.33882
 Alpha  occ. eigenvalues --   -0.33585  -0.32718  -0.32033  -0.30391  -0.29459
 Alpha  occ. eigenvalues --   -0.29064  -0.28771  -0.27858  -0.26924  -0.25945
 Alpha  occ. eigenvalues --   -0.25177  -0.24844  -0.23910  -0.23388  -0.22072
 Alpha  occ. eigenvalues --   -0.20940  -0.20531  -0.17271  -0.12759  -0.12255
 Alpha  occ. eigenvalues --    0.04483
 Alpha virt. eigenvalues --    0.05913   0.06925   0.07246   0.08046   0.08149
 Alpha virt. eigenvalues --    0.08626   0.09082   0.09345   0.09874   0.10073
 Alpha virt. eigenvalues --    0.10569   0.11271   0.11482   0.11988   0.12500

  Beta  occ. eigenvalues --  -14.20823 -14.19229 -10.10403 -10.09402 -10.09372
  Beta  occ. eigenvalues --  -10.09010 -10.08787 -10.07901 -10.07077 -10.06750
  Beta  occ. eigenvalues --  -10.06478 -10.06066 -10.05912 -10.05157  -0.83337
  Beta  occ. eigenvalues --   -0.80575  -0.71385  -0.69034  -0.65302  -0.64576
  Beta  occ. eigenvalues --   -0.61780  -0.58225  -0.54069  -0.52707  -0.51824
  Beta  occ. eigenvalues --   -0.47725  -0.45305  -0.43879  -0.39416  -0.39261
  Beta  occ. eigenvalues --   -0.38144  -0.36657  -0.36531  -0.35873  -0.33859
  Beta  occ. eigenvalues --   -0.33554  -0.32697  -0.31995  -0.30360  -0.29427
  Beta  occ. eigenvalues --   -0.29036  -0.28742  -0.27830  -0.26888  -0.25912
  Beta  occ. eigenvalues --   -0.25139  -0.24826  -0.23872  -0.23349  -0.22047
  Beta  occ. eigenvalues --   -0.20918  -0.20512  -0.17185  -0.12708  -0.12198
  Beta virt. eigenvalues --    0.06314   0.06907   0.07405   0.07610   0.08376
  Beta virt. eigenvalues --    0.08524   0.08929   0.09308   0.09841   0.10128
  Beta virt. eigenvalues --    0.10422   0.10876   0.11546   0.11604   0.12058

 Mulliken charges and spin densities:
               1          2
     1  C    1.301148  -1.990602
     2  C   -0.339077  -0.128222
     3  C   -0.171003   0.459551
     4  C   -0.342238  -0.141297
     5  N   -0.159796   0.219240
     6  C    0.262532  -0.945242
     7  C   -0.471962   0.446247
     8  C    0.834506  -0.467808
     9  C   -0.440379   0.194409
    10  C    0.039065  -0.654700
    11  N   -0.007446   0.163075
    12  C    0.270423  -0.802006
    13  C   -0.563242   0.236554
    14  C    0.225013  -0.501575
    15  H   -0.017375   0.157097
    16  H   -0.400168   0.549838
    17  H   -0.055068   0.193523
    18  H   -0.524547   0.683406
    19  H    0.001387   0.158377
    20  H    0.081525   0.039903
    21  H    0.002869   0.116434
    22  H    0.073303   0.193216
    23  H   -0.949631   1.111543
    24  H    0.039399   0.108759
    25  H   -0.057666   0.227824
    26  H    0.099960  -0.035480
    27  H    0.314117  -0.165579
    28  H    0.161677   0.001508
    29  H    0.165863   0.006939
    30  H   -0.077329   0.198685
    31  H    0.151792   0.014201
    32  H   -0.142862   0.315075
    33  H   -0.024996   0.128702
    34  H   -0.147675   0.274441
    35  H    0.132487   0.021735
    36  H   -0.010698   0.112885
    37  H   -0.161577   0.289491
    38  H   -0.092332   0.209853
 Sum of Mulliken charges =  -1.00000   1.00000

 Dipole moment (field-independent basis, Debye):
    X=              2.8440    Y=             -2.4064    Z=              3.9515  Tot=              5.4308
 Quadrupole moment (field-independent basis, Debye-Ang):
   XX=           -185.7735   YY=           -132.0484   ZZ=           -128.8472
   XY=              4.6896   XZ=            -13.4212   YZ=              5.3761

 Summary of Natural Population Analysis:

                                       Natural Population
                Natural  -----------------------------------------------
    Atom  No    Charge         Core      Valence    Rydberg      Total
 -----------------------------------------------------------------------
      C    1   -0.28853      0.99965     2.28155    0.00733     3.28853
      C    2   -0.02643      0.99958     2.01288    0.01397     3.02643
      C    3   -0.07875      0.99955     2.06826    0.01094     3.07875
      C    4   -0.19177      0.99956     2.18609    0.00612     3.19177
      N    5   -0.34498      0.99972     2.83084    0.01443     3.84498
      C    6   -0.08465      0.99962     2.07234    0.01269     3.08465
      C    7   -0.18912      0.99960     2.18023    0.00929     3.18912
      C    8   -0.10982      0.99958     2.09970    0.01053     3.10982
      C    9   -0.19793      0.99960     2.18967    0.00866     3.19793
      C   10   -0.08224      0.99961     2.07166    0.01096     3.08224
      N   11   -0.27982      0.99971     2.76850    0.01161     3.77982
      C   12   -0.08309      0.99961     2.07140    0.01208     3.08309
      C   13   -0.19001      0.99961     2.18062    0.00978     3.19001
      C   14   -0.17533      0.99965     2.16717    0.00851     3.17533
      H   15    0.09943      0.00000     0.39933    0.00124     0.40057
      H   16    0.10389      0.00000     0.39459    0.00152     0.39611
      H   17    0.10048      0.00000     0.39856    0.00096     0.39952
      H   18    0.08451      0.00000     0.41243    0.00306     0.41549
      H   19    0.09282      0.00000     0.40586    0.00132     0.40718
      H   20    0.09154      0.00000     0.40745    0.00101     0.40846
      H   21    0.09230      0.00000     0.40668    0.00102     0.40770
      H   22    0.18052      0.00000     0.31467    0.00481     0.31948
      H   23    0.09593      0.00000     0.40221    0.00186     0.40407
      H   24    0.08141      0.00000     0.41685    0.00174     0.41859
      H   25    0.09593      0.00000     0.40290    0.00117     0.40407
      H   26    0.09561      0.00000     0.40283    0.00156     0.40439
      H   27    0.09174      0.00000     0.40601    0.00225     0.40826
      H   28    0.11706      0.00000     0.38155    0.00138     0.38294
      H   29    0.09494      0.00000     0.40355    0.00151     0.40506
      H   30    0.07747      0.00000     0.42106    0.00147     0.42253
      H   31    0.09399      0.00000     0.40492    0.00109     0.40601
      H   32    0.09495      0.00000     0.40381    0.00124     0.40505
      H   33    0.07726      0.00000     0.42109    0.00165     0.42274
      H   34    0.09841      0.00000     0.40067    0.00092     0.40159
      H   35    0.09544      0.00000     0.40307    0.00149     0.40456
      H   36    0.07901      0.00000     0.41959    0.00140     0.42099
      H   37    0.09439      0.00000     0.40446    0.00115     0.40561
      H   38    0.09345      0.00000     0.40553    0.00103     0.40655
 =======================================================================
   * Total *   -0.00000     13.99465    40.82060    0.18474    55.00000

 Normal termination of Gaussian 16 at Thu Dec 10 10:25:11 2020.
