 Gaussian 16, Revision A.03,

 -----------------------------------------------------------
 # opt freq B3LYP/6-31G(d) empiricaldispersion=gd3bj scf=xqc
 -----------------------------------------------------------

 ------------------------------
 CID_64570072_JID_9963_neutraal
 ------------------------------
 Symbolic Z-matrix:
 Charge =  0 Multiplicity = 1

 SCF Done:  E(RB3LYP) =  -787.868098348     A.U. after   14 cycles
 SCF Done:  E(RB3LYP) =  -787.870100684     A.U. after   13 cycles
 SCF Done:  E(RB3LYP) =  -787.868043713     A.U. after   13 cycles
 SCF Done:  E(RB3LYP) =  -787.870685871     A.U. after   12 cycles
 SCF Done:  E(RB3LYP) =  -787.872560547     A.U. after   12 cycles
 SCF Done:  E(RB3LYP) =  -787.873389487     A.U. after   12 cycles
 SCF Done:  E(RB3LYP) =  -787.873537728     A.U. after   11 cycles
 SCF Done:  E(RB3LYP) =  -787.873605248     A.U. after   11 cycles
 SCF Done:  E(RB3LYP) =  -787.873670489     A.U. after   10 cycles
 SCF Done:  E(RB3LYP) =  -787.873690320     A.U. after   10 cycles
 SCF Done:  E(RB3LYP) =  -787.873694303     A.U. after    9 cycles
 SCF Done:  E(RB3LYP) =  -787.873695545     A.U. after    8 cycles
 SCF Done:  E(RB3LYP) =  -787.873695733     A.U. after    7 cycles
 SCF Done:  E(RB3LYP) =  -787.873695869     A.U. after    6 cycles
 Optimization completed.
    -- Stationary point found.
 Normal termination of Gaussian 16 at Sat Dec 12 10:15:31 2020.

 --------------------------------------------------------------------
 #N Geom=AllCheck Guess=TCheck SCRF=Check GenChk RB3LYP/6-31G(d) Freq
 --------------------------------------------------------------------

 Structure from the checkpoint file:  "JID_9963.chk"
 ------------------------------
 CID_64570072_JID_9963_neutraal
 ------------------------------
 Charge =  0 Multiplicity = 1

 SCF Done:  E(RB3LYP) =  -787.873695869     A.U. after    1 cycles

  Exact polarizability: 191.875 -41.023 179.037  -7.654  -6.568 160.674
 Approx polarizability: 279.186 -73.523 273.138 -23.646 -17.949 279.643

                      1                      2                      3
                      A                      A                      A
 Frequencies --     24.6874                46.7908                51.4384
 Red. masses --      3.7818                 3.6167                 3.7536
 Frc consts  --      0.0014                 0.0047                 0.0059
 IR Inten    --      0.0330                 0.0379                 0.1825

                      4                      5                      6
                      A                      A                      A
 Frequencies --     68.4085                86.2284                92.6531
 Red. masses --      3.9865                 3.8444                 3.1644
 Frc consts  --      0.0110                 0.0168                 0.0160
 IR Inten    --      0.0084                 0.0607                 0.0173

                      7                      8                      9
                      A                      A                      A
 Frequencies --    120.2129               132.7688               158.2938
 Red. masses --      4.6548                 3.0960                 3.4290
 Frc consts  --      0.0396                 0.0322                 0.0506
 IR Inten    --      0.1846                 0.6609                 0.1814

                     10                     11                     12
                      A                      A                      A
 Frequencies --    223.3996               236.5682               246.4535
 Red. masses --      3.2996                 1.4765                 2.0480
 Frc consts  --      0.0970                 0.0487                 0.0733
 IR Inten    --      1.0595                 0.9559                 0.7608

                     13                     14                     15
                      A                      A                      A
 Frequencies --    266.9144               276.3660               281.1973
 Red. masses --      1.6914                 1.5290                 1.1590
 Frc consts  --      0.0710                 0.0688                 0.0540
 IR Inten    --      1.1237                 1.5243                 0.0441

                     16                     17                     18
                      A                      A                      A
 Frequencies --    314.9582               324.2472               346.6447
 Red. masses --      2.2489                 3.7695                 2.4938
 Frc consts  --      0.1314                 0.2335                 0.1766
 IR Inten    --      0.3303                 0.4968                 0.6513

                     19                     20                     21
                      A                      A                      A
 Frequencies --    358.8854               372.3073               403.5085
 Red. masses --      2.7586                 2.8678                 2.8793
 Frc consts  --      0.2093                 0.2342                 0.2762
 IR Inten    --      0.8697                 0.2738                 0.4011

                     22                     23                     24
                      A                      A                      A
 Frequencies --    418.7475               422.2752               471.2442
 Red. masses --      2.9676                 2.7509                 3.4168
 Frc consts  --      0.3066                 0.2890                 0.4471
 IR Inten    --      0.0442                 0.3680                 4.8851

                     25                     26                     27
                      A                      A                      A
 Frequencies --    496.9315               511.2206               531.9643
 Red. masses --      2.4756                 1.7016                 2.9501
 Frc consts  --      0.3602                 0.2620                 0.4919
 IR Inten    --      6.7303                35.9919                11.0951

                     28                     29                     30
                      A                      A                      A
 Frequencies --    561.3204               633.7819               684.0815
 Red. masses --      3.3853                 6.2194                 3.7601
 Frc consts  --      0.6284                 1.4719                 1.0367
 IR Inten    --      0.5495                 0.0737                21.7333

                     31                     32                     33
                      A                      A                      A
 Frequencies --    700.3664               708.8037               715.7484
 Red. masses --      3.9307                 5.4268                 2.1787
 Frc consts  --      1.1360                 1.6064                 0.6576
 IR Inten    --      6.2923                 6.3241                14.9095

                     34                     35                     36
                      A                      A                      A
 Frequencies --    733.9524               758.0410               783.7110
 Red. masses --      2.2391                 2.1733                 1.9866
 Frc consts  --      0.7107                 0.7358                 0.7189
 IR Inten    --     38.1146                 1.6229                20.4924

                     37                     38                     39
                      A                      A                      A
 Frequencies --    840.4078               863.8791               871.3850
 Red. masses --      1.5732                 1.2471                 1.3185
 Frc consts  --      0.6546                 0.5484                 0.5899
 IR Inten    --    105.5364                 0.0363                18.0532

                     40                     41                     42
                      A                      A                      A
 Frequencies --    904.4480               930.8382               933.8977
 Red. masses --      1.7886                 1.4075                 1.9590
 Frc consts  --      0.8621                 0.7185                 1.0066
 IR Inten    --      0.4265                 7.1524                 1.8190

                     43                     44                     45
                      A                      A                      A
 Frequencies --    942.1468               949.8126               963.6818
 Red. masses --      1.4535                 1.2658                 4.7456
 Frc consts  --      0.7602                 0.6728                 2.5966
 IR Inten    --      4.6102                 6.6176                39.4225

                     46                     47                     48
                      A                      A                      A
 Frequencies --    972.5457               976.7704               986.4136
 Red. masses --      1.3479                 1.5167                 1.9017
 Frc consts  --      0.7511                 0.8526                 1.0902
 IR Inten    --      0.1979                 0.6200                 3.0430

                     49                     50                     51
                      A                      A                      A
 Frequencies --    997.8784              1021.2965              1028.7808
 Red. masses --      1.2534                 5.9384                 1.6190
 Frc consts  --      0.7354                 3.6494                 1.0096
 IR Inten    --      0.2155                 0.4348                 2.3772

                     52                     53                     54
                      A                      A                      A
 Frequencies --   1037.7600              1067.5336              1068.8740
 Red. masses --      4.6897                 2.1060                 1.9967
 Frc consts  --      2.9757                 1.4141                 1.3441
 IR Inten    --      0.3560                 4.2947                 0.7402

                     55                     56                     57
                      A                      A                      A
 Frequencies --   1097.9964              1111.0457              1144.3028
 Red. masses --      1.8862                 1.6151                 2.5091
 Frc consts  --      1.3398                 1.1746                 1.9358
 IR Inten    --      4.8338                 3.8131                28.6151

                     58                     59                     60
                      A                      A                      A
 Frequencies --   1154.5711              1161.9305              1172.6635
 Red. masses --      4.4756                 2.2230                 1.8073
 Frc consts  --      3.5151                 1.7683                 1.4643
 IR Inten    --     51.2540                 3.0148                 7.7569

                     61                     62                     63
                      A                      A                      A
 Frequencies --   1190.1244              1195.5308              1214.8531
 Red. masses --      1.8887                 1.0967                 1.1436
 Frc consts  --      1.5762                 0.9235                 0.9945
 IR Inten    --      1.9510                 0.0399                 0.1275

                     64                     65                     66
                      A                      A                      A
 Frequencies --   1220.8678              1227.7961              1238.6947
 Red. masses --      1.8514                 3.7692                 1.9269
 Frc consts  --      1.6259                 3.3477                 1.7420
 IR Inten    --      2.9103                 1.5219                 1.8388

                     67                     68                     69
                      A                      A                      A
 Frequencies --   1278.1542              1307.0248              1317.1299
 Red. masses --      1.3553                 2.3053                 1.5043
 Frc consts  --      1.3045                 2.3203                 1.5376
 IR Inten    --      8.7133                12.2374                 6.2391

                     70                     71                     72
                      A                      A                      A
 Frequencies --   1345.7994              1349.1100              1354.2910
 Red. masses --      2.5377                 1.3570                 1.3487
 Frc consts  --      2.7080                 1.4552                 1.4575
 IR Inten    --      8.9973                 3.4748                 2.9410

                     73                     74                     75
                      A                      A                      A
 Frequencies --   1360.4520              1368.3148              1390.0947
 Red. masses --      1.8618                 1.8719                 1.3158
 Frc consts  --      2.0302                 2.0649                 1.4981
 IR Inten    --     11.2843                 0.1162                 0.7185

                     76                     77                     78
                      A                      A                      A
 Frequencies --   1406.6130              1413.0036              1427.7235
 Red. masses --      2.0188                 1.3135                 1.3650
 Frc consts  --      2.3534                 1.5452                 1.6394
 IR Inten    --      8.4344                 0.8129                 4.3455

                     79                     80                     81
                      A                      A                      A
 Frequencies --   1430.1669              1440.2767              1451.1984
 Red. masses --      1.3499                 1.2364                 2.3233
 Frc consts  --      1.6268                 1.5111                 2.8828
 IR Inten    --      0.1679                 8.4849                 4.2942

                     82                     83                     84
                      A                      A                      A
 Frequencies --   1452.9907              1490.1805              1505.5501
 Red. masses --      1.2619                 2.3958                 1.1177
 Frc consts  --      1.5696                 3.1346                 1.4926
 IR Inten    --      6.5844                 5.9237                 2.6356

                     85                     86                     87
                      A                      A                      A
 Frequencies --   1517.6765              1518.4771              1519.2622
 Red. masses --      2.0965                 1.1576                 1.0550
 Frc consts  --      2.8452                 1.5726                 1.4347
 IR Inten    --     15.2948                 3.4076                 4.1797

                     88                     89                     90
                      A                      A                      A
 Frequencies --   1526.6905              1536.1166              1538.7592
 Red. masses --      1.0757                 1.0764                 1.0673
 Frc consts  --      1.4772                 1.4966                 1.4889
 IR Inten    --      0.7641                 9.6178                 2.4856

                     91                     92                     93
                      A                      A                      A
 Frequencies --   1541.5512              1547.1496              1549.9904
 Red. masses --      1.0814                 1.1039                 2.6229
 Frc consts  --      1.5141                 1.5568                 3.7127
 IR Inten    --      1.5089                28.2006                13.7273

                     94                     95                     96
                      A                      A                      A
 Frequencies --   1554.4941              1617.7886              1639.0336
 Red. masses --      1.0705                 4.5953                 5.5191
 Frc consts  --      1.5241                 7.0861                 8.7356
 IR Inten    --      5.8890                 2.2067                 1.4791

                     97                     98                     99
                      A                      A                      A
 Frequencies --   1667.4423              2952.8105              3025.9244
 Red. masses --      5.6642                 1.0705                 1.0818
 Frc consts  --      9.2787                 5.4996                 5.8360
 IR Inten    --      9.0317                36.5928                11.5442

                    100                    101                    102
                      A                      A                      A
 Frequencies --   3034.2583              3039.0543              3040.3267
 Red. masses --      1.0615                 1.0391                 1.0572
 Frc consts  --      5.7578                 5.6543                 5.7578
 IR Inten    --     47.4909                13.8297                 7.8690

                    103                    104                    105
                      A                      A                      A
 Frequencies --   3045.9880              3047.2635              3051.7854
 Red. masses --      1.0573                 1.0546                 1.0776
 Frc consts  --      5.7797                 5.7697                 5.9128
 IR Inten    --     42.5501                40.0368                36.1616

                    106                    107                    108
                      A                      A                      A
 Frequencies --   3071.1679              3097.6723              3103.9439
 Red. masses --      1.1026                 1.1013                 1.1013
 Frc consts  --      6.1276                 6.2261                 6.2517
 IR Inten    --     27.9088                 1.6750                20.2017

                    109                    110                    111
                      A                      A                      A
 Frequencies --   3105.9303              3123.7895              3129.9139
 Red. masses --      1.1004                 1.1001                 1.1000
 Frc consts  --      6.2546                 6.3250                 6.3488
 IR Inten    --     95.5011                32.9102                37.9481

                    112                    113                    114
                      A                      A                      A
 Frequencies --   3137.8755              3186.3837              3191.7804
 Red. masses --      1.0990                 1.0856                 1.0873
 Frc consts  --      6.3753                 6.4939                 6.5262
 IR Inten    --     17.5223                 3.5967                 0.0380

                    115                    116                    117
                      A                      A                      A
 Frequencies --   3200.0777              3207.3901              3216.8619
 Red. masses --      1.0909                 1.0944                 1.0981
 Frc consts  --      6.5822                 6.6335                 6.6952
 IR Inten    --      8.5061                23.5599                13.5725

                    118                    119                    120
                      A                      A                      A
 Frequencies --   3248.4322              3533.9626              3656.2673
 Red. masses --      1.0958                 1.0724                 1.0809
 Frc consts  --      6.8131                 7.8910                 8.5136
 IR Inten    --     11.2141                 2.0726                58.2484

 - Thermochemistry -
 -------------------
 Temperature   298.150 Kelvin.  Pressure   1.00000 Atm.
 Atom     1 has atomic number  6 and mass  12.00000

 Molecular mass:   257.18920 amu.
 Principal axes and moments of inertia in atomic units:
                           1         2         3
     Eigenvalues --  3784.896785541.404827298.36624
           X            0.99990   0.00804   0.01193
           Y           -0.00813   0.99994   0.00784
           Z           -0.01186  -0.00793   0.99990
 This molecule is an asymmetric top.
 Rotational symmetry number  1.
 Warning -- assumption of classical behavior for rotation
           may cause significant error
 Rotational temperatures (Kelvin)      0.02288     0.01563     0.01187
 Rotational constants (GHZ):           0.47683     0.32568     0.24728
 Zero-point vibrational energy     974150.3 (Joules/Mol)
                                  232.82752 (Kcal/Mol)
 Warning -- explicit consideration of  28 degrees of freedom as
           vibrations may cause significant error
 Vibrational temperatures:     35.52    67.32    74.01    98.42   124.06
          (Kelvin)            133.31   172.96   191.02   227.75   321.42
                              340.37   354.59   384.03   397.63   404.58
                              453.15   466.52   498.74   516.36   535.67
                              580.56   602.48   607.56   678.02   714.97
                              735.53   765.38   807.61   911.87   984.24
                             1007.67  1019.81  1029.80  1055.99  1090.65
                             1127.59  1209.16  1242.93  1253.73  1301.30
                             1339.27  1343.67  1355.54  1366.57  1386.52
                             1399.28  1405.35  1419.23  1435.72  1469.42
                             1480.19  1493.11  1535.94  1537.87  1579.77
                             1598.55  1646.40  1661.17  1671.76  1687.20
                             1712.32  1720.10  1747.90  1756.56  1766.52
                             1782.21  1838.98  1880.52  1895.06  1936.31
                             1941.07  1948.52  1957.39  1968.70  2000.04
                             2023.80  2033.00  2054.18  2057.69  2072.24
                             2087.95  2090.53  2144.04  2166.15  2183.60
                             2184.75  2185.88  2196.57  2210.13  2213.93
                             2217.95  2226.00  2230.09  2236.57  2327.64
                             2358.20  2399.08  4248.44  4353.63  4365.62
                             4372.52  4374.35  4382.50  4384.33  4390.84
                             4418.73  4456.86  4465.88  4468.74  4494.44
                             4503.25  4514.70  4584.50  4592.26  4604.20
                             4614.72  4628.35  4673.77  5084.58  5260.55

 Zero-point correction=                           0.371034 (Hartree/Particle)
 Thermal correction to Energy=                    0.389484
 Thermal correction to Enthalpy=                  0.390428
 Thermal correction to Gibbs Free Energy=         0.324184
 Sum of electronic and zero-point Energies=           -787.502662
 Sum of electronic and thermal Energies=              -787.484212
 Sum of electronic and thermal Enthalpies=            -787.483268
 Sum of electronic and thermal Free Energies=         -787.549512

                     E (Thermal)             CV                S
                      KCal/Mol        Cal/Mol-Kelvin    Cal/Mol-Kelvin
 Total                  244.405             71.894            139.423
 Electronic               0.000              0.000              0.000
 Translational            0.889              2.981             42.534
 Rotational               0.889              2.981             33.392
 Vibrational            242.627             65.933             63.497
 Vibration     1          0.593              1.985              6.216
 Vibration     2          0.595              1.979              4.949
 Vibration     3          0.596              1.977              4.761
 Vibration     4          0.598              1.969              4.199
 Vibration     5          0.601              1.959              3.744
 Vibration     6          0.602              1.954              3.603
 Vibration     7          0.609              1.932              3.097
 Vibration     8          0.613              1.921              2.906
 Vibration     9          0.621              1.893              2.570
 Vibration    10          0.649              1.805              1.931
 Vibration    11          0.655              1.785              1.829
 Vibration    12          0.661              1.769              1.756
 Vibration    13          0.672              1.734              1.616
 Vibration    14          0.678              1.717              1.556
 Vibration    15          0.681              1.708              1.526
 Vibration    16          0.702              1.645              1.336
 Vibration    17          0.709              1.627              1.289
 Vibration    18          0.725              1.582              1.181
 Vibration    19          0.734              1.557              1.127
 Vibration    20          0.744              1.529              1.070
 Vibration    21          0.769              1.463              0.950
 Vibration    22          0.782              1.430              0.896
 Vibration    23          0.785              1.422              0.884
 Vibration    24          0.828              1.314              0.734
 Vibration    25          0.852              1.257              0.666
 Vibration    26          0.866              1.225              0.631
 Vibration    27          0.887              1.179              0.583
 Vibration    28          0.917              1.115              0.521

                           ! Non-Optimized Parameters !
 Normal termination of Gaussian 16 at Sat Dec 12 10:38:36 2020.

 ----------------------------------------------------------------------
 # B3LYP/6-311++G(d,p) empiricaldispersion=gd3bj scf=xqc pop=npa geom=c
 heck
 ----------------------------------------------------------------------

 --------------------------------------
 CID_64570072_JID_9963_Energie_neutraal
 --------------------------------------
 Structure from the checkpoint file:  "JID_9963.chk"
 Charge =  0 Multiplicity = 1

 SCF Done:  E(RB3LYP) =  -788.085794411     A.U. after   15 cycles
 Normal termination of Gaussian 16 at Sat Dec 12 10:47:52 2020.

 ----------------------------------------------------------------------
 # B3LYP/6-311++G(d,p) empiricaldispersion=gd3bj scf=xqc pop=npa geom=c
 heck
 ----------------------------------------------------------------------

 ------------------------------------
 CID_64570072_JID_9963_Energie_kation
 ------------------------------------
 Structure from the checkpoint file:  "JID_9963.chk"
 Charge =  1 Multiplicity = 2

 SCF Done:  E(UB3LYP) =  -787.794308612     A.U. after   30 cycles
 Normal termination of Gaussian 16 at Sat Dec 12 11:13:20 2020.
 Gaussian 16:  ES64L-G16RevA.03 25-Dec-2016

 ----------------------------------------------------------------------
 # B3LYP/6-311++G(d,p) empiricaldispersion=gd3bj scf=xqc pop=npa geom=c
 heck
 ----------------------------------------------------------------------

 -----------------------------------
 CID_64570072_JID_9963_Energie_anion
 -----------------------------------
 Structure from the checkpoint file:  "JID_9963.chk"
 Charge = -1 Multiplicity = 2

                         Standard orientation:
 ---------------------------------------------------------------------
 Center     Atomic      Atomic             Coordinates (Angstroms)
 Number     Number       Type             X           Y           Z
 ---------------------------------------------------------------------
      1          6           0       -3.586391   -0.032786   -1.007964
      2          6           0       -2.469672   -0.435869   -0.035038
      3          6           0       -2.949840   -0.176242    1.403333
      4          6           0       -1.955793   -1.902963   -0.195159
      5          6           0       -2.241222   -2.526506   -1.569211
      6          6           0       -0.439514   -1.997641    0.052272
      7          7           0       -0.022302   -1.479872    1.353466
      8          6           0        1.424152   -1.535994    1.579232
      9          6           0        2.304341   -0.872805    0.541118
     10          6           0        2.113168    0.342031   -0.118239
     11          7           0        3.135699    0.436034   -1.021027
     12          7           0        3.988379   -0.607263   -0.988161
     13          6           0        3.473746   -1.405919   -0.051813
     14          6           0        1.049951    1.348382   -0.039420
     15          6           0        0.488159    1.886749   -1.208628
     16          6           0       -0.554524    2.808924   -1.135697
     17          6           0       -1.059518    3.201323    0.104842
     18          6           0       -0.503302    2.678133    1.274116
     19          6           0        0.547802    1.766712    1.203884
     20          1           0       -4.480820   -0.653867   -0.873606
     21          1           0       -3.275547   -0.110513   -2.054251
     22          1           0       -3.878074    1.008309   -0.825845
     23          1           0       -1.624265    0.234106   -0.242436
     24          1           0       -3.883734   -0.721800    1.591478
     25          1           0       -2.225497   -0.512626    2.149872
     26          1           0       -3.146207    0.890121    1.564638
     27          1           0       -2.460060   -2.518673    0.562834
     28          1           0       -1.760746   -1.957713   -2.374829
     29          1           0       -1.850207   -3.549765   -1.611496
     30          1           0       -3.312422   -2.572716   -1.784532
     31          1           0       -0.132034   -3.051089    0.005092
     32          1           0        0.072643   -1.488136   -0.784902
     33          1           0       -0.315063   -0.509718    1.422265
     34          1           0        1.610292   -1.106167    2.572237
     35          1           0        1.716352   -2.591426    1.648002
     36          1           0        3.340557    1.220546   -1.622036
     37          1           0        3.954584   -2.350568    0.169666
     38          1           0        0.845944    1.547413   -2.176713
     39          1           0       -0.986433    3.205834   -2.049827
     40          1           0       -1.881114    3.909137    0.160665
     41          1           0       -0.885605    2.983936    2.243519
     42          1           0        0.995760    1.379898    2.114501
 ---------------------------------------------------------------------

 SCF Done:  E(UB3LYP) =  -788.079685922     A.U. after   33 cycles
 SCF Done:  E(UB3LYP) =  -788.079685922     a.u. after    1 cycles

 The electronic state is 2-A.
 Alpha  occ. eigenvalues --  -14.25773 -14.20618 -14.18203 -10.08999 -10.08489
 Alpha  occ. eigenvalues --  -10.07600 -10.07046 -10.06559 -10.06148 -10.05683
 Alpha  occ. eigenvalues --  -10.05241 -10.05112 -10.05011 -10.05007 -10.04932
 Alpha  occ. eigenvalues --  -10.04803 -10.04708 -10.04583 -10.03772  -0.92465
 Alpha  occ. eigenvalues --   -0.79652  -0.73868  -0.70830  -0.69957  -0.67367
 Alpha  occ. eigenvalues --   -0.64294  -0.62486  -0.62007  -0.58815  -0.57105
 Alpha  occ. eigenvalues --   -0.53789  -0.50305  -0.49426  -0.49279  -0.47917
 Alpha  occ. eigenvalues --   -0.44991  -0.43976  -0.42089  -0.38667  -0.37465
 Alpha  occ. eigenvalues --   -0.35463  -0.34959  -0.33905  -0.33561  -0.33169
 Alpha  occ. eigenvalues --   -0.32107  -0.31084  -0.31004  -0.30624  -0.30078
 Alpha  occ. eigenvalues --   -0.29802  -0.28923  -0.28558  -0.27606  -0.27133
 Alpha  occ. eigenvalues --   -0.26180  -0.25251  -0.24471  -0.23912  -0.22860
 Alpha  occ. eigenvalues --   -0.22358  -0.21428  -0.20410  -0.20182  -0.18227
 Alpha  occ. eigenvalues --   -0.15997  -0.14075  -0.13944  -0.11622  -0.10838
 Alpha  occ. eigenvalues --    0.04952
 Alpha virt. eigenvalues --    0.06855   0.07751   0.08034   0.08237   0.09348
 Alpha virt. eigenvalues --    0.09466   0.09663   0.10008   0.10105   0.10589
 Alpha virt. eigenvalues --    0.11471   0.11836   0.12007   0.12441   0.12793

  Beta  occ. eigenvalues --  -14.25624 -14.20473 -14.18193 -10.09002 -10.08450
  Beta  occ. eigenvalues --  -10.07597 -10.07087 -10.06557 -10.06146 -10.05672
  Beta  occ. eigenvalues --  -10.05267 -10.05005 -10.04993 -10.04891 -10.04838
  Beta  occ. eigenvalues --  -10.04701 -10.04699 -10.04516 -10.03476  -0.92232
  Beta  occ. eigenvalues --   -0.79629  -0.73518  -0.70811  -0.69715  -0.67173
  Beta  occ. eigenvalues --   -0.64262  -0.62245  -0.61613  -0.58756  -0.57071
  Beta  occ. eigenvalues --   -0.53717  -0.50241  -0.49266  -0.48902  -0.47832
  Beta  occ. eigenvalues --   -0.44867  -0.43936  -0.41950  -0.38631  -0.37288
  Beta  occ. eigenvalues --   -0.35436  -0.34838  -0.33690  -0.33402  -0.33107
  Beta  occ. eigenvalues --   -0.31971  -0.30938  -0.30842  -0.30569  -0.30000
  Beta  occ. eigenvalues --   -0.29689  -0.28829  -0.28502  -0.27581  -0.27066
  Beta  occ. eigenvalues --   -0.26060  -0.24849  -0.24236  -0.23830  -0.22706
  Beta  occ. eigenvalues --   -0.22221  -0.21408  -0.20374  -0.20134  -0.17933
  Beta  occ. eigenvalues --   -0.15056  -0.13492  -0.13372  -0.11537  -0.09864
  Beta virt. eigenvalues --    0.06936   0.07840   0.08123   0.08298   0.09366
  Beta virt. eigenvalues --    0.09450   0.09485   0.09748   0.10135   0.10194
  Beta virt. eigenvalues --    0.10713   0.11465   0.11799   0.12076   0.12571

 Mulliken charges and spin densities:
               1          2
     1  C    0.064111  -0.740480
     2  C    0.209326   0.428105
     3  C   -0.702557  -0.134876
     4  C   -0.065938   0.362477
     5  C   -0.345925  -0.360605
     6  C   -0.706433   0.012865
     7  N    0.088431  -0.011742
     8  C   -0.869449  -0.049832
     9  C    0.837144   0.133996
    10  C   -0.237456  -0.163136
    11  N    0.036510   0.036971
    12  N   -0.230309   0.074230
    13  C   -0.187200  -0.048319
    14  C    0.978373  -0.267546
    15  C   -0.338002   0.177792
    16  C   -0.606741   0.226802
    17  C    0.320380  -0.577924
    18  C   -0.409227   0.143740
    19  C   -1.104804   0.446403
    20  H   -0.013091   0.147015
    21  H   -0.123305   0.261907
    22  H    0.080613   0.051677
    23  H    0.787012  -0.567191
    24  H    0.015031   0.102260
    25  H    0.068415   0.094916
    26  H    0.137600  -0.006803
    27  H    0.175159   0.007154
    28  H    0.009259   0.160629
    29  H   -0.003785   0.120092
    30  H   -0.002519   0.146762
    31  H    0.130321   0.015611
    32  H    0.193323  -0.046492
    33  H    0.275178  -0.081703
    34  H    0.127887   0.060319
    35  H    0.101504   0.023987
    36  H    0.287195   0.005472
    37  H    0.100333   0.028064
    38  H   -0.012459   0.158796
    39  H   -0.222922   0.376868
    40  H    0.010986   0.093335
    41  H    0.018857   0.129610
    42  H    0.129176   0.028794
 Sum of Mulliken charges =  -1.00000   1.00000

 Dipole moment (field-independent basis, Debye):
    X=              0.1827    Y=             -1.6403    Z=              2.0872  Tot=              2.6609
 Quadrupole moment (field-independent basis, Debye-Ang):
   XX=           -172.2504   YY=           -153.8465   ZZ=           -145.2410
   XY=              3.9344   XZ=             -1.5196   YZ=             -1.1294

 Summary of Natural Population Analysis:

                                       Natural Population
                Natural  -----------------------------------------------
    Atom  No    Charge         Core      Valence    Rydberg      Total
 -----------------------------------------------------------------------
      C    1   -0.28281      0.99966     2.27655    0.00660     3.28281
      C    2   -0.12892      0.99959     2.11922    0.01010     3.12892
      C    3   -0.28377      0.99965     2.27918    0.00494     3.28377
      C    4   -0.10801      0.99959     2.09830    0.01012     3.10801
      C    5   -0.28629      0.99965     2.28086    0.00578     3.28629
      C    6   -0.08345      0.99960     2.07377    0.01008     3.08345
      N    7   -0.34831      0.99975     2.83737    0.01119     3.84831
      C    8   -0.08929      0.99960     2.07905    0.01064     3.08929
      C    9   -0.06928      0.99946     2.06222    0.00760     3.06928
      C   10    0.08371      0.99947     1.90444    0.01237     2.91629
      N   11   -0.14983      0.99965     2.63736    0.01281     3.64983
      N   12   -0.14652      0.99974     2.63223    0.01454     3.64652
      C   13   -0.02825      0.99959     2.01337    0.01530     3.02825
      C   14   -0.01021      0.99948     2.00106    0.00967     3.01021
      C   15   -0.08812      0.99953     2.07835    0.01024     3.08812
      C   16   -0.10708      0.99957     2.09694    0.01057     3.10708
      C   17   -0.05856      0.99956     2.04833    0.01067     3.05856
      C   18   -0.11082      0.99956     2.10172    0.00954     3.11082
      C   19   -0.08768      0.99954     2.08009    0.00805     3.08768
      H   20    0.09094      0.00000     0.40830    0.00076     0.40906
      H   21    0.10098      0.00000     0.39809    0.00093     0.39902
      H   22    0.10010      0.00000     0.39905    0.00085     0.39990
      H   23    0.10767      0.00000     0.38881    0.00352     0.39233
      H   24    0.09030      0.00000     0.40875    0.00095     0.40970
      H   25    0.10417      0.00000     0.39445    0.00138     0.39583
      H   26    0.09917      0.00000     0.40001    0.00082     0.40083
      H   27    0.09024      0.00000     0.40797    0.00179     0.40976
      H   28    0.09962      0.00000     0.39946    0.00091     0.40038
      H   29    0.09576      0.00000     0.40346    0.00078     0.40424
      H   30    0.09918      0.00000     0.40009    0.00073     0.40082
      H   31    0.08676      0.00000     0.41209    0.00115     0.41324
      H   32    0.08551      0.00000     0.41207    0.00242     0.41449
      H   33    0.18434      0.00000     0.31182    0.00384     0.31566
      H   34    0.09596      0.00000     0.40290    0.00114     0.40404
      H   35    0.09095      0.00000     0.40791    0.00114     0.40905
      H   36    0.19284      0.00000     0.30488    0.00228     0.30716
      H   37    0.09090      0.00000     0.40792    0.00118     0.40910
      H   38    0.09625      0.00000     0.40255    0.00120     0.40375
      H   39    0.09714      0.00000     0.40191    0.00095     0.40286
      H   40    0.09241      0.00000     0.40675    0.00084     0.40759
      H   41    0.09539      0.00000     0.40378    0.00082     0.40461
      H   42    0.09692      0.00000     0.40177    0.00131     0.40308
 =======================================================================
   * Total *   -0.00000     18.99224    50.78521    0.22254    70.00000

 Normal termination of Gaussian 16 at Sat Dec 12 11:41:30 2020.
