 Gaussian 16, Revision A.03,

 -----------------------------------------------------------
 # opt freq B3LYP/6-31G(d) empiricaldispersion=gd3bj scf=xqc
 -----------------------------------------------------------

 ------------------------------
 CID_22561468_JID_4494_neutraal
 ------------------------------
 Symbolic Z-matrix:
 Charge =  0 Multiplicity = 1

 SCF Done:  E(RB3LYP) =  -645.783309416     A.U. after   15 cycles
 SCF Done:  E(RB3LYP) =  -645.801656071     A.U. after   15 cycles
 SCF Done:  E(RB3LYP) =  -645.804582518     A.U. after   14 cycles
 SCF Done:  E(RB3LYP) =  -645.807753588     A.U. after   13 cycles
 SCF Done:  E(RB3LYP) =  -645.810915986     A.U. after   14 cycles
 SCF Done:  E(RB3LYP) =  -645.812596567     A.U. after   14 cycles
 SCF Done:  E(RB3LYP) =  -645.812846241     A.U. after   13 cycles
 SCF Done:  E(RB3LYP) =  -645.813158916     A.U. after   12 cycles
 SCF Done:  E(RB3LYP) =  -645.813238397     A.U. after   12 cycles
 SCF Done:  E(RB3LYP) =  -645.813331178     A.U. after   12 cycles
 SCF Done:  E(RB3LYP) =  -645.813476422     A.U. after   12 cycles
 SCF Done:  E(RB3LYP) =  -645.813481826     A.U. after   11 cycles
 SCF Done:  E(RB3LYP) =  -645.813488045     A.U. after   11 cycles
 SCF Done:  E(RB3LYP) =  -645.813492474     A.U. after   11 cycles
 SCF Done:  E(RB3LYP) =  -645.813493286     A.U. after   10 cycles
 SCF Done:  E(RB3LYP) =  -645.813493511     A.U. after    9 cycles
 Optimization completed.
    -- Stationary point found.
 Normal termination of Gaussian 16 at Thu Dec 10 09:58:34 2020.

 --------------------------------------------------------------------
 #N Geom=AllCheck Guess=TCheck SCRF=Check GenChk RB3LYP/6-31G(d) Freq
 --------------------------------------------------------------------

 Structure from the checkpoint file:  "JID_4494.chk"
 ------------------------------
 CID_22561468_JID_4494_neutraal
 ------------------------------
 Charge =  0 Multiplicity = 1

 SCF Done:  E(RB3LYP) =  -645.813493511     A.U. after    1 cycles

  Exact polarizability: 139.993  12.030 105.282   9.540  -8.384 101.529
 Approx polarizability: 212.947  11.519 185.953  18.283 -23.046 160.988

                      1                      2                      3
                      A                      A                      A
 Frequencies --     15.4644                35.9428                44.8817
 Red. masses --     10.9423                 9.6476                 6.3256
 Frc consts  --      0.0015                 0.0073                 0.0075
 IR Inten    --      0.2727                 0.2231                 1.4220

                      4                      5                      6
                      A                      A                      A
 Frequencies --     73.7311                99.2516               122.6318
 Red. masses --      5.5696                 4.8775                 5.9259
 Frc consts  --      0.0178                 0.0283                 0.0525
 IR Inten    --      0.6998                 1.0898                 2.2871

                      7                      8                      9
                      A                      A                      A
 Frequencies --    208.9859               239.9316               304.2616
 Red. masses --      6.7967                 5.4184                 4.4748
 Frc consts  --      0.1749                 0.1838                 0.2441
 IR Inten    --      1.0785                 2.5678                 6.4652

                     10                     11                     12
                      A                      A                      A
 Frequencies --    327.7199               340.4315               402.4113
 Red. masses --      3.2770                 4.1060                 5.5093
 Frc consts  --      0.2074                 0.2804                 0.5256
 IR Inten    --      1.1517                 5.2377                 1.8150

                     13                     14                     15
                      A                      A                      A
 Frequencies --    454.2884               477.2098               554.8593
 Red. masses --      3.1271                 3.3843                 6.7058
 Frc consts  --      0.3802                 0.4541                 1.2164
 IR Inten    --      0.2523                 0.5540                 4.3991

                     16                     17                     18
                      A                      A                      A
 Frequencies --    566.7212               578.5172               606.5543
 Red. masses --     10.6449                10.6432                 7.7250
 Frc consts  --      2.0143                 2.0987                 1.6745
 IR Inten    --     15.0740                18.4006                 4.5427

                     19                     20                     21
                      A                      A                      A
 Frequencies --    615.2099               651.2038               705.6955
 Red. masses --      3.3588                 4.2915                 4.4949
 Frc consts  --      0.7490                 1.0723                 1.3189
 IR Inten    --      8.1844                25.1975                20.8712

                     22                     23                     24
                      A                      A                      A
 Frequencies --    709.1284               727.2125               736.7331
 Red. masses --      1.6584                 2.4201                 1.6899
 Frc consts  --      0.4913                 0.7541                 0.5404
 IR Inten    --      3.9041                 2.0673                 6.3631

                     25                     26                     27
                      A                      A                      A
 Frequencies --    809.1514               887.3103               904.1121
 Red. masses --      1.6382                 2.5804                 3.1047
 Frc consts  --      0.6319                 1.1970                 1.4953
 IR Inten    --      1.7578                 6.6246                 7.1466

                     28                     29                     30
                      A                      A                      A
 Frequencies --    926.6512               932.7899               952.8467
 Red. masses --      3.1954                 1.3941                 1.4288
 Frc consts  --      1.6166                 0.7147                 0.7643
 IR Inten    --    118.0689                33.9893                21.5445

                     31                     32                     33
                      A                      A                      A
 Frequencies --    961.9506               988.0639              1004.4273
 Red. masses --      2.1385                 2.9867                 1.5113
 Frc consts  --      1.1659                 1.7180                 0.8983
 IR Inten    --     27.7501                29.6564                15.1430

                     34                     35                     36
                      A                      A                      A
 Frequencies --   1008.0544              1053.3405              1199.0116
 Red. masses --      1.7187                 2.1875                 1.1887
 Frc consts  --      1.0290                 1.4300                 1.0068
 IR Inten    --      1.7341                10.0753                 0.5873

                     37                     38                     39
                      A                      A                      A
 Frequencies --   1266.5467              1303.0324              1321.5102
 Red. masses --      2.3370                 1.3018                 1.6196
 Frc consts  --      2.2087                 1.3022                 1.6664
 IR Inten    --      9.9715                 0.4475                 8.7241

                     40                     41                     42
                      A                      A                      A
 Frequencies --   1334.0362              1343.7892              1371.4262
 Red. masses --      1.9353                 1.2668                 1.6428
 Frc consts  --      2.0292                 1.3477                 1.8205
 IR Inten    --      2.0828                35.2562                17.5302

                     43                     44                     45
                      A                      A                      A
 Frequencies --   1415.1816              1462.6829              1474.9122
 Red. masses --      1.6246                 2.6833                 1.7215
 Frc consts  --      1.9170                 3.3824                 2.2065
 IR Inten    --      3.6253                15.2194                 5.2608

                     46                     47                     48
                      A                      A                      A
 Frequencies --   1483.0305              1489.4155              1682.9667
 Red. masses --      1.5034                 3.0562                 5.6943
 Frc consts  --      1.9482                 3.9946                 9.5025
 IR Inten    --     10.9121                 4.4834                 3.7224

                     49                     50                     51
                      A                      A                      A
 Frequencies --   1727.6323              1750.4754              2354.9640
 Red. masses --      5.9516                 5.8968                12.6117
 Frc consts  --     10.4661                10.6458                41.2090
 IR Inten    --      2.4115                 5.4104              1738.6481

                     52                     53                     54
                      A                      A                      A
 Frequencies --   2362.1407              3027.8966              3106.0024
 Red. masses --     12.6386                 1.0814                 1.0866
 Frc consts  --     41.5490                 5.8415                 6.1761
 IR Inten    --    342.1642                12.4570                14.8203

                     55                     56                     57
                      A                      A                      A
 Frequencies --   3168.7738              3178.1524              3181.0480
 Red. masses --      1.0600                 1.0613                 1.0865
 Frc consts  --      6.2710                 6.3157                 6.4780
 IR Inten    --      3.5038                 5.0868                 4.7309

                     58                     59                     60
                      A                      A                      A
 Frequencies --   3205.6472              3250.7574              3261.6325
 Red. masses --      1.0957                 1.1169                 1.1153
 Frc consts  --      6.6339                 6.9542                 6.9903
 IR Inten    --     10.5112                 7.8479                 5.7927

 - Thermochemistry -
 -------------------
 Temperature   298.150 Kelvin.  Pressure   1.00000 Atm.
 Atom     1 has atomic number  6 and mass  12.00000

 Molecular mass:   188.05858 amu.
 Principal axes and moments of inertia in atomic units:
                           1         2         3
     Eigenvalues --  1507.875883964.304994129.68936
           X            0.99970   0.02323   0.00815
           Y           -0.02301   0.99942  -0.02504
           Z           -0.00873   0.02484   0.99965
 This molecule is an asymmetric top.
 Rotational symmetry number  1.
 Warning -- assumption of classical behavior for rotation
           may cause significant error
 Rotational temperatures (Kelvin)      0.05744     0.02185     0.02097
 Rotational constants (GHZ):           1.19688     0.45525     0.43702
 Zero-point vibrational energy     429162.3 (Joules/Mol)
                                  102.57226 (Kcal/Mol)
 Warning -- explicit consideration of  19 degrees of freedom as
           vibrations may cause significant error
 Vibrational temperatures:     22.25    51.71    64.57   106.08   142.80
          (Kelvin)            176.44   300.68   345.21   437.76   471.52
                              489.80   578.98   653.62   686.60   798.32
                              815.39   832.36   872.70   885.15   936.94
                             1015.34  1020.28  1046.30  1059.99  1164.19
                             1276.64  1300.82  1333.24  1342.08  1370.93
                             1384.03  1421.60  1445.15  1450.37  1515.52
                             1725.11  1822.28  1874.77  1901.36  1919.38
                             1933.41  1973.18  2036.13  2104.47  2122.07
                             2133.75  2142.94  2421.41  2485.68  2518.54
                             3388.27  3398.59  4356.47  4468.84  4559.16
                             4572.65  4576.82  4612.21  4677.11  4692.76

 Zero-point correction=                           0.163459 (Hartree/Particle)
 Thermal correction to Energy=                    0.176179
 Thermal correction to Enthalpy=                  0.177123
 Thermal correction to Gibbs Free Energy=         0.121496
 Sum of electronic and zero-point Energies=           -645.650034
 Sum of electronic and thermal Energies=              -645.637315
 Sum of electronic and thermal Enthalpies=            -645.636371
 Sum of electronic and thermal Free Energies=         -645.691998

                     E (Thermal)             CV                S
                      KCal/Mol        Cal/Mol-Kelvin    Cal/Mol-Kelvin
 Total                  110.554             46.223            117.077
 Electronic               0.000              0.000              0.000
 Translational            0.889              2.981             41.601
 Rotational               0.889              2.981             31.579
 Vibrational            108.776             40.261             43.897
 Vibration     1          0.593              1.986              7.145
 Vibration     2          0.594              1.982              5.471
 Vibration     3          0.595              1.979              5.031
 Vibration     4          0.599              1.966              4.051
 Vibration     5          0.604              1.950              3.469
 Vibration     6          0.610              1.930              3.058
 Vibration     7          0.642              1.827              2.053
 Vibration     8          0.657              1.779              1.803
 Vibration     9          0.695              1.666              1.393
 Vibration    10          0.711              1.620              1.271
 Vibration    11          0.720              1.595              1.210
 Vibration    12          0.768              1.465              0.954
 Vibration    13          0.813              1.351              0.783
 Vibration    14          0.834              1.301              0.718
 Vibration    15          0.910              1.129              0.534
 Vibration    16          0.923              1.103              0.511
 Vibration    17          0.935              1.078              0.488
 Vibration    18          0.965              1.018              0.439
 Vibration    19          0.975              1.000              0.424

 Optimization completed.
    -- Stationary point found.
 Normal termination of Gaussian 16 at Thu Dec 10 10:05:02 2020.

 ----------------------------------------------------------------------
 # B3LYP/6-311++G(d,p) empiricaldispersion=gd3bj scf=xqc pop=npa geom=c
 heck
 ----------------------------------------------------------------------

 --------------------------------------
 CID_22561468_JID_4494_Energie_neutraal
 --------------------------------------
 Structure from the checkpoint file:  "JID_4494.chk"
 Charge =  0 Multiplicity = 1

 SCF Done:  E(RB3LYP) =  -645.999071283     A.U. after   16 cycles
 Normal termination of Gaussian 16 at Thu Dec 10 10:07:51 2020.

 ----------------------------------------------------------------------
 # B3LYP/6-311++G(d,p) empiricaldispersion=gd3bj scf=xqc pop=npa geom=c
 heck
 ----------------------------------------------------------------------

 ------------------------------------
 CID_22561468_JID_4494_Energie_kation
 ------------------------------------
 Structure from the checkpoint file:  "JID_4494.chk"
 Charge =  1 Multiplicity = 2

 SCF Done:  E(UB3LYP) =  -645.669473656     A.U. after   25 cycles
 Normal termination of Gaussian 16 at Thu Dec 10 10:14:18 2020.
 Gaussian 16:  ES64L-G16RevA.03 25-Dec-2016

 ----------------------------------------------------------------------
 # B3LYP/6-311++G(d,p) empiricaldispersion=gd3bj scf=xqc pop=npa geom=c
 heck
 ----------------------------------------------------------------------

 -----------------------------------
 CID_22561468_JID_4494_Energie_anion
 -----------------------------------
 Structure from the checkpoint file:  "JID_4494.chk"
 Charge = -1 Multiplicity = 2

                         Standard orientation:
 ---------------------------------------------------------------------
 Center     Atomic      Atomic             Coordinates (Angstroms)
 Number     Number       Type             X           Y           Z
 ---------------------------------------------------------------------
      1          6           0        2.018529    2.393730    0.473557
      2          6           0        1.231982    1.313085    0.381739
      3          6           0        0.511201    0.746666    1.521023
      4          6           0       -0.414512   -0.215295    1.391452
      5          6           0       -0.851738   -0.776295    0.052371
      6          6           0       -0.372519    0.107957   -1.086152
      7          6           0       -1.125365    0.497276   -2.111208
      8          6           0        1.065954    0.557628   -0.927768
      9          7           0        1.957442   -0.605948   -0.983216
     10          6           0        2.566994   -1.241902   -0.150709
     11          8           0        3.206963   -1.941694    0.548534
     12          7           0       -2.284849   -1.007007    0.031048
     13          6           0       -3.253315   -0.332134    0.307247
     14          8           0       -4.280674    0.195233    0.539434
     15          1           0        2.546645    2.789170   -0.389028
     16          1           0        2.158634    2.913775    1.417213
     17          1           0        0.758355    1.128500    2.508816
     18          1           0       -0.908351   -0.635897    2.262883
     19          1           0       -0.390545   -1.765688   -0.076299
     20          1           0       -2.161767    0.193854   -2.210178
     21          1           0       -0.719381    1.132898   -2.892888
     22          1           0        1.334679    1.201454   -1.768401
 ---------------------------------------------------------------------

 SCF Done:  E(UB3LYP) =  -646.005535602     A.U. after   31 cycles

 The electronic state is 2-A.
 Alpha  occ. eigenvalues --  -19.05475 -19.04537 -14.21757 -14.20832 -10.18925
 Alpha  occ. eigenvalues --  -10.17843 -10.10993 -10.10381 -10.06371 -10.04018
 Alpha  occ. eigenvalues --  -10.02100 -10.02063 -10.01469  -9.99608  -0.99108
 Alpha  occ. eigenvalues --   -0.98154  -0.83995  -0.82897  -0.71467  -0.64990
 Alpha  occ. eigenvalues --   -0.63870  -0.57445  -0.56348  -0.46878  -0.45420
 Alpha  occ. eigenvalues --   -0.42377  -0.40623  -0.39251  -0.38476  -0.37501
 Alpha  occ. eigenvalues --   -0.35700  -0.34320  -0.34019  -0.32840  -0.32466
 Alpha  occ. eigenvalues --   -0.31840  -0.29373  -0.28972  -0.27351  -0.25747
 Alpha  occ. eigenvalues --   -0.23893  -0.21222  -0.19081  -0.18446  -0.17216
 Alpha  occ. eigenvalues --   -0.16664  -0.15534  -0.13835  -0.09503   0.05264
 Alpha virt. eigenvalues --    0.08692   0.09813   0.10168   0.10485   0.11551
 Alpha virt. eigenvalues --    0.11821   0.12171   0.12557   0.12741   0.13836
 Alpha virt. eigenvalues --    0.14442   0.14667   0.15239   0.15710   0.16342

  Beta  occ. eigenvalues --  -19.05465 -19.04520 -14.21722 -14.20793 -10.18928
  Beta  occ. eigenvalues --  -10.17816 -10.11018 -10.10381 -10.06319 -10.03930
  Beta  occ. eigenvalues --  -10.01983 -10.01937 -10.01100  -9.99150  -0.99081
  Beta  occ. eigenvalues --   -0.98116  -0.83908  -0.82811  -0.71204  -0.64552
  Beta  occ. eigenvalues --   -0.63552  -0.57243  -0.55824  -0.46503  -0.44720
  Beta  occ. eigenvalues --   -0.42076  -0.40471  -0.39196  -0.38404  -0.37387
  Beta  occ. eigenvalues --   -0.35602  -0.34250  -0.33889  -0.32651  -0.32294
  Beta  occ. eigenvalues --   -0.31721  -0.29207  -0.28821  -0.27160  -0.25526
  Beta  occ. eigenvalues --   -0.23677  -0.20962  -0.18896  -0.18032  -0.17064
  Beta  occ. eigenvalues --   -0.15755  -0.15276  -0.13304  -0.07076
  Beta virt. eigenvalues --    0.08630   0.09796   0.10044   0.10179   0.11306
  Beta virt. eigenvalues --    0.11729   0.12128   0.12465   0.12541   0.12808
  Beta virt. eigenvalues --    0.13922   0.14452   0.14713   0.15362   0.15770

 Mulliken charges and spin densities:
               1          2
     1  C   -0.890650   0.657475
     2  C   -0.147488  -0.107483
     3  C   -0.059968  -0.001365
     4  C   -0.451610   0.389367
     5  C   -0.763849  -0.160373
     6  C   -0.089893  -0.056519
     7  C   -0.272162   0.263040
     8  C    0.816441  -0.007880
     9  N   -0.156931  -0.015780
    10  C    0.272651   0.015570
    11  O   -0.309727   0.004826
    12  N   -0.054038   0.036208
    13  C    0.337609  -0.026717
    14  O   -0.288727  -0.014607
    15  H    0.074678  -0.023877
    16  H    0.085613  -0.022767
    17  H    0.128991  -0.006084
    18  H    0.144265  -0.020294
    19  H    0.255667   0.005055
    20  H    0.082320   0.051029
    21  H    0.061749   0.022484
    22  H    0.225058   0.018691
 Sum of Mulliken charges =  -1.00000   1.00000

 Dipole moment (field-independent basis, Debye):
    X=             -0.8095    Y=             -1.9610    Z=             -1.5603  Tot=              2.6335
 Quadrupole moment (field-independent basis, Debye-Ang):
   XX=           -127.4533   YY=           -104.4115   ZZ=            -91.3381
   XY=              2.5985   XZ=             -2.0273   YZ=             -0.9773

 Summary of Natural Population Analysis:

                                       Natural Population
                Natural  -----------------------------------------------
    Atom  No    Charge         Core      Valence    Rydberg      Total
 -----------------------------------------------------------------------
      C    1   -0.09141      0.99952     2.08219    0.00969     3.09141
      C    2   -0.03098      0.99949     2.02006    0.01144     3.03098
      C    3   -0.08969      0.99949     2.08062    0.00958     3.08969
      C    4   -0.04301      0.99953     2.03314    0.01034     3.04301
      C    5   -0.04349      0.99947     2.03064    0.01339     3.04349
      C    6    0.01473      0.99948     1.97282    0.01297     2.98527
      C    7   -0.18252      0.99949     2.17650    0.00653     3.18252
      C    8   -0.02288      0.99945     2.00847    0.01496     3.02288
      N    9   -0.28099      0.99953     2.77209    0.00937     3.78099
      C   10    0.42802      0.99959     1.55443    0.01796     2.57198
      O   11   -0.27292      0.99987     3.26588    0.00717     4.27292
      N   12   -0.27302      0.99953     2.76427    0.00921     3.77302
      C   13    0.42507      0.99959     1.55664    0.01871     2.57493
      O   14   -0.27457      0.99987     3.26666    0.00804     4.27457
      H   15    0.08047      0.00000     0.41870    0.00083     0.41953
      H   16    0.08246      0.00000     0.41669    0.00085     0.41754
      H   17    0.09277      0.00000     0.40590    0.00133     0.40723
      H   18    0.08931      0.00000     0.40982    0.00087     0.41069
      H   19    0.10579      0.00000     0.39246    0.00175     0.39421
      H   20    0.09453      0.00000     0.40428    0.00119     0.40547
      H   21    0.09070      0.00000     0.40819    0.00111     0.40930
      H   22    0.10164      0.00000     0.39672    0.00164     0.39836
 =======================================================================
   * Total *   -0.00000     13.99388    34.83718    0.16894    49.00000

 Normal termination of Gaussian 16 at Thu Dec 10 10:22:00 2020.
