 Gaussian 16, Revision A.03,

 -----------------------------------------------------------
 # opt freq B3LYP/6-31G(d) empiricaldispersion=gd3bj scf=xqc
 -----------------------------------------------------------

 ------------------------------
 CID_68198586_JID_2075_neutraal
 ------------------------------
 Symbolic Z-matrix:
 Charge =  0 Multiplicity = 1

 SCF Done:  E(RB3LYP) =  -552.181163127     A.U. after   15 cycles
 SCF Done:  E(RB3LYP) =  -552.184815935     A.U. after   13 cycles
 SCF Done:  E(RB3LYP) =  -552.186159797     A.U. after   12 cycles
 SCF Done:  E(RB3LYP) =  -552.186616218     A.U. after   12 cycles
 SCF Done:  E(RB3LYP) =  -552.186636507     A.U. after   10 cycles
 SCF Done:  E(RB3LYP) =  -552.186666841     A.U. after   10 cycles
 SCF Done:  E(RB3LYP) =  -552.186679361     A.U. after    9 cycles
 SCF Done:  E(RB3LYP) =  -552.186694037     A.U. after   10 cycles
 SCF Done:  E(RB3LYP) =  -552.186701617     A.U. after   10 cycles
 SCF Done:  E(RB3LYP) =  -552.186706974     A.U. after   10 cycles
 SCF Done:  E(RB3LYP) =  -552.186711189     A.U. after    7 cycles
 SCF Done:  E(RB3LYP) =  -552.186711235     A.U. after    7 cycles
 SCF Done:  E(RB3LYP) =  -552.186711283     A.U. after    7 cycles
 SCF Done:  E(RB3LYP) =  -552.186711326     A.U. after    7 cycles
 SCF Done:  E(RB3LYP) =  -552.186711349     A.U. after    7 cycles
 SCF Done:  E(RB3LYP) =  -552.186711362     A.U. after    6 cycles
 Optimization completed.
    -- Stationary point found.
 Normal termination of Gaussian 16 at Wed Dec  9 16:50:16 2020.

 --------------------------------------------------------------------
 #N Geom=AllCheck Guess=TCheck SCRF=Check GenChk RB3LYP/6-31G(d) Freq
 --------------------------------------------------------------------

 Structure from the checkpoint file:  "JID_2075.chk"
 ------------------------------
 CID_68198586_JID_2075_neutraal
 ------------------------------
 Charge =  0 Multiplicity = 1

 SCF Done:  E(RB3LYP) =  -552.186711361     A.U. after    1 cycles

  Exact polarizability: 130.628 -11.709  86.129   0.096   1.089  87.663
 Approx polarizability: 170.068 -29.081 129.110   1.647  -0.862 148.304

                      1                      2                      3
                      A                      A                      A
 Frequencies --     28.3325                35.8239                54.7690
 Red. masses --      2.4793                 4.4147                 4.2582
 Frc consts  --      0.0012                 0.0033                 0.0075
 IR Inten    --      0.0633                 0.7759                 2.2532

                      4                      5                      6
                      A                      A                      A
 Frequencies --    105.0384               128.4647               144.6255
 Red. masses --      4.1678                 3.0306                 3.5945
 Frc consts  --      0.0271                 0.0295                 0.0443
 IR Inten    --      2.6534                 1.4880                 1.0277

                      7                      8                      9
                      A                      A                      A
 Frequencies --    199.1256               200.7605               252.8230
 Red. masses --      1.4502                 1.1138                 4.1194
 Frc consts  --      0.0339                 0.0264                 0.1551
 IR Inten    --      0.1744                 0.2100                 4.8322

                     10                     11                     12
                      A                      A                      A
 Frequencies --    274.5617               297.7210               377.9175
 Red. masses --      1.6775                 3.0246                 3.5090
 Frc consts  --      0.0745                 0.1580                 0.2953
 IR Inten    --      1.3329                 2.5743                 0.4296

                     13                     14                     15
                      A                      A                      A
 Frequencies --    422.0528               446.0919               485.0915
 Red. masses --      3.1185                 3.4243                 1.6456
 Frc consts  --      0.3273                 0.4015                 0.2282
 IR Inten    --      1.1985                 9.6839                33.7199

                     16                     17                     18
                      A                      A                      A
 Frequencies --    599.6914               625.4190               647.0307
 Red. masses --      4.2163                 2.0444                 5.3671
 Frc consts  --      0.8934                 0.4712                 1.3238
 IR Inten    --      5.2798                66.6766                 1.1924

                     19                     20                     21
                      A                      A                      A
 Frequencies --    665.0817               696.1631               786.1185
 Red. masses --      3.9093                 2.8600                 1.3500
 Frc consts  --      1.0188                 0.8166                 0.4915
 IR Inten    --     37.8823                 5.4028                 9.9251

                     22                     23                     24
                      A                      A                      A
 Frequencies --    796.6106               817.5896               828.8191
 Red. masses --      1.2775                 3.8190                 3.7405
 Frc consts  --      0.4776                 1.5041                 1.5139
 IR Inten    --      4.3152                 7.9764                11.9282

                     25                     26                     27
                      A                      A                      A
 Frequencies --    868.0613               968.6244               979.3820
 Red. masses --      1.3444                 2.4731                 2.2106
 Frc consts  --      0.5969                 1.3671                 1.2493
 IR Inten    --     12.8020                 9.4682                 3.0635

                     28                     29                     30
                      A                      A                      A
 Frequencies --   1016.3728              1051.2827              1078.7023
 Red. masses --      3.5647                 3.3170                 1.5218
 Frc consts  --      2.1696                 2.1599                 1.0433
 IR Inten    --     33.1821                 5.2418                 3.1363

                     31                     32                     33
                      A                      A                      A
 Frequencies --   1086.6735              1100.5168              1155.2394
 Red. masses --      1.9072                 1.7553                 1.2709
 Frc consts  --      1.3269                 1.2525                 0.9993
 IR Inten    --     30.0922                 1.4467                 6.6471

                     34                     35                     36
                      A                      A                      A
 Frequencies --   1191.4626              1200.8214              1211.6702
 Red. masses --      1.4223                 1.9114                 2.0469
 Frc consts  --      1.1896                 1.6239                 1.7706
 IR Inten    --     20.6408                 2.5458                 1.4579

                     37                     38                     39
                      A                      A                      A
 Frequencies --   1249.1670              1298.8986              1337.2473
 Red. masses --      1.5252                 1.3274                 1.9940
 Frc consts  --      1.4022                 1.3195                 2.1009
 IR Inten    --      1.6303                 0.1948                54.8745

                     40                     41                     42
                      A                      A                      A
 Frequencies --   1363.4035              1381.9766              1403.7397
 Red. masses --      1.4885                 1.7457                 2.2414
 Frc consts  --      1.6302                 1.9644                 2.6022
 IR Inten    --     12.4852                44.8754                57.5516

                     43                     44                     45
                      A                      A                      A
 Frequencies --   1414.7008              1437.7490              1440.3929
 Red. masses --      4.2731                 1.4905                 2.4480
 Frc consts  --      5.0387                 1.8153                 2.9924
 IR Inten    --      5.6429                 3.1554                11.6692

                     46                     47                     48
                      A                      A                      A
 Frequencies --   1485.8580              1487.2161              1497.1990
 Red. masses --      3.8958                 1.6087                 1.1942
 Frc consts  --      5.0675                 2.0964                 1.5772
 IR Inten    --     29.1768                17.2851                18.6707

                     49                     50                     51
                      A                      A                      A
 Frequencies --   1507.7725              1517.1192              1519.5824
 Red. masses --      1.2492                 1.0729                 1.0555
 Frc consts  --      1.6732                 1.4549                 1.4360
 IR Inten    --      3.7794                 1.1450                13.9779

                     52                     53                     54
                      A                      A                      A
 Frequencies --   1526.2088              1537.4711              1551.7756
 Red. masses --      1.0415                 1.0865                 1.1017
 Frc consts  --      1.4293                 1.5131                 1.5631
 IR Inten    --      6.3204                 3.6344                45.8948

                     55                     56                     57
                      A                      A                      A
 Frequencies --   1622.7872              1799.5245              3041.4198
 Red. masses --      5.1611                 8.0705                 1.0610
 Frc consts  --      8.0079                15.3981                 5.7828
 IR Inten    --      7.0165               367.5643                32.1516

                     58                     59                     60
                      A                      A                      A
 Frequencies --   3050.0992              3061.9250              3074.9199
 Red. masses --      1.0347                 1.0340                 1.1026
 Frc consts  --      5.6714                 5.7119                 6.1421
 IR Inten    --     34.7699                32.5574                12.1462

                     61                     62                     63
                      A                      A                      A
 Frequencies --   3081.6977              3119.8770              3124.9213
 Red. masses --      1.0610                 1.1027                 1.1034
 Frc consts  --      5.9369                 6.3241                 6.3486
 IR Inten    --     15.7591                47.0265                34.6624

                     64                     65                     66
                      A                      A                      A
 Frequencies --   3126.9272              3140.5936              3145.3251
 Red. masses --      1.1041                 1.1039                 1.1042
 Frc consts  --      6.3605                 6.4149                 6.4360
 IR Inten    --     18.6884                 8.0426                25.4727

                     67                     68                     69
                      A                      A                      A
 Frequencies --   3247.8550              3264.7354              3607.6730
 Red. masses --      1.0957                 1.0975                 1.0761
 Frc consts  --      6.8098                 6.8920                 8.2518
 IR Inten    --      6.7981                 0.6467                26.8760

 - Thermochemistry -
 -------------------
 Temperature   298.150 Kelvin.  Pressure   1.00000 Atm.
 Atom     1 has atomic number  6 and mass  12.00000

 Molecular mass:   167.10586 amu.
 Principal axes and moments of inertia in atomic units:
                           1         2         3
     Eigenvalues --   751.010033849.065034073.08632
           X            0.99993   0.01191  -0.00071
           Y           -0.01188   0.99944   0.03116
           Z            0.00108  -0.03115   0.99951
 This molecule is an asymmetric top.
 Rotational symmetry number  1.
 Warning -- assumption of classical behavior for rotation
           may cause significant error
 Rotational temperatures (Kelvin)      0.11533     0.02250     0.02126
 Rotational constants (GHZ):           2.40309     0.46888     0.44309
 Zero-point vibrational energy     558011.8 (Joules/Mol)
                                  133.36803 (Kcal/Mol)
 Warning -- explicit consideration of  16 degrees of freedom as
           vibrations may cause significant error
 Vibrational temperatures:     40.76    51.54    78.80   151.13   184.83
          (Kelvin)            208.08   286.50   288.85   363.76   395.03
                              428.35   543.74   607.24   641.83   697.94
                              862.82   899.84   930.93   956.90  1001.62
                             1131.05  1146.15  1176.33  1192.49  1248.95
                             1393.63  1409.11  1462.33  1512.56  1552.01
                             1563.48  1583.40  1662.13  1714.25  1727.71
                             1743.32  1797.27  1868.83  1924.00  1961.63
                             1988.36  2019.67  2035.44  2068.60  2072.40
                             2137.82  2139.77  2154.14  2169.35  2182.80
                             2186.34  2195.87  2212.08  2232.66  2334.83
                             2589.11  4375.92  4388.41  4405.43  4424.12
                             4433.88  4488.81  4496.06  4498.95  4518.61
                             4525.42  4672.94  4697.23  5190.64

 Zero-point correction=                           0.212535 (Hartree/Particle)
 Thermal correction to Energy=                    0.225071
 Thermal correction to Enthalpy=                  0.226015
 Thermal correction to Gibbs Free Energy=         0.172072
 Sum of electronic and zero-point Energies=           -551.974176
 Sum of electronic and thermal Energies=              -551.961641
 Sum of electronic and thermal Enthalpies=            -551.960696
 Sum of electronic and thermal Free Energies=         -552.014639

                     E (Thermal)             CV                S
                      KCal/Mol        Cal/Mol-Kelvin    Cal/Mol-Kelvin
 Total                  141.234             44.901            113.532
 Electronic               0.000              0.000              0.000
 Translational            0.889              2.981             41.249
 Rotational               0.889              2.981             30.844
 Vibrational            139.457             38.940             41.440
 Vibration     1          0.593              1.984              5.943
 Vibration     2          0.594              1.982              5.478
 Vibration     3          0.596              1.976              4.637
 Vibration     4          0.605              1.945              3.359
 Vibration     5          0.611              1.925              2.969
 Vibration     6          0.616              1.908              2.742
 Vibration     7          0.637              1.841              2.141
 Vibration     8          0.638              1.839              2.126
 Vibration     9          0.664              1.758              1.711
 Vibration    10          0.677              1.720              1.567
 Vibration    11          0.691              1.678              1.430
 Vibration    12          0.748              1.517              1.047
 Vibration    13          0.784              1.422              0.885
 Vibration    14          0.805              1.370              0.808
 Vibration    15          0.841              1.283              0.696
 Vibration    16          0.958              1.032              0.450

 Optimization completed.
    -- Stationary point found.
 Normal termination of Gaussian 16 at Wed Dec  9 16:55:30 2020.

 ----------------------------------------------------------------------
 # B3LYP/6-311++G(d,p) empiricaldispersion=gd3bj scf=xqc pop=npa geom=c
 heck
 ----------------------------------------------------------------------

 --------------------------------------
 CID_68198586_JID_2075_Energie_neutraal
 --------------------------------------
 Structure from the checkpoint file:  "JID_2075.chk"
 Charge =  0 Multiplicity = 1

 SCF Done:  E(RB3LYP) =  -552.345682895     A.U. after   15 cycles
 Normal termination of Gaussian 16 at Wed Dec  9 16:57:30 2020.

 ----------------------------------------------------------------------
 # B3LYP/6-311++G(d,p) empiricaldispersion=gd3bj scf=xqc pop=npa geom=c
 heck
 ----------------------------------------------------------------------

 ------------------------------------
 CID_68198586_JID_2075_Energie_kation
 ------------------------------------
 Structure from the checkpoint file:  "JID_2075.chk"
 Charge =  1 Multiplicity = 2

 SCF Done:  E(UB3LYP) =  -552.030964757     A.U. after   29 cycles
 Normal termination of Gaussian 16 at Wed Dec  9 17:02:31 2020.
 Gaussian 16:  ES64L-G16RevA.03 25-Dec-2016

 ----------------------------------------------------------------------
 # B3LYP/6-311++G(d,p) empiricaldispersion=gd3bj scf=xqc pop=npa geom=c
 heck
 ----------------------------------------------------------------------

 -----------------------------------
 CID_68198586_JID_2075_Energie_anion
 -----------------------------------
 Structure from the checkpoint file:  "JID_2075.chk"
 Charge = -1 Multiplicity = 2

                         Standard orientation:
 ---------------------------------------------------------------------
 Center     Atomic      Atomic             Coordinates (Angstroms)
 Number     Number       Type             X           Y           Z
 ---------------------------------------------------------------------
      1          6           0       -4.353241   -0.459014   -0.073298
      2          6           0       -3.306904    0.653529   -0.250626
      3          6           0       -1.904819    0.181389    0.006333
      4          6           0       -0.929649   -0.148382   -0.918911
      5          7           0        0.165714   -0.562838   -0.222612
      6          7           0       -0.034562   -0.530270    1.113469
      7          6           0       -1.282729   -0.081453    1.253365
      8          6           0        1.442520   -1.008792   -0.742749
      9          6           0        2.672687   -0.378458   -0.071570
     10          8           0        3.622134   -1.089868    0.226641
     11          7           0        2.701102    0.974072    0.096203
     12          6           0        1.647041    1.949747   -0.136127
     13          1           0       -4.161752   -1.285532   -0.766124
     14          1           0       -5.365313   -0.081579   -0.258464
     15          1           0       -4.321541   -0.865691    0.943395
     16          1           0       -3.375509    1.060004   -1.267136
     17          1           0       -3.545098    1.483526    0.427169
     18          1           0       -0.933018   -0.115526   -1.999645
     19          1           0       -1.696985    0.044114    2.245939
     20          1           0        1.554028   -2.086933   -0.608699
     21          1           0        1.458382   -0.788064   -1.815490
     22          1           0        3.526058    1.281194    0.595062
     23          1           0        0.855235    1.897337    0.618907
     24          1           0        2.096935    2.945385   -0.113445
     25          1           0        1.196295    1.812564   -1.122520
 ---------------------------------------------------------------------

 SCF Done:  E(UB3LYP) =  -552.335819486     A.U. after   30 cycles

 The electronic state is 2-A.
 Alpha  occ. eigenvalues --  -18.99418 -14.29578 -14.24229 -14.23321 -10.18217
 Alpha  occ. eigenvalues --  -10.13002 -10.10575 -10.10153 -10.09287 -10.07983
 Alpha  occ. eigenvalues --  -10.07587 -10.06808  -0.95980  -0.94397  -0.82623
 Alpha  occ. eigenvalues --   -0.75370  -0.71088  -0.66395  -0.62145  -0.60565
 Alpha  occ. eigenvalues --   -0.54283  -0.51053  -0.48180  -0.47436  -0.43211
 Alpha  occ. eigenvalues --   -0.39735  -0.38719  -0.37426  -0.36181  -0.35213
 Alpha  occ. eigenvalues --   -0.34514  -0.33242  -0.31443  -0.31344  -0.30361
 Alpha  occ. eigenvalues --   -0.29235  -0.28059  -0.27798  -0.26614  -0.25041
 Alpha  occ. eigenvalues --   -0.19929  -0.17389  -0.16088  -0.15781  -0.14448
 Alpha  occ. eigenvalues --    0.04160
 Alpha virt. eigenvalues --    0.06242   0.07019   0.08092   0.08537   0.09003
 Alpha virt. eigenvalues --    0.09622   0.09927   0.10351   0.11225   0.11675
 Alpha virt. eigenvalues --    0.11769   0.12519   0.12932   0.13622   0.14150

  Beta  occ. eigenvalues --  -18.99415 -14.29576 -14.24217 -14.23318 -10.18213
  Beta  occ. eigenvalues --  -10.12980 -10.10535 -10.10101 -10.09278 -10.07959
  Beta  occ. eigenvalues --  -10.07588 -10.06783  -0.95970  -0.94388  -0.82597
  Beta  occ. eigenvalues --   -0.75356  -0.71057  -0.66355  -0.62100  -0.60490
  Beta  occ. eigenvalues --   -0.54227  -0.51024  -0.48133  -0.47387  -0.43149
  Beta  occ. eigenvalues --   -0.39661  -0.38682  -0.37398  -0.36137  -0.35181
  Beta  occ. eigenvalues --   -0.34468  -0.33211  -0.31412  -0.31305  -0.30325
  Beta  occ. eigenvalues --   -0.29192  -0.28026  -0.27764  -0.26572  -0.25013
  Beta  occ. eigenvalues --   -0.19917  -0.17377  -0.16066  -0.15754  -0.14424
  Beta virt. eigenvalues --    0.06581   0.07324   0.08106   0.08589   0.08847
  Beta virt. eigenvalues --    0.09258   0.10087   0.10163   0.10826   0.11530
  Beta virt. eigenvalues --    0.11869   0.12146   0.13089   0.13326   0.14041

 Mulliken charges and spin densities:
               1          2
     1  C    0.736393  -1.340581
     2  C   -0.556234   0.029164
     3  C   -0.396626   1.063178
     4  C    1.251953  -1.670103
     5  N    0.235623   0.027331
     6  N   -0.369846   0.153024
     7  C    0.046052  -0.330243
     8  C    0.843087  -1.127236
     9  C   -0.143489   0.283868
    10  O   -0.366550   0.015200
    11  N   -0.352623   0.118671
    12  C    1.037181  -1.508945
    13  H   -0.015557   0.155712
    14  H   -0.253259   0.386015
    15  H   -0.018069   0.156193
    16  H   -0.364417   0.531137
    17  H   -0.168862   0.311945
    18  H   -0.910194   1.105145
    19  H    0.044430   0.093328
    20  H    0.245434  -0.023452
    21  H   -0.346664   0.533314
    22  H    0.080166   0.223862
    23  H    0.009022   0.185797
    24  H   -0.884288   1.051001
    25  H   -0.382664   0.576675
 Sum of Mulliken charges =  -1.00000   1.00000

 Dipole moment (field-independent basis, Debye):
    X=             -0.4793    Y=             -3.1816    Z=              3.4116  Tot=              4.6895
 Quadrupole moment (field-independent basis, Debye-Ang):
   XX=           -147.1672   YY=           -112.5384   ZZ=           -111.1692
   XY=              1.6979   XZ=             -6.1672   YZ=              6.6406

 Summary of Natural Population Analysis:

                                       Natural Population
                Natural  -----------------------------------------------
    Atom  No    Charge         Core      Valence    Rydberg      Total
 -----------------------------------------------------------------------
      C    1   -0.27731      0.99966     2.27364    0.00401     3.27731
      C    2   -0.19787      0.99961     2.18928    0.00898     3.19787
      C    3   -0.07123      0.99952     2.05957    0.01214     3.07123
      C    4    0.00017      0.99948     1.98784    0.01252     2.99983
      N    5   -0.11221      0.99966     2.59869    0.01385     3.61221
      N    6   -0.15555      0.99973     2.64455    0.01127     3.65555
      C    7   -0.01044      0.99957     1.99740    0.01347     3.01044
      C    8   -0.12164      0.99957     2.11054    0.01153     3.12164
      C    9    0.34154      0.99968     1.63560    0.02318     2.65846
      O   10   -0.32352      0.99988     3.31801    0.00563     4.32352
      N   11   -0.31202      0.99968     2.80210    0.01025     3.81202
      C   12   -0.18290      0.99964     2.17482    0.00844     3.18290
      H   13    0.09716      0.00000     0.40152    0.00133     0.40284
      H   14    0.09701      0.00000     0.40160    0.00138     0.40299
      H   15    0.09421      0.00000     0.40452    0.00127     0.40579
      H   16    0.10434      0.00000     0.39388    0.00178     0.39566
      H   17    0.10005      0.00000     0.39866    0.00129     0.39995
      H   18    0.11078      0.00000     0.38582    0.00340     0.38922
      H   19    0.09713      0.00000     0.40199    0.00088     0.40287
      H   20    0.11102      0.00000     0.38789    0.00109     0.38898
      H   21    0.11442      0.00000     0.38394    0.00164     0.38558
      H   22    0.19448      0.00000     0.30334    0.00218     0.30552
      H   23    0.09914      0.00000     0.39883    0.00203     0.40086
      H   24    0.10205      0.00000     0.39570    0.00225     0.39795
      H   25    0.10120      0.00000     0.39606    0.00274     0.39880
 =======================================================================
   * Total *    0.00000     11.99567    32.84579    0.15854    45.00000

 Normal termination of Gaussian 16 at Wed Dec  9 17:08:14 2020.
