 Gaussian 16, Revision A.03,

 -----------------------------------------------------------
 # opt freq B3LYP/6-31G(d) empiricaldispersion=gd3bj scf=xqc
 -----------------------------------------------------------

 ---------------------------
 CID_85905_JID_2156_neutraal
 ---------------------------
 Symbolic Z-matrix:
 Charge =  0 Multiplicity = 1

 SCF Done:  E(RB3LYP) =  -505.237449161     A.U. after   13 cycles
 SCF Done:  E(RB3LYP) =  -505.240711444     A.U. after   11 cycles
 SCF Done:  E(RB3LYP) =  -505.241273283     A.U. after   12 cycles
 SCF Done:  E(RB3LYP) =  -505.241597097     A.U. after   12 cycles
 SCF Done:  E(RB3LYP) =  -505.241864493     A.U. after   11 cycles
 SCF Done:  E(RB3LYP) =  -505.241972852     A.U. after   11 cycles
 SCF Done:  E(RB3LYP) =  -505.242002828     A.U. after   11 cycles
 SCF Done:  E(RB3LYP) =  -505.242024946     A.U. after   10 cycles
 SCF Done:  E(RB3LYP) =  -505.242036950     A.U. after   10 cycles
 SCF Done:  E(RB3LYP) =  -505.242040926     A.U. after    9 cycles
 SCF Done:  E(RB3LYP) =  -505.242042392     A.U. after    8 cycles
 SCF Done:  E(RB3LYP) =  -505.242042647     A.U. after    8 cycles
 SCF Done:  E(RB3LYP) =  -505.242042689     A.U. after    7 cycles
 SCF Done:  E(RB3LYP) =  -505.242042685     A.U. after    7 cycles
 SCF Done:  E(RB3LYP) =  -505.242042678     A.U. after    7 cycles
 Optimization completed.
    -- Stationary point found.
 Normal termination of Gaussian 16 at Wed Dec  9 16:53:29 2020.

 --------------------------------------------------------------------
 #N Geom=AllCheck Guess=TCheck SCRF=Check GenChk RB3LYP/6-31G(d) Freq
 --------------------------------------------------------------------

 Structure from the checkpoint file:  "JID_2156.chk"
 ---------------------------
 CID_85905_JID_2156_neutraal
 ---------------------------
 Charge =  0 Multiplicity = 1

 SCF Done:  E(RB3LYP) =  -505.242042678     A.U. after    1 cycles

  Exact polarizability: 123.766 -12.847 113.645  -0.513  -1.593 105.659
 Approx polarizability: 164.737 -19.990 160.325  -2.873  -7.795 167.737

                      1                      2                      3
                      A                      A                      A
 Frequencies --     28.0421                52.6366                77.7350
 Red. masses --      3.1449                 3.5955                 3.0936
 Frc consts  --      0.0015                 0.0059                 0.0110
 IR Inten    --      1.7658                 0.5403                 0.4784

                      4                      5                      6
                      A                      A                      A
 Frequencies --    156.0781               171.7544               190.7123
 Red. masses --      2.3638                 1.5130                 2.8602
 Frc consts  --      0.0339                 0.0263                 0.0613
 IR Inten    --      0.9758                 3.3287                 2.8891

                      7                      8                      9
                      A                      A                      A
 Frequencies --    212.9391               251.3649               274.2343
 Red. masses --      1.6766                 2.7558                 2.0169
 Frc consts  --      0.0448                 0.1026                 0.0894
 IR Inten    --      5.5126                14.6967                21.8321

                     10                     11                     12
                      A                      A                      A
 Frequencies --    286.5127               307.8521               333.1910
 Red. masses --      1.9636                 1.4421                 2.4718
 Frc consts  --      0.0950                 0.0805                 0.1617
 IR Inten    --      8.5127                86.6704                 1.9861

                     13                     14                     15
                      A                      A                      A
 Frequencies --    353.1810               408.1510               443.1653
 Red. masses --      2.6782                 2.4650                 2.0733
 Frc consts  --      0.1968                 0.2419                 0.2399
 IR Inten    --      0.3208                 3.5243                 4.5067

                     16                     17                     18
                      A                      A                      A
 Frequencies --    480.9006               515.7754               538.2736
 Red. masses --      2.2674                 2.7268                 3.8294
 Frc consts  --      0.3090                 0.4274                 0.6537
 IR Inten    --      3.4299                 2.6386                 0.4487

                     19                     20                     21
                      A                      A                      A
 Frequencies --    619.6018               710.3143               739.2059
 Red. masses --      2.9018                 2.7114                 1.7613
 Frc consts  --      0.6564                 0.8060                 0.5671
 IR Inten    --      7.4024                 1.7992                 0.3224

                     22                     23                     24
                      A                      A                      A
 Frequencies --    767.8702               785.8593               825.4014
 Red. masses --      1.7845                 1.7759                 1.3039
 Frc consts  --      0.6199                 0.6462                 0.5234
 IR Inten    --      0.2671                 3.9556                 5.2012

                     25                     26                     27
                      A                      A                      A
 Frequencies --    880.3794               887.5171               908.7238
 Red. masses --      2.4372                 2.2638                 2.0366
 Frc consts  --      1.1129                 1.0506                 0.9909
 IR Inten    --      0.3345                 7.3033                 2.8564

                     28                     29                     30
                      A                      A                      A
 Frequencies --    940.4504               950.0010               971.7715
 Red. masses --      1.7504                 1.6188                 2.3344
 Frc consts  --      0.9122                 0.8608                 1.2988
 IR Inten    --     14.5776                15.4948                 2.4711

                     31                     32                     33
                      A                      A                      A
 Frequencies --    989.1333              1023.5571              1034.3340
 Red. masses --      1.6529                 1.9360                 1.6216
 Frc consts  --      0.9528                 1.1950                 1.0221
 IR Inten    --      3.5748                 4.7172                 3.1576

                     34                     35                     36
                      A                      A                      A
 Frequencies --   1039.2802              1054.4979              1088.5002
 Red. masses --      1.6889                 1.5584                 1.9531
 Frc consts  --      1.0748                 1.0210                 1.3634
 IR Inten    --     52.1427                 2.5003                 2.4242

                     37                     38                     39
                      A                      A                      A
 Frequencies --   1093.3601              1113.1214              1133.0989
 Red. masses --      1.8250                 3.3592                 1.5609
 Frc consts  --      1.2854                 2.4523                 1.1808
 IR Inten    --      4.7579                25.2438                 3.6845

                     40                     41                     42
                      A                      A                      A
 Frequencies --   1185.6507              1192.2911              1203.3439
 Red. masses --      2.0931                 1.2226                 1.2995
 Frc consts  --      1.7336                 1.0240                 1.1087
 IR Inten    --     10.0176                15.9470                 7.7905

                     43                     44                     45
                      A                      A                      A
 Frequencies --   1216.9128              1237.1550              1297.6904
 Red. masses --      1.3037                 1.4849                 1.4143
 Frc consts  --      1.1375                 1.3390                 1.4032
 IR Inten    --      8.3047                 3.8032                 1.2949

                     46                     47                     48
                      A                      A                      A
 Frequencies --   1315.4098              1334.6051              1358.7452
 Red. masses --      1.2283                 1.2390                 1.4082
 Frc consts  --      1.2522                 1.3003                 1.5318
 IR Inten    --      7.0010                 0.6400                 1.9065

                     49                     50                     51
                      A                      A                      A
 Frequencies --   1371.0538              1384.8143              1391.0134
 Red. masses --      1.5585                 1.3269                 1.4583
 Frc consts  --      1.7261                 1.4992                 1.6625
 IR Inten    --      3.1967                 2.8733                 2.2069

                     52                     53                     54
                      A                      A                      A
 Frequencies --   1405.3104              1419.1734              1424.9914
 Red. masses --      1.4441                 1.7921                 1.5991
 Frc consts  --      1.6803                 2.1266                 1.9132
 IR Inten    --     11.3402                 0.2585                12.1354

                     55                     56                     57
                      A                      A                      A
 Frequencies --   1442.2483              1443.5321              1480.6449
 Red. masses --      1.2647                 1.2777                 1.1843
 Frc consts  --      1.5499                 1.5687                 1.5297
 IR Inten    --     51.2480                 1.3532                 1.2380

                     58                     59                     60
                      A                      A                      A
 Frequencies --   1489.5525              1507.8476              1509.9789
 Red. masses --      1.1110                 1.0602                 1.0742
 Frc consts  --      1.4524                 1.4202                 1.4430
 IR Inten    --      8.9842                 7.1291                 3.8083

                     61                     62                     63
                      A                      A                      A
 Frequencies --   1514.5594              1523.1009              1525.1101
 Red. masses --      1.0797                 1.0581                 1.0998
 Frc consts  --      1.4592                 1.4463                 1.5072
 IR Inten    --      3.4658                 6.9888                 3.8435

                     64                     65                     66
                      A                      A                      A
 Frequencies --   1537.1497              1719.6101              1756.9211
 Red. masses --      1.0880                 4.7962                 6.5019
 Frc consts  --      1.5147                 8.3561                11.8248
 IR Inten    --      2.6583                12.6161                 0.5646

                     67                     68                     69
                      A                      A                      A
 Frequencies --   2994.2857              3009.7083              3010.6561
 Red. masses --      1.0726                 1.0662                 1.0683
 Frc consts  --      5.6661                 5.6901                 5.7053
 IR Inten    --     75.3068                16.6911                34.8552

                     70                     71                     72
                      A                      A                      A
 Frequencies --   3019.8158              3024.3784              3029.5886
 Red. masses --      1.0676                 1.0438                 1.0752
 Frc consts  --      5.7359                 5.6255                 5.8147
 IR Inten    --     25.6364                60.9271                10.3462

                     73                     74                     75
                      A                      A                      A
 Frequencies --   3044.0297              3046.0135              3055.2963
 Red. masses --      1.0847                 1.0935                 1.0826
 Frc consts  --      5.9218                 5.9775                 5.9545
 IR Inten    --     55.5811                23.0060                63.4711

                     76                     77                     78
                      A                      A                      A
 Frequencies --   3067.5364              3071.9426              3092.9552
 Red. masses --      1.0992                 1.0873                 1.0993
 Frc consts  --      6.0940                 6.0454                 6.1959
 IR Inten    --     34.0086                18.3587                39.2621

                     79                     80                     81
                      A                      A                      A
 Frequencies --   3105.2622              3120.1579              3145.3723
 Red. masses --      1.0922                 1.0994                 1.0891
 Frc consts  --      6.2050                 6.3058                 6.3485
 IR Inten    --     30.6156                20.4633                36.4596

                     82                     83                     84
                      A                      A                      A
 Frequencies --   3159.7377              3259.8211              3738.1858
 Red. masses --      1.0643                 1.1111                 1.0660
 Frc consts  --      6.2606                 6.9563                 8.7767
 IR Inten    --     17.4076                 3.1394                 6.8606

 - Thermochemistry -
 -------------------
 Temperature   298.150 Kelvin.  Pressure   1.00000 Atm.
 Atom     1 has atomic number  6 and mass  12.00000

 Molecular mass:   166.13577 amu.
 Principal axes and moments of inertia in atomic units:
                           1         2         3
     Eigenvalues --  1335.794723013.064663476.92697
           X            0.99980  -0.01839   0.00750
           Y            0.01833   0.99980   0.00839
           Z           -0.00765  -0.00825   0.99994
 This molecule is an asymmetric top.
 Rotational symmetry number  1.
 Warning -- assumption of classical behavior for rotation
           may cause significant error
 Rotational temperatures (Kelvin)      0.06484     0.02875     0.02491
 Rotational constants (GHZ):           1.35106     0.59897     0.51906
 Zero-point vibrational energy     710711.2 (Joules/Mol)
                                  169.86406 (Kcal/Mol)
 Warning -- explicit consideration of  19 degrees of freedom as
           vibrations may cause significant error
 Vibrational temperatures:     40.35    75.73   111.84   224.56   247.12
          (Kelvin)            274.39   306.37   361.66   394.56   412.23
                              442.93   479.39   508.15   587.24   637.62
                              691.91   742.09   774.46   891.47  1021.98
                             1063.55  1104.79  1130.68  1187.57  1266.67
                             1276.94  1307.45  1353.10  1366.84  1398.16
                             1423.14  1472.67  1488.18  1495.29  1517.19
                             1566.11  1573.10  1601.53  1630.28  1705.89
                             1715.44  1731.34  1750.87  1779.99  1867.09
                             1892.58  1920.20  1954.93  1972.64  1992.44
                             2001.36  2021.93  2041.87  2050.24  2075.07
                             2076.92  2130.32  2143.13  2169.46  2172.52
                             2179.11  2191.40  2194.29  2211.62  2474.14
                             2527.82  4308.11  4330.30  4331.66  4344.84
                             4351.41  4358.90  4379.68  4382.53  4395.89
                             4413.50  4419.84  4450.07  4467.78  4489.21
                             4525.49  4546.16  4690.16  5378.42

 Zero-point correction=                           0.270696 (Hartree/Particle)
 Thermal correction to Energy=                    0.283497
 Thermal correction to Enthalpy=                  0.284441
 Thermal correction to Gibbs Free Energy=         0.231268
 Sum of electronic and zero-point Energies=           -504.971347
 Sum of electronic and thermal Energies=              -504.958546
 Sum of electronic and thermal Enthalpies=            -504.957602
 Sum of electronic and thermal Free Energies=         -505.010774

                     E (Thermal)             CV                S
                      KCal/Mol        Cal/Mol-Kelvin    Cal/Mol-Kelvin
 Total                  177.897             49.070            111.912
 Electronic               0.000              0.000              0.000
 Translational            0.889              2.981             41.231
 Rotational               0.889              2.981             31.015
 Vibrational            176.120             43.108             39.665
 Vibration     1          0.593              1.984              5.963
 Vibration     2          0.596              1.977              4.716
 Vibration     3          0.599              1.964              3.947
 Vibration     4          0.620              1.896              2.597
 Vibration     5          0.626              1.877              2.416
 Vibration     6          0.634              1.853              2.221
 Vibration     7          0.644              1.821              2.018
 Vibration     8          0.663              1.760              1.721
 Vibration     9          0.677              1.721              1.569
 Vibration    10          0.684              1.699              1.494
 Vibration    11          0.698              1.659              1.374
 Vibration    12          0.715              1.609              1.245
 Vibration    13          0.729              1.569              1.152
 Vibration    14          0.773              1.453              0.933
 Vibration    15          0.803              1.376              0.817
 Vibration    16          0.837              1.292              0.708
 Vibration    17          0.871              1.215              0.620
 Vibration    18          0.893              1.165              0.569
 Vibration    19          0.980              0.991              0.417

 Optimization completed.
    -- Stationary point found.
 Normal termination of Gaussian 16 at Wed Dec  9 17:00:42 2020.

 ----------------------------------------------------------------------
 # B3LYP/6-311++G(d,p) empiricaldispersion=gd3bj scf=xqc pop=npa geom=c
 heck
 ----------------------------------------------------------------------

 -----------------------------------
 CID_85905_JID_2156_Energie_neutraal
 -----------------------------------
 Structure from the checkpoint file:  "JID_2156.chk"
 Charge =  0 Multiplicity = 1

 SCF Done:  E(RB3LYP) =  -505.391972754     A.U. after   14 cycles
 Normal termination of Gaussian 16 at Wed Dec  9 17:04:05 2020.

 ----------------------------------------------------------------------
 # B3LYP/6-311++G(d,p) empiricaldispersion=gd3bj scf=xqc pop=npa geom=c
 heck
 ----------------------------------------------------------------------

 ---------------------------------
 CID_85905_JID_2156_Energie_kation
 ---------------------------------
 Structure from the checkpoint file:  "JID_2156.chk"
 Charge =  1 Multiplicity = 2

 SCF Done:  E(UB3LYP) =  -505.088893648     A.U. after   24 cycles
 Normal termination of Gaussian 16 at Wed Dec  9 17:12:01 2020.
 Gaussian 16:  ES64L-G16RevA.03 25-Dec-2016

 ----------------------------------------------------------------------
 # B3LYP/6-311++G(d,p) empiricaldispersion=gd3bj scf=xqc pop=npa geom=c
 heck
 ----------------------------------------------------------------------

 --------------------------------
 CID_85905_JID_2156_Energie_anion
 --------------------------------
 Structure from the checkpoint file:  "JID_2156.chk"
 Charge = -1 Multiplicity = 2

                         Standard orientation:
 ---------------------------------------------------------------------
 Center     Atomic      Atomic             Coordinates (Angstroms)
 Number     Number       Type             X           Y           Z
 ---------------------------------------------------------------------
      1          6           0       -3.004961    1.856437   -0.235320
      2          6           0       -2.167672    0.619387   -0.054376
      3          6           0       -1.908773    0.101396    1.152971
      4          6           0       -1.055352   -1.115540    1.403152
      5          6           0       -0.203366   -1.536606    0.187521
      6          6           0       -1.061007   -1.413894   -1.091902
      7          6           0       -1.617197   -0.003909   -1.316263
      8          6           0        1.142450   -0.822112    0.076087
      9          6           0        2.214361   -1.519800   -0.317302
     10          6           0        1.223053    0.655290    0.412352
     11          6           0        2.620769    1.244572    0.602690
     12          8           0        3.420651    1.272007   -0.576163
     13          1           0       -2.439552    2.641866   -0.756987
     14          1           0       -3.890558    1.650593   -0.852335
     15          1           0       -3.343396    2.263081    0.722935
     16          1           0       -2.339600    0.579424    2.032929
     17          1           0       -0.409191   -0.945615    2.275307
     18          1           0       -1.705274   -1.957288    1.687159
     19          1           0        0.033208   -2.600850    0.302607
     20          1           0       -0.475456   -1.735306   -1.959978
     21          1           0       -1.904881   -2.110399   -0.995385
     22          1           0       -2.408488   -0.037210   -2.078829
     23          1           0       -0.842392    0.653329   -1.739927
     24          1           0        3.180582   -1.054948   -0.474722
     25          1           0        2.139136   -2.585911   -0.521189
     26          1           0        0.693322    1.247393   -0.349801
     27          1           0        0.661511    0.846745    1.335063
     28          1           0        2.519902    2.259411    1.020370
     29          1           0        3.185572    0.645664    1.323985
     30          1           0        2.886514    1.672650   -1.279547
 ---------------------------------------------------------------------

 SCF Done:  E(UB3LYP) =  -505.378865794     A.U. after   32 cycles

 The electronic state is 2-A.
 Alpha  occ. eigenvalues --  -19.01827 -10.11251 -10.07684 -10.07435 -10.06794
 Alpha  occ. eigenvalues --  -10.06732 -10.06644 -10.06318 -10.06262 -10.05710
 Alpha  occ. eigenvalues --  -10.05499 -10.04889  -0.91936  -0.74505  -0.70074
 Alpha  occ. eigenvalues --   -0.65757  -0.63947  -0.61828  -0.57303  -0.53688
 Alpha  occ. eigenvalues --   -0.51808  -0.49122  -0.43348  -0.40753  -0.38262
 Alpha  occ. eigenvalues --   -0.37417  -0.36139  -0.35409  -0.34299  -0.33010
 Alpha  occ. eigenvalues --   -0.31698  -0.31217  -0.30743  -0.28826  -0.28208
 Alpha  occ. eigenvalues --   -0.27220  -0.26693  -0.26088  -0.25788  -0.22599
 Alpha  occ. eigenvalues --   -0.22377  -0.21943  -0.20186  -0.17258  -0.14472
 Alpha  occ. eigenvalues --   -0.13100   0.04469
 Alpha virt. eigenvalues --    0.06758   0.07443   0.07604   0.08966   0.09270
 Alpha virt. eigenvalues --    0.09405   0.10061   0.10175   0.10575   0.11634
 Alpha virt. eigenvalues --    0.11971   0.12263   0.12871   0.13110   0.13511

  Beta  occ. eigenvalues --  -19.01796 -10.11234 -10.07684 -10.07432 -10.06796
  Beta  occ. eigenvalues --  -10.06715 -10.06616 -10.06301 -10.06234 -10.05674
  Beta  occ. eigenvalues --  -10.05479 -10.04879  -0.91868  -0.74481  -0.70048
  Beta  occ. eigenvalues --   -0.65719  -0.63907  -0.61789  -0.57250  -0.53617
  Beta  occ. eigenvalues --   -0.51748  -0.49078  -0.43309  -0.40704  -0.38209
  Beta  occ. eigenvalues --   -0.37350  -0.36108  -0.35362  -0.34263  -0.32982
  Beta  occ. eigenvalues --   -0.31666  -0.31178  -0.30709  -0.28794  -0.28178
  Beta  occ. eigenvalues --   -0.27180  -0.26649  -0.26056  -0.25755  -0.22562
  Beta  occ. eigenvalues --   -0.22351  -0.21907  -0.20152  -0.17222  -0.14453
  Beta  occ. eigenvalues --   -0.13068
  Beta virt. eigenvalues --    0.06704   0.07649   0.08025   0.08263   0.09293
  Beta virt. eigenvalues --    0.09589   0.09815   0.10369   0.10593   0.10849
  Beta virt. eigenvalues --    0.11803   0.12263   0.12620   0.13254   0.13442

 Mulliken charges and spin densities:
               1          2
     1  C    2.152728  -2.630997
     2  C   -0.069214   0.520124
     3  C   -1.412698   1.300839
     4  C    1.748244  -2.853021
     5  C    0.004407   0.615789
     6  C    0.599970  -1.399882
     7  C   -1.277388   0.954580
     8  C   -0.351475   0.925232
     9  C   -0.304468  -0.289112
    10  C   -1.370235   1.064105
    11  C    1.657824  -2.317147
    12  O   -0.233911   0.016046
    13  H   -0.402429   0.560312
    14  H   -0.089713   0.224172
    15  H   -0.290676   0.432916
    16  H   -0.674443   0.840858
    17  H    0.083678   0.071726
    18  H   -0.275509   0.440049
    19  H    0.008469   0.203555
    20  H   -0.059167   0.226786
    21  H   -0.083117   0.221032
    22  H   -0.166473   0.355407
    23  H   -0.301111   0.464447
    24  H    0.239092  -0.070965
    25  H   -0.115279   0.218317
    26  H    0.237854  -0.066193
    27  H    0.089326   0.067138
    28  H   -0.337714   0.496841
    29  H    0.066244   0.092677
    30  H   -0.072814   0.314368
 Sum of Mulliken charges =  -1.00000   1.00000

 Dipole moment (field-independent basis, Debye):
    X=              1.4066    Y=             -3.5923    Z=              0.7819  Tot=              3.9363
 Quadrupole moment (field-independent basis, Debye-Ang):
   XX=           -135.7239   YY=           -121.4585   ZZ=           -112.5524
   XY=             -0.9000   XZ=              4.8055   YZ=              1.9666

 Summary of Natural Population Analysis:

                                       Natural Population
                Natural  -----------------------------------------------
    Atom  No    Charge         Core      Valence    Rydberg      Total
 -----------------------------------------------------------------------
      C    1   -0.29032      0.99962     2.28544    0.00525     3.29032
      C    2   -0.00946      0.99948     1.99845    0.01152     3.00946
      C    3   -0.10116      0.99945     2.09149    0.01023     3.10116
      C    4   -0.20351      0.99961     2.19355    0.01035     3.20351
      C    5   -0.11903      0.99955     2.10731    0.01217     3.11903
      C    6   -0.18099      0.99961     2.17248    0.00889     3.18099
      C    7   -0.20546      0.99958     2.19644    0.00944     3.20546
      C    8    0.00832      0.99950     1.98070    0.01148     2.99168
      C    9   -0.20379      0.99949     2.19698    0.00733     3.20379
      C   10   -0.22594      0.99956     2.21705    0.00933     3.22594
      C   11   -0.00861      0.99960     1.99513    0.01388     3.00861
      O   12   -0.37266      0.99990     3.36575    0.00702     4.37266
      H   13    0.10400      0.00000     0.39398    0.00202     0.39600
      H   14    0.09932      0.00000     0.39923    0.00144     0.40068
      H   15    0.10169      0.00000     0.39700    0.00131     0.39831
      H   16    0.09553      0.00000     0.40317    0.00130     0.40447
      H   17    0.10152      0.00000     0.39723    0.00125     0.39848
      H   18    0.10445      0.00000     0.39426    0.00129     0.39555
      H   19    0.10083      0.00000     0.39742    0.00175     0.39917
      H   20    0.10083      0.00000     0.39795    0.00122     0.39917
      H   21    0.09568      0.00000     0.40294    0.00138     0.40432
      H   22    0.10271      0.00000     0.39607    0.00123     0.39729
      H   23    0.10303      0.00000     0.39470    0.00227     0.39697
      H   24    0.10398      0.00000     0.39475    0.00127     0.39602
      H   25    0.08870      0.00000     0.41017    0.00113     0.41130
      H   26    0.10718      0.00000     0.38988    0.00294     0.39282
      H   27    0.11042      0.00000     0.38761    0.00197     0.38958
      H   28    0.07945      0.00000     0.41918    0.00137     0.42055
      H   29    0.08400      0.00000     0.41461    0.00139     0.41600
      H   30    0.22929      0.00000     0.26649    0.00422     0.27071
 =======================================================================
   * Total *    0.00000     11.99496    33.85741    0.14763    46.00000

 Normal termination of Gaussian 16 at Wed Dec  9 17:22:34 2020.
