 Gaussian 16, Revision A.03,

 -----------------------------------------------------------
 # opt freq B3LYP/6-31G(d) empiricaldispersion=gd3bj scf=xqc
 -----------------------------------------------------------

 -------------------------------
 CID_106419891_JID_9650_neutraal
 -------------------------------
 Symbolic Z-matrix:
 Charge =  0 Multiplicity = 1

 SCF Done:  E(RB3LYP) =  -1274.05531772     A.U. after   14 cycles
 SCF Done:  E(RB3LYP) =  -1274.06206973     A.U. after   12 cycles
 SCF Done:  E(RB3LYP) =  -1274.06309614     A.U. after   12 cycles
 SCF Done:  E(RB3LYP) =  -1274.06345027     A.U. after   11 cycles
 SCF Done:  E(RB3LYP) =  -1274.06362188     A.U. after   12 cycles
 SCF Done:  E(RB3LYP) =  -1274.06373147     A.U. after   11 cycles
 SCF Done:  E(RB3LYP) =  -1274.06383781     A.U. after   12 cycles
 SCF Done:  E(RB3LYP) =  -1274.06392696     A.U. after   11 cycles
 SCF Done:  E(RB3LYP) =  -1274.06395187     A.U. after   10 cycles
 SCF Done:  E(RB3LYP) =  -1274.06396644     A.U. after   11 cycles
 SCF Done:  E(RB3LYP) =  -1274.06485567     A.U. after    9 cycles
 SCF Done:  E(RB3LYP) =  -1274.06485579     A.U. after    8 cycles
 SCF Done:  E(RB3LYP) =  -1274.06485583     A.U. after    9 cycles
 SCF Done:  E(RB3LYP) =  -1274.06485580     A.U. after    7 cycles
 SCF Done:  E(RB3LYP) =  -1274.06485577     A.U. after    7 cycles
 Optimization completed.
    -- Stationary point found.
 Normal termination of Gaussian 16 at Mon Dec 14 17:30:05 2020.

 --------------------------------------------------------------------
 #N Geom=AllCheck Guess=TCheck SCRF=Check GenChk RB3LYP/6-31G(d) Freq
 --------------------------------------------------------------------

 Structure from the checkpoint file:  "JID_9650.chk"
 -------------------------------
 CID_106419891_JID_9650_neutraal
 -------------------------------
 Charge =  0 Multiplicity = 1

 SCF Done:  E(RB3LYP) =  -1274.06485577     A.U. after    1 cycles

  Exact polarizability: 184.537   8.688 153.117  -1.461  -3.284 147.003
 Approx polarizability: 228.260  19.315 218.697  -2.590  -5.315 248.930

                      1                      2                      3
                      A                      A                      A
 Frequencies --     10.2294                24.0868                25.0645
 Red. masses --      4.8688                 5.3342                 3.1418
 Frc consts  --      0.0003                 0.0018                 0.0012
 IR Inten    --      0.2063                 0.3079                 0.2665

                      4                      5                      6
                      A                      A                      A
 Frequencies --     38.2604                55.9651                72.9202
 Red. masses --      4.6420                 5.0775                 1.0757
 Frc consts  --      0.0040                 0.0094                 0.0034
 IR Inten    --      0.3154                 0.1867                 0.7064

                      7                      8                      9
                      A                      A                      A
 Frequencies --     93.0333               107.9253               162.7895
 Red. masses --      3.9047                 4.4558                 3.1899
 Frc consts  --      0.0199                 0.0306                 0.0498
 IR Inten    --      1.7947                 4.3545                 2.0917

                     10                     11                     12
                      A                      A                      A
 Frequencies --    171.5732               179.7688               197.4885
 Red. masses --      6.7773                 3.5953                 4.3808
 Frc consts  --      0.1175                 0.0685                 0.1007
 IR Inten    --      2.5832                 1.6183                 1.9148

                     13                     14                     15
                      A                      A                      A
 Frequencies --    242.7189               246.2629               253.7216
 Red. masses --      2.1769                 2.5301                 5.6737
 Frc consts  --      0.0756                 0.0904                 0.2152
 IR Inten    --      2.7604                 3.1852                 0.4135

                     16                     17                     18
                      A                      A                      A
 Frequencies --    269.6810               312.7873               335.4749
 Red. masses --      5.7336                 2.6382                 2.9388
 Frc consts  --      0.2457                 0.1521                 0.1949
 IR Inten    --      2.3692                 1.4633                 3.3888

                     19                     20                     21
                      A                      A                      A
 Frequencies --    346.7275               359.0745               399.3825
 Red. masses --      1.8288                 3.5289                 4.5619
 Frc consts  --      0.1295                 0.2681                 0.4287
 IR Inten    --      0.2987                 5.9323                 9.8416

                     22                     23                     24
                      A                      A                      A
 Frequencies --    447.8433               460.6028               462.4939
 Red. masses --      3.1222                 3.2173                 5.1525
 Frc consts  --      0.3689                 0.4022                 0.6493
 IR Inten    --      2.2119                 5.6151                17.2313

                     25                     26                     27
                      A                      A                      A
 Frequencies --    494.2889               521.1098               559.8972
 Red. masses --      2.4722                 4.2578                 5.2180
 Frc consts  --      0.3559                 0.6812                 0.9638
 IR Inten    --     13.1517                 8.2369                82.3811

                     28                     29                     30
                      A                      A                      A
 Frequencies --    575.3978               636.4464               657.2622
 Red. masses --      1.7670                 3.4692                 3.8771
 Frc consts  --      0.3447                 0.8279                 0.9868
 IR Inten    --      9.4111                 1.3660                31.2683

                     31                     32                     33
                      A                      A                      A
 Frequencies --    671.6181               719.1162               742.0470
 Red. masses --      3.0042                 4.3940                 4.5299
 Frc consts  --      0.7984                 1.3388                 1.4696
 IR Inten    --     64.9450                14.5482                 7.8364

                     34                     35                     36
                      A                      A                      A
 Frequencies --    756.4832               795.7968               816.8157
 Red. masses --      2.8376                 1.5374                 2.4483
 Frc consts  --      0.9568                 0.5736                 0.9624
 IR Inten    --      9.2507                57.2135                 5.3945

                     37                     38                     39
                      A                      A                      A
 Frequencies --    851.1104               854.8051               871.5364
 Red. masses --      1.7336                 1.5443                 2.2745
 Frc consts  --      0.7399                 0.6649                 1.0179
 IR Inten    --     29.7004                54.6149                17.8756

                     40                     41                     42
                      A                      A                      A
 Frequencies --    900.7782               926.2483               942.4122
 Red. masses --      1.7005                 3.2219                 4.4752
 Frc consts  --      0.8129                 1.6286                 2.3417
 IR Inten    --     19.6460                65.6430                33.4360

                     43                     44                     45
                      A                      A                      A
 Frequencies --    947.6333               967.6229               991.7818
 Red. masses --      1.9775                 1.8347                 2.4881
 Frc consts  --      1.0463                 1.0121                 1.4420
 IR Inten    --      1.8917                 7.3072                14.9429

                     46                     47                     48
                      A                      A                      A
 Frequencies --   1003.9239              1014.3559              1049.6205
 Red. masses --      2.5521                 2.0085                 3.6387
 Frc consts  --      1.5155                 1.2176                 2.3619
 IR Inten    --     13.7704                 2.9060                 1.5074

                     49                     50                     51
                      A                      A                      A
 Frequencies --   1075.8786              1076.5842              1082.2868
 Red. masses --      1.9128                 2.2066                 2.0999
 Frc consts  --      1.3045                 1.5069                 1.4492
 IR Inten    --      4.1723                10.7586                 4.9944

                     52                     53                     54
                      A                      A                      A
 Frequencies --   1083.2595              1085.1358              1106.7785
 Red. masses --      1.5724                 3.3882                 2.3425
 Frc consts  --      1.0871                 2.3506                 1.6906
 IR Inten    --      3.4783                13.1139                52.4651

                     55                     56                     57
                      A                      A                      A
 Frequencies --   1114.7306              1120.1797              1134.8664
 Red. masses --      3.8053                 2.3066                 3.1875
 Frc consts  --      2.7860                 1.7053                 2.4187
 IR Inten    --     44.0511                48.1031                83.3792

                     58                     59                     60
                      A                      A                      A
 Frequencies --   1155.5551              1189.1929              1208.7194
 Red. masses --      2.6075                 1.3661                 1.3714
 Frc consts  --      2.0514                 1.1383                 1.1805
 IR Inten    --     15.1499                 3.6317                 3.8064

                     61                     62                     63
                      A                      A                      A
 Frequencies --   1240.6698              1252.7117              1262.9494
 Red. masses --      1.1544                 1.4325                 1.6471
 Frc consts  --      1.0469                 1.3245                 1.5479
 IR Inten    --     19.2563                 7.3170                70.1469

                     64                     65                     66
                      A                      A                      A
 Frequencies --   1290.7247              1301.4338              1310.0368
 Red. masses --      1.6594                 1.9059                 1.4402
 Frc consts  --      1.6288                 1.9019                 1.4563
 IR Inten    --     14.6615                19.2487                38.5670

                     67                     68                     69
                      A                      A                      A
 Frequencies --   1313.6484              1335.6776              1338.4234
 Red. masses --      1.2435                 2.6668                 2.2003
 Frc consts  --      1.2643                 2.8031                 2.3223
 IR Inten    --     20.5377                80.0002                77.6317

                     70                     71                     72
                      A                      A                      A
 Frequencies --   1359.6624              1383.3894              1387.9259
 Red. masses --      1.3221                 1.3755                 1.3314
 Frc consts  --      1.4401                 1.5509                 1.5111
 IR Inten    --     21.3578                22.4581                11.4749

                     73                     74                     75
                      A                      A                      A
 Frequencies --   1402.5309              1403.7708              1417.4560
 Red. masses --      1.4207                 1.2873                 1.4535
 Frc consts  --      1.6466                 1.4946                 1.7206
 IR Inten    --      2.0827                 1.6289                 8.6337

                     76                     77                     78
                      A                      A                      A
 Frequencies --   1433.8708              1438.8887              1445.3106
 Red. masses --      1.4338                 1.4736                 2.2383
 Frc consts  --      1.7368                 1.7976                 2.7548
 IR Inten    --     14.2294                10.3715                75.3440

                     79                     80                     81
                      A                      A                      A
 Frequencies --   1465.4501              1478.0942              1489.9765
 Red. masses --      1.2629                 1.1035                 1.1894
 Frc consts  --      1.5979                 1.4205                 1.5557
 IR Inten    --     73.9755                 9.1449                17.5950

                     82                     83                     84
                      A                      A                      A
 Frequencies --   1503.8206              1504.1955              1505.3036
 Red. masses --      1.0579                 1.0835                 1.1170
 Frc consts  --      1.4095                 1.4444                 1.4913
 IR Inten    --     11.4507                14.8602                 5.5967

                     85                     86                     87
                      A                      A                      A
 Frequencies --   1515.2536              1516.3617              1524.9879
 Red. masses --      1.2597                 1.0864                 1.1124
 Frc consts  --      1.7041                 1.4719                 1.5241
 IR Inten    --      5.2582                 4.9156                 4.9182

                     88                     89                     90
                      A                      A                      A
 Frequencies --   1531.1779              1535.9002              1573.2539
 Red. masses --      1.0833                 1.1091                 7.3040
 Frc consts  --      1.4964                 1.5415                10.6514
 IR Inten    --     21.7956                 2.4324                 5.8352

                     91                     92                     93
                      A                      A                      A
 Frequencies --   1641.5684              2924.6059              2947.6241
 Red. masses --      7.6899                 1.0736                 1.0807
 Frc consts  --     12.2092                 5.4106                 5.5321
 IR Inten    --     96.0185                68.7662                43.4617

                     94                     95                     96
                      A                      A                      A
 Frequencies --   3027.7223              3045.4071              3047.2259
 Red. masses --      1.0681                 1.0675                 1.0619
 Frc consts  --      5.7690                 5.8335                 5.8094
 IR Inten    --     21.7385                24.2360                27.2107

                     97                     98                     99
                      A                      A                      A
 Frequencies --   3058.6857              3064.1494              3071.8023
 Red. masses --      1.0659                 1.0635                 1.0376
 Frc consts  --      5.8753                 5.8830                 5.7687
 IR Inten    --     11.1437                17.8921                 4.6809

                    100                    101                    102
                      A                      A                      A
 Frequencies --   3075.3177              3081.0451              3083.2578
 Red. masses --      1.0622                 1.0910                 1.0923
 Frc consts  --      5.9189                 6.1017                 6.1179
 IR Inten    --     10.9979                53.1284                57.3663

                    103                    104                    105
                      A                      A                      A
 Frequencies --   3092.8527              3101.1349              3130.6938
 Red. masses --      1.1052                 1.1001                 1.0991
 Frc consts  --      6.2289                 6.2335                 6.3467
 IR Inten    --     53.0148                13.3741                14.9257

                    106                    107                    108
                      A                      A                      A
 Frequencies --   3130.8237              3135.1398              3137.9758
 Red. masses --      1.1013                 1.0950                 1.1024
 Frc consts  --      6.3601                 6.3413                 6.3958
 IR Inten    --      4.9024                 6.8909                 4.0254

                    109                    110                    111
                      A                      A                      A
 Frequencies --   3180.7241              3474.8216              3499.4025
 Red. masses --      1.1017                 1.0742                 1.0749
 Frc consts  --      6.5671                 7.6417                 7.7557
 IR Inten    --      1.9502                 4.3237               110.1896

 - Thermochemistry -
 -------------------
 Temperature   298.150 Kelvin.  Pressure   1.00000 Atm.
 Atom     1 has atomic number  6 and mass  12.00000

 Molecular mass:   288.12561 amu.
 Principal axes and moments of inertia in atomic units:
                           1         2         3
     Eigenvalues --  3685.55884********************
           X            0.99994  -0.01105   0.00153
           Y            0.01108   0.99968  -0.02272
           Z           -0.00128   0.02273   0.99974
 This molecule is an asymmetric top.
 Rotational symmetry number  1.
 Warning -- assumption of classical behavior for rotation
           may cause significant error
 Rotational temperatures (Kelvin)      0.02350     0.00765     0.00664
 Rotational constants (GHZ):           0.48968     0.15934     0.13830
 Zero-point vibrational energy     863655.9 (Joules/Mol)
                                  206.41871 (Kcal/Mol)
 Warning -- explicit consideration of  28 degrees of freedom as
           vibrations may cause significant error
 Vibrational temperatures:     14.72    34.66    36.06    55.05    80.52
          (Kelvin)            104.92   133.85   155.28   234.22   246.86
                              258.65   284.14   349.22   354.32   365.05
                              388.01   450.03   482.67   498.86   516.63
                              574.62   644.35   662.70   665.43   711.17
                              749.76   805.57   827.87   915.70   945.65
                              966.31  1034.65  1067.64  1088.41  1144.97
                             1175.22  1224.56  1229.87  1253.95  1296.02
                             1332.66  1355.92  1363.43  1392.19  1426.95
                             1444.42  1459.43  1510.17  1547.95  1548.96
                             1557.17  1558.57  1561.27  1592.41  1603.85
                             1611.69  1632.82  1662.59  1710.98  1739.08
                             1785.05  1802.37  1817.10  1857.06  1872.47
                             1884.85  1890.05  1921.74  1925.69  1956.25
                             1990.39  1996.92  2017.93  2019.71  2039.40
                             2063.02  2070.24  2079.48  2108.46  2126.65
                             2143.74  2163.66  2164.20  2165.80  2180.11
                             2181.71  2194.12  2203.02  2209.82  2263.56
                             2361.85  4207.86  4240.97  4356.22  4381.66
                             4384.28  4400.77  4408.63  4419.64  4424.70
                             4432.94  4436.12  4449.93  4461.84  4504.37
                             4504.56  4510.77  4514.85  4576.35  4999.49
                             5034.86

 Zero-point correction=                           0.328949 (Hartree/Particle)
 Thermal correction to Energy=                    0.348028
 Thermal correction to Enthalpy=                  0.348972
 Thermal correction to Gibbs Free Energy=         0.277420
 Sum of electronic and zero-point Energies=          -1273.735907
 Sum of electronic and thermal Energies=             -1273.716828
 Sum of electronic and thermal Enthalpies=           -1273.715883
 Sum of electronic and thermal Free Energies=        -1273.787436

                     E (Thermal)             CV                S
                      KCal/Mol        Cal/Mol-Kelvin    Cal/Mol-Kelvin
 Total                  218.391             70.898            150.595
 Electronic               0.000              0.000              0.000
 Translational            0.889              2.981             42.872
 Rotational               0.889              2.981             34.654
 Vibrational            216.614             64.936             73.069
 Vibration     1          0.593              1.987              7.966
 Vibration     2          0.593              1.985              6.265
 Vibration     3          0.593              1.985              6.186
 Vibration     4          0.594              1.982              5.347
 Vibration     5          0.596              1.975              4.595
 Vibration     6          0.599              1.967              4.073
 Vibration     7          0.602              1.954              3.595
 Vibration     8          0.606              1.943              3.306
 Vibration     9          0.623              1.888              2.517
 Vibration    10          0.626              1.877              2.418
 Vibration    11          0.629              1.867              2.331
 Vibration    12          0.637              1.843              2.156
 Vibration    13          0.659              1.775              1.783
 Vibration    14          0.661              1.769              1.757
 Vibration    15          0.665              1.757              1.705
 Vibration    16          0.674              1.729              1.598
 Vibration    17          0.701              1.649              1.348
 Vibration    18          0.717              1.605              1.234
 Vibration    19          0.725              1.582              1.181
 Vibration    20          0.734              1.557              1.126
 Vibration    21          0.765              1.471              0.965
 Vibration    22          0.807              1.366              0.802
 Vibration    23          0.818              1.337              0.764
 Vibration    24          0.820              1.333              0.759
 Vibration    25          0.850              1.263              0.673
 Vibration    26          0.876              1.203              0.607
 Vibration    27          0.916              1.118              0.524
 Vibration    28          0.932              1.084              0.494

 Optimization completed.
    -- Stationary point found.
 Normal termination of Gaussian 16 at Mon Dec 14 17:46:26 2020.

 ----------------------------------------------------------------------
 # B3LYP/6-311++G(d,p) empiricaldispersion=gd3bj scf=xqc pop=npa geom=c
 heck
 ----------------------------------------------------------------------

 ---------------------------------------
 CID_106419891_JID_9650_Energie_neutraal
 ---------------------------------------
 Structure from the checkpoint file:  "JID_9650.chk"
 Charge =  0 Multiplicity = 1

 SCF Done:  E(RB3LYP) =  -1274.34188243     A.U. after   16 cycles
 Normal termination of Gaussian 16 at Mon Dec 14 17:54:04 2020.

 ----------------------------------------------------------------------
 # B3LYP/6-311++G(d,p) empiricaldispersion=gd3bj scf=xqc pop=npa geom=c
 heck
 ----------------------------------------------------------------------

 -------------------------------------
 CID_106419891_JID_9650_Energie_kation
 -------------------------------------
 Structure from the checkpoint file:  "JID_9650.chk"
 Charge =  1 Multiplicity = 2

 SCF Done:  E(UB3LYP) =  -1274.02651567     A.U. after   29 cycles
 Normal termination of Gaussian 16 at Mon Dec 14 18:14:11 2020.
 Gaussian 16:  ES64L-G16RevA.03 25-Dec-2016

 ----------------------------------------------------------------------
 # B3LYP/6-311++G(d,p) empiricaldispersion=gd3bj scf=xqc pop=npa geom=c
 heck
 ----------------------------------------------------------------------

 ------------------------------------
 CID_106419891_JID_9650_Energie_anion
 ------------------------------------
 Structure from the checkpoint file:  "JID_9650.chk"
 Charge = -1 Multiplicity = 2

                         Standard orientation:
 ---------------------------------------------------------------------
 Center     Atomic      Atomic             Coordinates (Angstroms)
 Number     Number       Type             X           Y           Z
 ---------------------------------------------------------------------
      1          6           0       -5.906690   -2.070484    0.545288
      2          6           0       -4.730659   -1.217853    0.232061
      3          7           0       -4.210376   -0.940883   -0.929543
      4          6           0       -3.158110   -0.110223   -0.597583
      5          7           0       -3.032365    0.112379    0.687276
      6          8           0       -4.084856   -0.627356    1.255518
      7          6           0       -2.231938    0.475640   -1.617432
      8          6           0       -1.303450    1.562790   -1.073492
      9          7           0       -0.394211    0.998804   -0.065040
     10         16           0        0.953082    1.927738    0.365659
     11          8           0        0.811439    3.295299   -0.149380
     12          8           0        1.170340    1.672769    1.794238
     13          6           0        2.258376    1.145711   -0.611226
     14          6           0        2.579750   -0.298533   -0.216193
     15          6           0        3.489073   -0.376860    1.017076
     16          6           0        3.880961   -1.828348    1.315553
     17          6           0        4.500993   -2.484655    0.076721
     18          6           0        3.561519   -2.339462   -1.120712
     19          7           0        3.265491   -0.922259   -1.356657
     20          1           0       -5.620718   -2.890414    1.212196
     21          1           0       -6.682537   -1.485257    1.049870
     22          1           0       -6.308243   -2.480360   -0.382163
     23          1           0       -1.637110   -0.338078   -2.050829
     24          1           0       -2.842824    0.887386   -2.429131
     25          1           0       -0.699705    1.956220   -1.894538
     26          1           0       -1.887418    2.399918   -0.672585
     27          1           0       -0.886873    0.735254    0.789174
     28          1           0        1.901621    1.210589   -1.645133
     29          1           0        3.131382    1.798005   -0.517423
     30          1           0        1.630106   -0.816256    0.015320
     31          1           0        2.982420    0.080464    1.870352
     32          1           0        4.393618    0.210385    0.808664
     33          1           0        4.574478   -1.866052    2.163733
     34          1           0        2.985267   -2.391623    1.615291
     35          1           0        5.454097   -1.996209   -0.162317
     36          1           0        4.708396   -3.546268    0.257671
     37          1           0        4.024804   -2.745215   -2.026995
     38          1           0        2.643863   -2.929546   -0.925881
     39          1           0        2.671952   -0.845079   -2.181449
 ---------------------------------------------------------------------

 SCF Done:  E(UB3LYP) =  -1274.33810539     A.U. after   33 cycles
 SCF Done:  E(UB3LYP) =  -1274.33810539     a.u. after    1 cycles

 The electronic state is 2-A.
 Alpha  occ. eigenvalues --  -88.97168 -19.11207 -19.02863 -19.02808 -14.25951
 Alpha  occ. eigenvalues --  -14.24645 -14.21854 -14.21262 -10.17343 -10.14058
 Alpha  occ. eigenvalues --  -10.12577 -10.12180 -10.12122 -10.10420 -10.09935
 Alpha  occ. eigenvalues --  -10.09850 -10.08420 -10.08202 -10.07757  -8.03384
 Alpha  occ. eigenvalues --   -5.99665  -5.99641  -5.99444  -1.06242  -1.02929
 Alpha  occ. eigenvalues --   -0.92077  -0.84289  -0.83424  -0.83143  -0.77993
 Alpha  occ. eigenvalues --   -0.71376  -0.70453  -0.68448  -0.65451  -0.64232
 Alpha  occ. eigenvalues --   -0.58014  -0.55245  -0.54285  -0.52378  -0.50836
 Alpha  occ. eigenvalues --   -0.48756  -0.47341  -0.43965  -0.42368  -0.42331
 Alpha  occ. eigenvalues --   -0.40895  -0.40635  -0.39822  -0.37746  -0.37171
 Alpha  occ. eigenvalues --   -0.36240  -0.35473  -0.35030  -0.33954  -0.33550
 Alpha  occ. eigenvalues --   -0.33101  -0.32992  -0.32353  -0.31391  -0.31218
 Alpha  occ. eigenvalues --   -0.30362  -0.29757  -0.28307  -0.26645  -0.26018
 Alpha  occ. eigenvalues --   -0.25013  -0.24693  -0.24168  -0.23692  -0.23010
 Alpha  occ. eigenvalues --   -0.22683  -0.21965  -0.21306  -0.20176  -0.19009
 Alpha  occ. eigenvalues --   -0.18413  -0.14724   0.03739
 Alpha virt. eigenvalues --    0.05262   0.06073   0.06392   0.07414   0.07741
 Alpha virt. eigenvalues --    0.08344   0.09242   0.09453   0.09571   0.10085
 Alpha virt. eigenvalues --    0.10240   0.10862   0.11139   0.11559   0.11926

  Beta  occ. eigenvalues --  -88.97167 -19.11075 -19.02859 -19.02805 -14.25785
  Beta  occ. eigenvalues --  -14.24636 -14.21878 -14.21233 -10.17164 -10.14003
  Beta  occ. eigenvalues --  -10.12569 -10.12176 -10.12105 -10.10398 -10.09920
  Beta  occ. eigenvalues --  -10.09838 -10.08417 -10.08197 -10.07755  -8.03382
  Beta  occ. eigenvalues --   -5.99664  -5.99640  -5.99443  -1.06014  -1.02920
  Beta  occ. eigenvalues --   -0.92067  -0.84207  -0.83378  -0.83106  -0.77736
  Beta  occ. eigenvalues --   -0.71348  -0.70432  -0.68396  -0.65313  -0.64199
  Beta  occ. eigenvalues --   -0.57939  -0.55202  -0.54258  -0.52268  -0.50789
  Beta  occ. eigenvalues --   -0.48583  -0.47309  -0.43937  -0.42320  -0.42274
  Beta  occ. eigenvalues --   -0.40783  -0.40458  -0.39445  -0.37711  -0.37150
  Beta  occ. eigenvalues --   -0.36208  -0.35413  -0.34986  -0.33831  -0.33442
  Beta  occ. eigenvalues --   -0.33045  -0.32903  -0.32317  -0.31303  -0.31108
  Beta  occ. eigenvalues --   -0.30288  -0.29729  -0.28243  -0.26626  -0.25994
  Beta  occ. eigenvalues --   -0.25000  -0.24611  -0.24057  -0.23677  -0.22992
  Beta  occ. eigenvalues --   -0.22335  -0.21954  -0.21286  -0.20102  -0.18512
  Beta  occ. eigenvalues --   -0.18059  -0.14685
  Beta virt. eigenvalues --    0.05925   0.06152   0.06960   0.07523   0.07568
  Beta virt. eigenvalues --    0.07895   0.08515   0.09458   0.09739   0.09912
  Beta virt. eigenvalues --    0.10106   0.10528   0.10985   0.11135   0.11576

 Mulliken charges and spin densities:
               1          2
     1  C    1.500333  -2.000539
     2  C   -0.733736   0.975957
     3  N   -0.117616   0.044681
     4  C    0.312599  -0.067746
     5  N   -0.607116   0.098239
     6  O    0.315816   0.024366
     7  C   -0.534495  -0.093356
     8  C   -0.518694   0.004159
     9  N   -0.226711   0.048278
    10  S    0.424759  -0.164934
    11  O   -0.130014   0.008190
    12  O   -0.208023   0.002774
    13  C   -0.412183  -0.331704
    14  C   -0.361341  -0.017277
    15  C   -0.086874  -0.136369
    16  C   -0.089619  -0.152999
    17  C   -0.401494  -0.067607
    18  C    0.448023  -0.618068
    19  N   -0.098683   0.103180
    20  H    0.033961   0.130959
    21  H   -0.379835   0.563270
    22  H   -0.007594   0.176089
    23  H   -0.234583   0.459542
    24  H    0.050628   0.131451
    25  H    0.021842   0.176487
    26  H    0.196505   0.022971
    27  H    0.320103   0.034566
    28  H    0.035137   0.210789
    29  H    0.232787   0.005001
    30  H    0.226614   0.015856
    31  H    0.199847   0.002188
    32  H    0.090474   0.041636
    33  H    0.122131   0.033707
    34  H    0.072501   0.056631
    35  H    0.176714  -0.047721
    36  H   -0.058379   0.215836
    37  H   -0.359164   0.533892
    38  H   -0.015103   0.130844
    39  H   -0.199518   0.446784
 Sum of Mulliken charges =  -1.00000   1.00000

 Dipole moment (field-independent basis, Debye):
    X=              3.5671    Y=              0.9552    Z=              1.7813  Tot=              4.1000
 Quadrupole moment (field-independent basis, Debye-Ang):
   XX=           -212.9822   YY=           -165.3006   ZZ=           -163.9104
   XY=             -3.2319   XZ=             12.6201   YZ=            -11.8585

 Summary of Natural Population Analysis:

                                       Natural Population
                Natural  -----------------------------------------------
    Atom  No    Charge         Core      Valence    Rydberg      Total
 -----------------------------------------------------------------------
      C    1   -0.31530      0.99962     2.31089    0.00479     3.31530
      C    2    0.31183      0.99965     1.67035    0.01817     2.68817
      N    3   -0.27987      0.99967     2.77084    0.00936     3.77987
      C    4    0.18639      0.99965     1.79625    0.01772     2.81361
      N    5   -0.09365      0.99964     2.58240    0.01161     3.59365
      O    6   -0.16219      0.99985     3.15389    0.00845     4.16219
      C    7   -0.21337      0.99957     2.20426    0.00953     3.21337
      C    8   -0.08959      0.99962     2.07728    0.01269     3.08959
      N    9   -0.44778      0.99975     2.93537    0.01267     3.94778
      S   10    1.09671      4.99929     1.80394    0.10005     6.90329
      O   11   -0.46731      0.99991     3.46221    0.00519     4.46731
      O   12   -0.46683      0.99991     3.46181    0.00511     4.46683
      C   13   -0.28440      0.99955     2.27094    0.01392     3.28440
      C   14   -0.02407      0.99957     2.01011    0.01439     3.02407
      C   15   -0.19690      0.99960     2.18966    0.00764     3.19690
      C   16   -0.18916      0.99963     2.18244    0.00709     3.18916
      C   17   -0.19495      0.99963     2.18667    0.00865     3.19495
      C   18   -0.08710      0.99962     2.07485    0.01263     3.08710
      N   19   -0.34296      0.99972     2.83055    0.01269     3.84296
      H   20    0.11089      0.00000     0.38788    0.00123     0.38911
      H   21    0.11632      0.00000     0.38007    0.00360     0.38368
      H   22    0.11366      0.00000     0.38499    0.00135     0.38634
      H   23    0.11800      0.00000     0.37953    0.00247     0.38200
      H   24    0.11201      0.00000     0.38694    0.00104     0.38799
      H   25    0.10394      0.00000     0.39495    0.00110     0.39606
      H   26    0.09569      0.00000     0.40307    0.00124     0.40431
      H   27    0.21232      0.00000     0.28507    0.00261     0.28768
      H   28    0.11873      0.00000     0.37995    0.00131     0.38127
      H   29    0.11622      0.00000     0.38277    0.00101     0.38378
      H   30    0.09203      0.00000     0.40571    0.00227     0.40797
      H   31    0.11491      0.00000     0.38410    0.00099     0.38509
      H   32    0.09337      0.00000     0.40542    0.00121     0.40663
      H   33    0.09685      0.00000     0.40227    0.00089     0.40315
      H   34    0.09530      0.00000     0.40340    0.00130     0.40470
      H   35    0.09526      0.00000     0.40361    0.00113     0.40474
      H   36    0.09804      0.00000     0.40113    0.00083     0.40196
      H   37    0.09732      0.00000     0.40149    0.00119     0.40268
      H   38    0.07978      0.00000     0.41847    0.00175     0.42022
      H   39    0.17986      0.00000     0.31506    0.00508     0.32014
 =======================================================================
   * Total *    0.00000     22.99344    53.68059    0.32597    77.00000

 Normal termination of Gaussian 16 at Mon Dec 14 18:36:03 2020.
