 Gaussian 16, Revision A.03,

 -----------------------------------------------------------
 # opt freq B3LYP/6-31G(d) empiricaldispersion=gd3bj scf=xqc
 -----------------------------------------------------------

 ------------------------------
 CID_66137768_JID_9714_neutraal
 ------------------------------
 Symbolic Z-matrix:
 Charge =  0 Multiplicity = 1

 SCF Done:  E(RB3LYP) =  -1244.68038128     A.U. after   14 cycles
 SCF Done:  E(RB3LYP) =  -1244.66020414     A.U. after   15 cycles
 SCF Done:  E(RB3LYP) =  -1244.68653436     A.U. after   12 cycles
 SCF Done:  E(RB3LYP) =  -1244.68830386     A.U. after   13 cycles
 SCF Done:  E(RB3LYP) =  -1244.68792711     A.U. after   15 cycles
 SCF Done:  E(RB3LYP) =  -1244.68778458     A.U. after   13 cycles
 SCF Done:  E(RB3LYP) =  -1244.67882060     A.U. after   13 cycles
 SCF Done:  E(RB3LYP) =  -1244.68863169     A.U. after   10 cycles
 SCF Done:  E(RB3LYP) =  -1244.69037494     A.U. after   12 cycles
 SCF Done:  E(RB3LYP) =  -1244.69073487     A.U. after   15 cycles
 SCF Done:  E(RB3LYP) =  -1244.70040288     A.U. after    8 cycles
 SCF Done:  E(RB3LYP) =  -1244.70040307     A.U. after    7 cycles
 SCF Done:  E(RB3LYP) =  -1244.70040337     A.U. after    7 cycles
 SCF Done:  E(RB3LYP) =  -1244.70040355     A.U. after    7 cycles
 SCF Done:  E(RB3LYP) =  -1244.70040359     A.U. after    6 cycles
 Optimization completed.
    -- Stationary point found.
 Normal termination of Gaussian 16 at Mon Dec 14 14:01:01 2020.

 --------------------------------------------------------------------
 #N Geom=AllCheck Guess=TCheck SCRF=Check GenChk RB3LYP/6-31G(d) Freq
 --------------------------------------------------------------------

 Structure from the checkpoint file:  "JID_9714.chk"
 ------------------------------
 CID_66137768_JID_9714_neutraal
 ------------------------------
 Charge =  0 Multiplicity = 1

 SCF Done:  E(RB3LYP) =  -1244.70040359     A.U. after    1 cycles

  Exact polarizability: 222.558  30.744 160.300 -13.183  11.577 148.214
 Approx polarizability: 302.795  55.190 249.033 -23.230  36.745 249.494

                      1                      2                      3
                      A                      A                      A
 Frequencies --     15.5594                21.0654                36.2901
 Red. masses --      4.4608                 5.7530                 5.7322
 Frc consts  --      0.0006                 0.0015                 0.0044
 IR Inten    --      0.0565                 0.0242                 1.0760

                      4                      5                      6
                      A                      A                      A
 Frequencies --     61.2521                74.8773                87.2327
 Red. masses --      4.5687                 4.8789                 4.3344
 Frc consts  --      0.0101                 0.0161                 0.0194
 IR Inten    --      0.8076                 1.6749                 0.7965

                      7                      8                      9
                      A                      A                      A
 Frequencies --     92.5096               102.4999               133.1194
 Red. masses --      5.7372                 5.8504                 5.8189
 Frc consts  --      0.0289                 0.0362                 0.0608
 IR Inten    --      1.4688                11.3138                 1.5961

                     10                     11                     12
                      A                      A                      A
 Frequencies --    162.1535               174.2211               222.4763
 Red. masses --      5.2017                 4.8235                 3.8743
 Frc consts  --      0.0806                 0.0863                 0.1130
 IR Inten    --      1.1245                 2.0786                 1.4622

                     13                     14                     15
                      A                      A                      A
 Frequencies --    236.6655               248.0757               259.9660
 Red. masses --      3.7078                 2.1470                 3.1000
 Frc consts  --      0.1224                 0.0778                 0.1234
 IR Inten    --     10.6935                 1.9678                 2.8544

                     16                     17                     18
                      A                      A                      A
 Frequencies --    291.9129               295.9080               300.2467
 Red. masses --      2.9691                 3.6145                 1.3535
 Frc consts  --      0.1491                 0.1865                 0.0719
 IR Inten    --      1.6785                 3.1978                 0.3205

                     19                     20                     21
                      A                      A                      A
 Frequencies --    308.4944               363.4441               384.7045
 Red. masses --      3.6956                 2.5974                 2.8752
 Frc consts  --      0.2072                 0.2021                 0.2507
 IR Inten    --      0.1711                 0.7106                 2.2213

                     22                     23                     24
                      A                      A                      A
 Frequencies --    424.8361               433.3198               446.3122
 Red. masses --      3.1276                 2.1053                 5.1686
 Frc consts  --      0.3326                 0.2329                 0.6066
 IR Inten    --      1.0245                 3.0740                 3.1720

                     25                     26                     27
                      A                      A                      A
 Frequencies --    489.0499               511.8735               523.2307
 Red. masses --      2.8181                 2.6642                 4.7916
 Frc consts  --      0.3971                 0.4113                 0.7729
 IR Inten    --      5.0438                19.4628                11.5671

                     28                     29                     30
                      A                      A                      A
 Frequencies --    544.2784               548.4524               607.2007
 Red. masses --      1.1868                 2.5423                 1.2810
 Frc consts  --      0.2071                 0.4506                 0.2783
 IR Inten    --     92.6687                16.9523                52.2406

                     31                     32                     33
                      A                      A                      A
 Frequencies --    608.1733               625.6493               648.7025
 Red. masses --      2.6124                 4.4179                 6.9417
 Frc consts  --      0.5693                 1.0189                 1.7211
 IR Inten    --      3.8954                66.9331                 4.9277

                     34                     35                     36
                      A                      A                      A
 Frequencies --    669.2491               710.6730               745.7571
 Red. masses --      4.2638                 3.2588                 4.1408
 Frc consts  --      1.1252                 0.9697                 1.3568
 IR Inten    --      2.4605                40.7621                 6.6298

                     37                     38                     39
                      A                      A                      A
 Frequencies --    776.1859               796.7751               809.9497
 Red. masses --      5.0081                 1.6162                 2.7399
 Frc consts  --      1.7777                 0.6045                 1.0590
 IR Inten    --     61.1566                 9.7956                 1.0172

                     40                     41                     42
                      A                      A                      A
 Frequencies --    836.9479               846.9143               862.4683
 Red. masses --      1.2660                 4.1459                 1.8235
 Frc consts  --      0.5225                 1.7521                 0.7992
 IR Inten    --      1.1258                 5.1242                40.3952

                     43                     44                     45
                      A                      A                      A
 Frequencies --    881.4684               895.8921               957.2694
 Red. masses --      2.2057                 2.5601                 2.2411
 Frc consts  --      1.0097                 1.2106                 1.2100
 IR Inten    --      2.3850                 3.8660                37.9093

                     46                     47                     48
                      A                      A                      A
 Frequencies --    973.9060               983.5402               985.8976
 Red. masses --      1.3021                 1.7710                 1.3240
 Frc consts  --      0.7277                 1.0094                 0.7582
 IR Inten    --      0.0471                 3.8855                 0.0392

                     49                     50                     51
                      A                      A                      A
 Frequencies --    999.9458              1015.7576              1032.8041
 Red. masses --      1.7748                 1.3741                 2.8108
 Frc consts  --      1.0456                 0.8353                 1.7665
 IR Inten    --      7.8608                 0.7369                 6.0038

                     52                     53                     54
                      A                      A                      A
 Frequencies --   1059.7027              1070.6049              1092.1450
 Red. masses --      1.9059                 2.1657                 2.4797
 Frc consts  --      1.2610                 1.4625                 1.7427
 IR Inten    --     45.3223                13.6670                54.0420

                     55                     56                     57
                      A                      A                      A
 Frequencies --   1113.8414              1122.8755              1144.5049
 Red. masses --      2.3697                 4.1976                 2.1876
 Frc consts  --      1.7321                 3.1183                 1.6883
 IR Inten    --      3.4550               163.6867                 3.3004

                     58                     59                     60
                      A                      A                      A
 Frequencies --   1150.5819              1151.9424              1196.1411
 Red. masses --      1.3813                 2.1067                 1.3381
 Frc consts  --      1.0774                 1.6471                 1.1280
 IR Inten    --      6.0611                 7.7410               337.6350

                     61                     62                     63
                      A                      A                      A
 Frequencies --   1203.0291              1233.4315              1240.3223
 Red. masses --      1.2447                 1.5082                 1.1114
 Frc consts  --      1.0614                 1.3519                 1.0074
 IR Inten    --     18.3703                85.7643                30.8312

                     64                     65                     66
                      A                      A                      A
 Frequencies --   1254.1531              1264.8956              1302.7132
 Red. masses --      1.2051                 1.1467                 2.3907
 Frc consts  --      1.1168                 1.0810                 2.3904
 IR Inten    --     25.6068                 0.8834               172.6976

                     67                     68                     69
                      A                      A                      A
 Frequencies --   1313.5820              1327.5285              1338.3181
 Red. masses --      1.4869                 1.2240                 1.2403
 Frc consts  --      1.5116                 1.2710                 1.3089
 IR Inten    --    126.6652                13.8949                17.5101

                     70                     71                     72
                      A                      A                      A
 Frequencies --   1348.9437              1367.3659              1370.0755
 Red. masses --      1.3056                 1.4811                 6.4399
 Frc consts  --      1.3997                 1.6315                 7.1223
 IR Inten    --      2.3844                 3.0533                27.1915

                     73                     74                     75
                      A                      A                      A
 Frequencies --   1392.9514              1399.0773              1405.4614
 Red. masses --      1.2483                 2.6934                 1.4891
 Frc consts  --      1.4271                 3.1062                 1.7330
 IR Inten    --      5.1666               204.2777                12.3988

                     76                     77                     78
                      A                      A                      A
 Frequencies --   1410.6208              1443.9990              1462.3063
 Red. masses --      1.2922                 1.2409                 1.3499
 Frc consts  --      1.5150                 1.5245                 1.7007
 IR Inten    --     11.0781                 4.2248                31.9738

                     79                     80                     81
                      A                      A                      A
 Frequencies --   1471.9316              1480.0658              1496.0809
 Red. masses --      3.1365                 1.2611                 1.0814
 Frc consts  --      4.0038                 1.6276                 1.4261
 IR Inten    --      3.0397                44.4995                10.1848

                     82                     83                     84
                      A                      A                      A
 Frequencies --   1501.8880              1502.8116              1525.9677
 Red. masses --      1.0861                 1.0952                 1.0551
 Frc consts  --      1.4434                 1.4573                 1.4475
 IR Inten    --      4.9451                 7.6447                 3.2891

                     85                     86                     87
                      A                      A                      A
 Frequencies --   1536.9751              1546.6232              1559.2866
 Red. masses --      1.0546                 1.2059                 1.0976
 Frc consts  --      1.4678                 1.6996                 1.5723
 IR Inten    --      7.1273                54.2457                 3.4269

                     88                     89                     90
                      A                      A                      A
 Frequencies --   1568.9404              1629.4359              1670.0183
 Red. masses --      2.0511                 6.8287                 5.6523
 Frc consts  --      2.9748                10.6822                 9.2880
 IR Inten    --     20.2510                 4.4229               223.1078

                     91                     92                     93
                      A                      A                      A
 Frequencies --   1817.5796              3028.8320              3032.7555
 Red. masses --      9.5832                 1.0672                 1.0641
 Frc consts  --     18.6530                 5.7685                 5.7665
 IR Inten    --    327.7690                31.2352                16.6947

                     94                     95                     96
                      A                      A                      A
 Frequencies --   3045.3389              3054.7694              3060.6140
 Red. masses --      1.0656                 1.0643                 1.0440
 Frc consts  --      5.8226                 5.8517                 5.7618
 IR Inten    --     11.2002                56.7947                 9.0636

                     97                     98                     99
                      A                      A                      A
 Frequencies --   3076.7865              3078.7146              3084.6135
 Red. masses --      1.0857                 1.0963                 1.0978
 Frc consts  --      6.0558                 6.1222                 6.1541
 IR Inten    --     32.2146                28.2954                57.4699

                    100                    101                    102
                      A                      A                      A
 Frequencies --   3093.0073              3100.2008              3120.5087
 Red. masses --      1.0967                 1.0724                 1.0986
 Frc consts  --      6.1817                 6.0729                 6.3031
 IR Inten    --     12.8423                26.5027                19.7506

                    103                    104                    105
                      A                      A                      A
 Frequencies --   3138.2475              3169.0149              3178.3732
 Red. masses --      1.0960                 1.0984                 1.0966
 Frc consts  --      6.3598                 6.4991                 6.5270
 IR Inten    --      3.1122                 7.0301                 3.2894

                    106                    107                    108
                      A                      A                      A
 Frequencies --   3212.8687              3224.1726              3235.1223
 Red. masses --      1.0891                 1.0893                 1.0936
 Frc consts  --      6.6235                 6.6717                 6.7433
 IR Inten    --      5.0527                 0.4438                 3.1643

                    109                    110                    111
                      A                      A                      A
 Frequencies --   3244.0161              3614.5284              3703.0254
 Red. masses --      1.0929                 1.0669                 1.0642
 Frc consts  --      6.7764                 8.2122                 8.5974
 IR Inten    --      1.8750               182.3586                78.2954

 - Thermochemistry -
 -------------------
 Temperature   298.150 Kelvin.  Pressure   1.00000 Atm.
 Atom     1 has atomic number  6 and mass  12.00000

 Molecular mass:   284.10823 amu.
 Principal axes and moments of inertia in atomic units:
                           1         2         3
     Eigenvalues --  3043.64559********************
           X            1.00000   0.00071   0.00075
           Y           -0.00070   0.99977  -0.02148
           Z           -0.00077   0.02148   0.99977
 This molecule is an asymmetric top.
 Rotational symmetry number  1.
 Warning -- assumption of classical behavior for rotation
           may cause significant error
 Rotational temperatures (Kelvin)      0.02846     0.00845     0.00770
 Rotational constants (GHZ):           0.59295     0.17600     0.16036
 Zero-point vibrational energy     861606.7 (Joules/Mol)
                                  205.92893 (Kcal/Mol)
 Warning -- explicit consideration of  31 degrees of freedom as
           vibrations may cause significant error
 Vibrational temperatures:     22.39    30.31    52.21    88.13   107.73
          (Kelvin)            125.51   133.10   147.47   191.53   233.30
                              250.67   320.09   340.51   356.93   374.03
                              420.00   425.75   431.99   443.85   522.92
                              553.50   611.24   623.45   642.14   703.63
                              736.47   752.81   783.10   789.10   873.63
                              875.03   900.17   933.34   962.90  1022.50
                             1072.98  1116.76  1146.38  1165.34  1204.18
                             1218.52  1240.90  1268.24  1288.99  1377.30
                             1401.23  1415.09  1418.49  1438.70  1461.45
                             1485.97  1524.68  1540.36  1571.35  1602.57
                             1615.57  1646.69  1655.43  1657.39  1720.98
                             1730.89  1774.63  1784.55  1804.45  1819.90
                             1874.31  1889.95  1910.02  1925.54  1940.83
                             1967.33  1971.23  2004.15  2012.96  2022.15
                             2029.57  2077.59  2103.93  2117.78  2129.48
                             2152.53  2160.88  2162.21  2195.53  2211.36
                             2225.25  2243.47  2257.36  2344.39  2402.78
                             2615.09  4357.81  4363.46  4381.56  4395.13
                             4403.54  4426.81  4429.58  4438.07  4450.15
                             4460.50  4489.72  4515.24  4559.51  4572.97
                             4622.60  4638.87  4654.62  4667.42  5200.50
                             5327.83

 Zero-point correction=                           0.328169 (Hartree/Particle)
 Thermal correction to Energy=                    0.347803
 Thermal correction to Enthalpy=                  0.348747
 Thermal correction to Gibbs Free Energy=         0.277742
 Sum of electronic and zero-point Energies=          -1244.372235
 Sum of electronic and thermal Energies=             -1244.352601
 Sum of electronic and thermal Enthalpies=           -1244.351656
 Sum of electronic and thermal Free Energies=        -1244.422662

                     E (Thermal)             CV                S
                      KCal/Mol        Cal/Mol-Kelvin    Cal/Mol-Kelvin
 Total                  218.250             73.848            149.443
 Electronic               0.000              0.000              0.000
 Translational            0.889              2.981             42.831
 Rotational               0.889              2.981             34.218
 Vibrational            216.472             67.886             72.395
 Vibration     1          0.593              1.986              7.133
 Vibration     2          0.593              1.985              6.531
 Vibration     3          0.594              1.982              5.452
 Vibration     4          0.597              1.973              4.416
 Vibration     5          0.599              1.966              4.021
 Vibration     6          0.601              1.958              3.721
 Vibration     7          0.602              1.955              3.606
 Vibration     8          0.605              1.947              3.406
 Vibration     9          0.613              1.920              2.900
 Vibration    10          0.622              1.889              2.525
 Vibration    11          0.627              1.874              2.389
 Vibration    12          0.648              1.807              1.939
 Vibration    13          0.656              1.785              1.828
 Vibration    14          0.662              1.766              1.744
 Vibration    15          0.668              1.746              1.662
 Vibration    16          0.687              1.689              1.463
 Vibration    17          0.690              1.681              1.440
 Vibration    18          0.693              1.673              1.416
 Vibration    19          0.698              1.658              1.370
 Vibration    20          0.737              1.548              1.107
 Vibration    21          0.754              1.503              1.021
 Vibration    22          0.787              1.416              0.876
 Vibration    23          0.794              1.398              0.848
 Vibration    24          0.806              1.369              0.807
 Vibration    25          0.845              1.274              0.686
 Vibration    26          0.867              1.224              0.629
 Vibration    27          0.878              1.199              0.603
 Vibration    28          0.899              1.152              0.556
 Vibration    29          0.904              1.143              0.547
 Vibration    30          0.966              1.017              0.437
 Vibration    31          0.967              1.015              0.436

 Optimization completed.
    -- Stationary point found.
 Normal termination of Gaussian 16 at Mon Dec 14 14:23:04 2020.

 ----------------------------------------------------------------------
 # B3LYP/6-311++G(d,p) empiricaldispersion=gd3bj scf=xqc pop=npa geom=c
 heck
 ----------------------------------------------------------------------

 --------------------------------------
 CID_66137768_JID_9714_Energie_neutraal
 --------------------------------------
 Structure from the checkpoint file:  "JID_9714.chk"
 Charge =  0 Multiplicity = 1

 SCF Done:  E(RB3LYP) =  -1244.98192039     A.U. after   15 cycles
 Normal termination of Gaussian 16 at Mon Dec 14 14:33:42 2020.

 ----------------------------------------------------------------------
 # B3LYP/6-311++G(d,p) empiricaldispersion=gd3bj scf=xqc pop=npa geom=c
 heck
 ----------------------------------------------------------------------

 ------------------------------------
 CID_66137768_JID_9714_Energie_kation
 ------------------------------------
 Structure from the checkpoint file:  "JID_9714.chk"
 Charge =  1 Multiplicity = 2

 SCF Done:  E(UB3LYP) =  -1244.68633561     A.U. after   26 cycles
 Normal termination of Gaussian 16 at Mon Dec 14 15:00:01 2020.
 Gaussian 16:  ES64L-G16RevA.03 25-Dec-2016

 ----------------------------------------------------------------------
 # B3LYP/6-311++G(d,p) empiricaldispersion=gd3bj scf=xqc pop=npa geom=c
 heck
 ----------------------------------------------------------------------

 -----------------------------------
 CID_66137768_JID_9714_Energie_anion
 -----------------------------------
 Structure from the checkpoint file:  "JID_9714.chk"
 Charge = -1 Multiplicity = 2

                         Standard orientation:
 ---------------------------------------------------------------------
 Center     Atomic      Atomic             Coordinates (Angstroms)
 Number     Number       Type             X           Y           Z
 ---------------------------------------------------------------------
      1          6           0        1.660195   -0.637456    2.033369
      2          6           0        2.762437   -1.352143    1.257612
      3          6           0        2.242451   -2.557560    0.449245
      4          6           0        1.156695   -2.274144   -0.593787
      5          8           0        1.647036   -1.682806   -1.795626
      6         16           0        3.776118   -0.243726    0.124068
      7          6           0        3.295133    1.506147    0.465147
      8          6           0        2.715039    2.219904   -0.761484
      9          6           0        1.361711    1.687540   -1.199280
     10          8           0        0.443970    1.908254   -0.120439
     11          6           0       -0.775017    1.308037   -0.160345
     12          6           0       -1.188722    0.412742   -1.158199
     13          6           0       -2.453952   -0.159560   -1.072613
     14          6           0       -3.317485    0.146367   -0.015418
     15          6           0       -2.893149    1.045877    0.976504
     16          6           0       -1.634934    1.620639    0.905277
     17          6           0       -4.645831   -0.498953    0.012864
     18          8           0       -5.063149   -1.286107   -0.815236
     19          8           0       -5.396473   -0.127238    1.086280
     20          1           0        0.960743   -0.107155    1.384655
     21          1           0        2.072037    0.077914    2.751210
     22          1           0        1.091702   -1.381925    2.603383
     23          1           0        3.491607   -1.734525    1.978523
     24          1           0        3.081311   -3.062627   -0.046590
     25          1           0        1.837838   -3.271775    1.180338
     26          1           0        0.690262   -3.221264   -0.886493
     27          1           0        0.362537   -1.651601   -0.157051
     28          1           0        2.411461   -1.131149   -1.545052
     29          1           0        2.574705    1.530124    1.281808
     30          1           0        4.199300    2.019563    0.802467
     31          1           0        2.621506    3.287323   -0.523000
     32          1           0        3.406166    2.139606   -1.609035
     33          1           0        1.001866    2.212137   -2.094007
     34          1           0        1.423058    0.621347   -1.427249
     35          1           0       -0.532528    0.138131   -1.974467
     36          1           0       -2.789702   -0.859432   -1.830284
     37          1           0       -3.555702    1.288057    1.799471
     38          1           0       -1.287876    2.317366    1.661180
     39          1           0       -6.236677   -0.611936    0.991907
 ---------------------------------------------------------------------

 SCF Done:  E(UB3LYP) =  -1244.98176183     A.U. after   33 cycles
 SCF Done:  E(UB3LYP) =  -1244.98176183     a.u. after    1 cycles

 The electronic state is 2-A.
 Alpha  occ. eigenvalues --  -88.75169 -19.04632 -19.04461 -19.02015 -18.97213
 Alpha  occ. eigenvalues --  -10.15776 -10.12727 -10.12414 -10.12031 -10.11207
 Alpha  occ. eigenvalues --  -10.11026 -10.09046 -10.09040 -10.07669 -10.05961
 Alpha  occ. eigenvalues --  -10.05622 -10.05591 -10.05223 -10.04921  -7.83803
 Alpha  occ. eigenvalues --   -5.80184  -5.79804  -5.79212  -0.97993  -0.96392
 Alpha  occ. eigenvalues --   -0.92284  -0.88520  -0.74444  -0.73766  -0.71096
 Alpha  occ. eigenvalues --   -0.65824  -0.63667  -0.63574  -0.62022  -0.58483
 Alpha  occ. eigenvalues --   -0.55098  -0.53076  -0.51222  -0.48689  -0.47164
 Alpha  occ. eigenvalues --   -0.46150  -0.43364  -0.41234  -0.39668  -0.39352
 Alpha  occ. eigenvalues --   -0.38707  -0.37325  -0.36695  -0.35771  -0.34608
 Alpha  occ. eigenvalues --   -0.34094  -0.33249  -0.32700  -0.32246  -0.32056
 Alpha  occ. eigenvalues --   -0.31076  -0.30847  -0.30066  -0.29348  -0.27623
 Alpha  occ. eigenvalues --   -0.27427  -0.26767  -0.26482  -0.26033  -0.25299
 Alpha  occ. eigenvalues --   -0.24514  -0.24026  -0.21989  -0.21528  -0.21140
 Alpha  occ. eigenvalues --   -0.20062  -0.17844  -0.15409  -0.14559  -0.14197
 Alpha  occ. eigenvalues --   -0.11810   0.03999
 Alpha virt. eigenvalues --    0.05516   0.06235   0.07586   0.07886   0.08539
 Alpha virt. eigenvalues --    0.08766   0.09245   0.09578   0.09886   0.10114
 Alpha virt. eigenvalues --    0.10912   0.11607   0.11829   0.11974   0.12536

  Beta  occ. eigenvalues --  -88.75166 -19.04573 -19.04410 -19.02015 -18.97011
  Beta  occ. eigenvalues --  -10.15542 -10.12728 -10.12406 -10.12028 -10.11001
  Beta  occ. eigenvalues --  -10.10931 -10.09040 -10.09030 -10.07653 -10.05874
  Beta  occ. eigenvalues --  -10.05700 -10.05646 -10.05050 -10.04834  -7.83800
  Beta  occ. eigenvalues --   -5.80179  -5.79802  -5.79210  -0.97760  -0.96229
  Beta  occ. eigenvalues --   -0.92283  -0.88213  -0.74317  -0.73647  -0.71041
  Beta  occ. eigenvalues --   -0.65681  -0.63503  -0.63435  -0.61896  -0.58418
  Beta  occ. eigenvalues --   -0.55019  -0.52712  -0.51146  -0.48626  -0.47065
  Beta  occ. eigenvalues --   -0.46023  -0.43261  -0.41197  -0.39508  -0.39245
  Beta  occ. eigenvalues --   -0.38649  -0.37287  -0.36603  -0.35621  -0.34523
  Beta  occ. eigenvalues --   -0.34022  -0.33169  -0.32167  -0.32032  -0.31651
  Beta  occ. eigenvalues --   -0.31023  -0.30700  -0.29978  -0.29239  -0.27573
  Beta  occ. eigenvalues --   -0.27366  -0.26729  -0.26162  -0.25863  -0.25191
  Beta  occ. eigenvalues --   -0.24478  -0.23974  -0.21845  -0.21230  -0.20961
  Beta  occ. eigenvalues --   -0.19228  -0.17832  -0.15210  -0.14207  -0.14046
  Beta  occ. eigenvalues --   -0.10920
  Beta virt. eigenvalues --    0.06081   0.06693   0.07762   0.07907   0.08484
  Beta virt. eigenvalues --    0.08732   0.09004   0.09293   0.09665   0.09904
  Beta virt. eigenvalues --    0.10249   0.11038   0.11648   0.11831   0.12133

 Mulliken charges and spin densities:
               1          2
     1  C   -0.102747  -0.616824
     2  C   -0.092161   0.326431
     3  C   -0.239120  -0.285471
     4  C   -0.462829   0.040302
     5  O   -0.155738  -0.000188
     6  S    0.330503  -0.441364
     7  C   -0.239708  -0.098936
     8  C   -0.146714  -0.344089
     9  C   -0.019644  -0.039311
    10  O   -0.038908   0.018333
    11  C   -0.361503   0.051469
    12  C    0.034174   0.038800
    13  C   -0.267430   0.241137
    14  C    0.286316  -0.042528
    15  C   -0.261988   0.093367
    16  C   -0.286786  -0.008283
    17  C    0.041627   0.074100
    18  O   -0.403605   0.073392
    19  O   -0.225202   0.011814
    20  H    0.333295  -0.276539
    21  H   -0.207571   0.376193
    22  H    0.013509   0.134175
    23  H   -0.084351   0.380467
    24  H    0.191321  -0.008777
    25  H   -0.025290   0.164013
    26  H    0.114833   0.043465
    27  H    0.198703   0.012070
    28  H    0.211897   0.031001
    29  H    0.332383  -0.171016
    30  H   -0.576898   0.857967
    31  H   -0.034889   0.202062
    32  H    0.068814   0.079822
    33  H    0.156513   0.025290
    34  H   -0.015989  -0.015868
    35  H    0.191007   0.020825
    36  H    0.202258  -0.006292
    37  H    0.179629   0.007843
    38  H    0.094425   0.051627
    39  H    0.267864  -0.000478
 Sum of Mulliken charges =  -1.00000   1.00000

 Dipole moment (field-independent basis, Debye):
    X=              1.9042    Y=              0.1317    Z=              0.0881  Tot=              1.9108
 Quadrupole moment (field-independent basis, Debye-Ang):
   XX=           -209.7281   YY=           -151.1288   ZZ=           -150.5110
   XY=            -10.7676   XZ=            -15.0590   YZ=             -5.9094

 Summary of Natural Population Analysis:

                                       Natural Population
                Natural  -----------------------------------------------
    Atom  No    Charge         Core      Valence    Rydberg      Total
 -----------------------------------------------------------------------
      C    1   -0.30028      0.99962     2.29269    0.00797     3.30028
      C    2   -0.15240      0.99956     2.13996    0.01289     3.15240
      C    3   -0.21024      0.99959     2.20072    0.00993     3.21024
      C    4   -0.01796      0.99958     2.00637    0.01200     3.01796
      O    5   -0.38515      0.99990     3.37827    0.00698     4.38515
      S    6    0.06567      4.99960     2.91776    0.01696     7.93433
      C    7   -0.24902      0.99957     2.23906    0.01040     3.24902
      C    8   -0.20241      0.99961     2.19227    0.01053     3.20241
      C    9   -0.01945      0.99955     2.00814    0.01177     3.01945
      O   10   -0.27866      0.99985     3.26958    0.00922     4.27866
      C   11    0.20591      0.99940     1.78162    0.01307     2.79409
      C   12   -0.17226      0.99952     2.16501    0.00772     3.17226
      C   13   -0.03129      0.99955     2.02384    0.00790     3.03129
      C   14   -0.09254      0.99945     2.07964    0.01345     3.09254
      C   15   -0.05855      0.99955     2.05107    0.00793     3.05855
      C   16   -0.14712      0.99953     2.13716    0.01043     3.14712
      C   17    0.42398      0.99965     1.55294    0.02343     2.57602
      O   18   -0.31090      0.99987     3.30446    0.00657     4.31090
      O   19   -0.35354      0.99988     3.34818    0.00548     4.35354
      H   20    0.11161      0.00000     0.38677    0.00162     0.38839
      H   21    0.10304      0.00000     0.39597    0.00099     0.39696
      H   22    0.10567      0.00000     0.39327    0.00106     0.39433
      H   23    0.09954      0.00000     0.39898    0.00148     0.40046
      H   24    0.10059      0.00000     0.39833    0.00108     0.39941
      H   25    0.10443      0.00000     0.39456    0.00101     0.39557
      H   26    0.08483      0.00000     0.41401    0.00117     0.41517
      H   27    0.08750      0.00000     0.41090    0.00160     0.41250
      H   28    0.23274      0.00000     0.26332    0.00394     0.26726
      H   29    0.11429      0.00000     0.38375    0.00196     0.38571
      H   30    0.10535      0.00000     0.39278    0.00187     0.39465
      H   31    0.10346      0.00000     0.39522    0.00132     0.39654
      H   32    0.10047      0.00000     0.39850    0.00102     0.39953
      H   33    0.08611      0.00000     0.41291    0.00098     0.41389
      H   34    0.09389      0.00000     0.40302    0.00309     0.40611
      H   35    0.10782      0.00000     0.39061    0.00157     0.39218
      H   36    0.10632      0.00000     0.39274    0.00094     0.39368
      H   37    0.10365      0.00000     0.39519    0.00115     0.39635
      H   38    0.10169      0.00000     0.39731    0.00100     0.39831
      H   39    0.23322      0.00000     0.26402    0.00276     0.26678
 =======================================================================
   * Total *    0.00000     22.99285    52.77089    0.23626    76.00000

 Normal termination of Gaussian 16 at Mon Dec 14 15:33:02 2020.
