 Gaussian 16, Revision A.03,

 -----------------------------------------------------------
 # opt freq B3LYP/6-31G(d) empiricaldispersion=gd3bj scf=xqc
 -----------------------------------------------------------

 -------------------------------
 CID_148229157_JID_2818_neutraal
 -------------------------------
 Symbolic Z-matrix:
 Charge =  0 Multiplicity = 1

 SCF Done:  E(RB3LYP) =  -518.891784412     A.U. after   15 cycles
 SCF Done:  E(RB3LYP) =  -518.894219124     A.U. after   13 cycles
 SCF Done:  E(RB3LYP) =  -518.894589096     A.U. after   13 cycles
 SCF Done:  E(RB3LYP) =  -518.894848651     A.U. after   12 cycles
 SCF Done:  E(RB3LYP) =  -518.894999113     A.U. after   12 cycles
 SCF Done:  E(RB3LYP) =  -518.895049363     A.U. after   11 cycles
 SCF Done:  E(RB3LYP) =  -518.895059547     A.U. after   10 cycles
 SCF Done:  E(RB3LYP) =  -518.895061837     A.U. after    9 cycles
 SCF Done:  E(RB3LYP) =  -518.895061971     A.U. after    7 cycles
 Optimization completed.
    -- Stationary point found.
 Normal termination of Gaussian 16 at Wed Dec  9 18:20:31 2020.

 --------------------------------------------------------------------
 #N Geom=AllCheck Guess=TCheck SCRF=Check GenChk RB3LYP/6-31G(d) Freq
 --------------------------------------------------------------------

 Structure from the checkpoint file:  "JID_2818.chk"
 -------------------------------
 CID_148229157_JID_2818_neutraal
 -------------------------------
 Charge =  0 Multiplicity = 1

 SCF Done:  E(RB3LYP) =  -518.895061971     A.U. after    1 cycles

  Exact polarizability: 124.665  -6.848 128.112  -1.051  -3.069  73.044
 Approx polarizability: 168.202 -27.376 213.758  -4.472  -8.806 117.427

                      1                      2                      3
                      A                      A                      A
 Frequencies --     48.7758               100.9841               116.8809
 Red. masses --      5.4165                 2.8919                 2.7744
 Frc consts  --      0.0076                 0.0174                 0.0223
 IR Inten    --      1.4988                 1.6673                 0.5384

                      4                      5                      6
                      A                      A                      A
 Frequencies --    156.9915               253.5018               287.3440
 Red. masses --      2.2590                 3.0034                 3.6154
 Frc consts  --      0.0328                 0.1137                 0.1759
 IR Inten    --      0.5556                 0.6591                 1.8341

                      7                      8                      9
                      A                      A                      A
 Frequencies --    305.9198               358.6899               372.6160
 Red. masses --      1.8486                 3.1692                 5.7364
 Frc consts  --      0.1019                 0.2402                 0.4693
 IR Inten    --      0.2759                 1.1740                 0.1632

                     10                     11                     12
                      A                      A                      A
 Frequencies --    406.9353               441.1502               485.8055
 Red. masses --      3.2612                 4.9331                 3.5866
 Frc consts  --      0.3182                 0.5656                 0.4987
 IR Inten    --      0.6536                 0.3584                 2.4550

                     13                     14                     15
                      A                      A                      A
 Frequencies --    488.6548               552.1515               571.6965
 Red. masses --      2.7058                 2.8948                 2.4799
 Frc consts  --      0.3807                 0.5200                 0.4776
 IR Inten    --      2.7835                 8.9239                 1.5699

                     16                     17                     18
                      A                      A                      A
 Frequencies --    652.4220               688.6306               753.6579
 Red. masses --      4.1412                 2.7263                 3.6030
 Frc consts  --      1.0386                 0.7617                 1.2058
 IR Inten    --      1.8841                 6.6863                 1.5044

                     19                     20                     21
                      A                      A                      A
 Frequencies --    820.2629               839.4815               853.5852
 Red. masses --      2.4754                 1.4721                 2.0214
 Frc consts  --      0.9813                 0.6113                 0.8677
 IR Inten    --      2.6294                 2.7566                 4.5546

                     22                     23                     24
                      A                      A                      A
 Frequencies --    888.6635               901.0529               928.6338
 Red. masses --      2.4337                 1.5626                 2.1452
 Frc consts  --      1.1324                 0.7475                 1.0899
 IR Inten    --      3.5117                26.4767                11.4950

                     25                     26                     27
                      A                      A                      A
 Frequencies --    946.4740               988.2825              1013.7446
 Red. masses --      1.5003                 2.2692                 2.1828
 Frc consts  --      0.7918                 1.3058                 1.3217
 IR Inten    --     24.2803                 1.0830                 2.1670

                     28                     29                     30
                      A                      A                      A
 Frequencies --   1042.5376              1079.5106              1111.4456
 Red. masses --      1.9390                 2.1310                 1.7948
 Frc consts  --      1.2417                 1.4632                 1.3063
 IR Inten    --      5.0246                 6.7897                 2.4420

                     31                     32                     33
                      A                      A                      A
 Frequencies --   1119.4449              1138.8416              1156.8964
 Red. masses --      2.6359                 2.2251                 1.4007
 Frc consts  --      1.9462                 1.7003                 1.1045
 IR Inten    --      7.3959                 1.8929                 2.6471

                     34                     35                     36
                      A                      A                      A
 Frequencies --   1180.9500              1210.1761              1217.1401
 Red. masses --      1.7034                 1.6598                 1.4052
 Frc consts  --      1.3997                 1.4322                 1.2265
 IR Inten    --      8.6420                 2.8048                 1.1349

                     37                     38                     39
                      A                      A                      A
 Frequencies --   1229.4845              1272.7812              1290.7116
 Red. masses --      1.9122                 1.3222                 1.2896
 Frc consts  --      1.7031                 1.2620                 1.2658
 IR Inten    --     29.6921                16.5508                 7.5266

                     40                     41                     42
                      A                      A                      A
 Frequencies --   1316.3168              1342.8471              1369.4540
 Red. masses --      1.1786                 1.4564                 1.7208
 Frc consts  --      1.2032                 1.5474                 1.9015
 IR Inten    --      1.6540                 4.5036                99.3544

                     43                     44                     45
                      A                      A                      A
 Frequencies --   1390.8968              1393.4308              1396.4877
 Red. masses --      1.4452                 1.4591                 1.5472
 Frc consts  --      1.6473                 1.6692                 1.7778
 IR Inten    --      3.8561                 7.3681                 5.6787

                     46                     47                     48
                      A                      A                      A
 Frequencies --   1412.1493              1433.1908              1494.7559
 Red. masses --      1.5630                 2.5022                 1.0911
 Frc consts  --      1.8364                 3.0282                 1.4363
 IR Inten    --      3.6266                56.1572                 6.5438

                     49                     50                     51
                      A                      A                      A
 Frequencies --   1497.2100              1511.2652              1516.8989
 Red. masses --      1.0893                 1.0962                 1.0874
 Frc consts  --      1.4386                 1.4751                 1.4742
 IR Inten    --      2.0545                 1.9951                 3.0457

                     52                     53                     54
                      A                      A                      A
 Frequencies --   1521.2573              1532.2318              1675.1526
 Red. masses --      1.0872                 1.1040                 9.8761
 Frc consts  --      1.4825                 1.5271                16.3285
 IR Inten    --      4.7362                 0.9810                47.1782

                     55                     56                     57
                      A                      A                      A
 Frequencies --   1699.1437              1829.5997              3003.1329
 Red. masses --      7.3950                11.9259                 1.0693
 Frc consts  --     12.5791                23.5208                 5.6822
 IR Inten    --     45.1577               138.4733                17.2509

                     58                     59                     60
                      A                      A                      A
 Frequencies --   3013.8431              3019.3114              3035.6723
 Red. masses --      1.0663                 1.0698                 1.0704
 Frc consts  --      5.7065                 5.7460                 5.8119
 IR Inten    --     19.6603                25.0898                20.6405

                     61                     62                     63
                      A                      A                      A
 Frequencies --   3036.9374              3040.7447              3053.7125
 Red. masses --      1.0671                 1.0698                 1.0858
 Frc consts  --      5.7989                 5.8277                 5.9657
 IR Inten    --      9.4998                14.2171                19.9543

                     64                     65                     66
                      A                      A                      A
 Frequencies --   3057.5225              3071.3083              3090.0937
 Red. masses --      1.0878                 1.0929                 1.0962
 Frc consts  --      5.9914                 6.0742                 6.1671
 IR Inten    --     48.3335                42.2712                55.0743

                     67                     68                     69
                      A                      A                      A
 Frequencies --   3093.1110              3129.0309              3424.9516
 Red. masses --      1.1048                 1.0959                 1.0732
 Frc consts  --      6.2276                 6.3220                 7.4173
 IR Inten    --     44.5921                18.7244                 4.9483

 - Thermochemistry -
 -------------------
 Temperature   298.150 Kelvin.  Pressure   1.00000 Atm.
 Atom     1 has atomic number  6 and mass  12.00000

 Molecular mass:   163.09971 amu.
 Principal axes and moments of inertia in atomic units:
                           1         2         3
     Eigenvalues --  1047.351552470.402223359.03805
           X            0.99971   0.02356   0.00551
           Y           -0.02357   0.99972   0.00167
           Z           -0.00547  -0.00180   0.99998
 This molecule is an asymmetric top.
 Rotational symmetry number  1.
 Warning -- assumption of classical behavior for rotation
           may cause significant error
 Rotational temperatures (Kelvin)      0.08270     0.03506     0.02579
 Rotational constants (GHZ):           1.72315     0.73055     0.53728
 Zero-point vibrational energy     566279.7 (Joules/Mol)
                                  135.34409 (Kcal/Mol)
 Warning -- explicit consideration of  15 degrees of freedom as
           vibrations may cause significant error
 Vibrational temperatures:     70.18   145.29   168.17   225.88   364.73
          (Kelvin)            413.42   440.15   516.07   536.11   585.49
                              634.72   698.97   703.07   794.42   822.54
                              938.69   990.79  1084.35  1180.18  1207.83
                             1228.12  1278.59  1296.41  1336.10  1361.77
                             1421.92  1458.55  1499.98  1553.18  1599.12
                             1610.63  1638.54  1664.52  1699.12  1741.17
                             1751.19  1768.95  1831.25  1857.05  1893.89
                             1932.06  1970.34  2001.19  2004.84  2009.23
                             2031.77  2062.04  2150.62  2154.15  2174.37
                             2182.48  2188.75  2204.54  2410.17  2444.69
                             2632.39  4320.84  4336.25  4344.12  4367.66
                             4369.48  4374.95  4393.61  4399.09  4418.93
                             4445.96  4450.30  4501.98  4927.74

 Zero-point correction=                           0.215685 (Hartree/Particle)
 Thermal correction to Energy=                    0.226006
 Thermal correction to Enthalpy=                  0.226950
 Thermal correction to Gibbs Free Energy=         0.179568
 Sum of electronic and zero-point Energies=           -518.679377
 Sum of electronic and thermal Energies=              -518.669056
 Sum of electronic and thermal Enthalpies=            -518.668112
 Sum of electronic and thermal Free Energies=         -518.715494

                     E (Thermal)             CV                S
                      KCal/Mol        Cal/Mol-Kelvin    Cal/Mol-Kelvin
 Total                  141.821             40.683             99.724
 Electronic               0.000              0.000              0.000
 Translational            0.889              2.981             41.176
 Rotational               0.889              2.981             30.542
 Vibrational            140.044             34.722             28.006
 Vibration     1          0.595              1.978              4.866
 Vibration     2          0.604              1.948              3.435
 Vibration     3          0.608              1.935              3.151
 Vibration     4          0.621              1.895              2.586
 Vibration     5          0.665              1.757              1.706
 Vibration     6          0.685              1.697              1.490
 Vibration     7          0.696              1.662              1.384
 Vibration     8          0.734              1.557              1.128
 Vibration     9          0.744              1.528              1.069
 Vibration    10          0.772              1.455              0.938
 Vibration    11          0.801              1.380              0.823
 Vibration    12          0.842              1.282              0.695
 Vibration    13          0.845              1.275              0.687
 Vibration    14          0.907              1.135              0.540
 Vibration    15          0.928              1.092              0.501

 Optimization completed.
    -- Stationary point found.
 Normal termination of Gaussian 16 at Wed Dec  9 18:27:37 2020.

 ----------------------------------------------------------------------
 # B3LYP/6-311++G(d,p) empiricaldispersion=gd3bj scf=xqc pop=npa geom=c
 heck
 ----------------------------------------------------------------------

 ---------------------------------------
 CID_148229157_JID_2818_Energie_neutraal
 ---------------------------------------
 Structure from the checkpoint file:  "JID_2818.chk"
 Charge =  0 Multiplicity = 1

 SCF Done:  E(RB3LYP) =  -519.038097884     A.U. after   14 cycles
 Normal termination of Gaussian 16 at Wed Dec  9 18:30:13 2020.

 ----------------------------------------------------------------------
 # B3LYP/6-311++G(d,p) empiricaldispersion=gd3bj scf=xqc pop=npa geom=c
 heck
 ----------------------------------------------------------------------

 -------------------------------------
 CID_148229157_JID_2818_Energie_kation
 -------------------------------------
 Structure from the checkpoint file:  "JID_2818.chk"
 Charge =  1 Multiplicity = 2

 SCF Done:  E(UB3LYP) =  -518.719804160     A.U. after   24 cycles
 Normal termination of Gaussian 16 at Wed Dec  9 18:36:53 2020.
 Gaussian 16:  ES64L-G16RevA.03 25-Dec-2016

 ----------------------------------------------------------------------
 # B3LYP/6-311++G(d,p) empiricaldispersion=gd3bj scf=xqc pop=npa geom=c
 heck
 ----------------------------------------------------------------------

 ------------------------------------
 CID_148229157_JID_2818_Energie_anion
 ------------------------------------
 Structure from the checkpoint file:  "JID_2818.chk"
 Charge = -1 Multiplicity = 2

                         Standard orientation:
 ---------------------------------------------------------------------
 Center     Atomic      Atomic             Coordinates (Angstroms)
 Number     Number       Type             X           Y           Z
 ---------------------------------------------------------------------
      1          6           0        3.001915   -0.394175   -0.283113
      2          6           0        2.719964    0.948594    0.388692
      3          6           0        1.364957    1.498251   -0.066679
      4          6           0        0.259696    0.460684   -0.039809
      5          6           0        0.519571   -0.865172    0.052059
      6          6           0        1.927429   -1.411557    0.108429
      7          6           0       -0.574402   -1.902355    0.148596
      8          6           0       -1.904987   -1.437478   -0.458138
      9          6           0       -2.257178   -0.052363    0.036616
     10          8           0       -3.340359    0.236430    0.498173
     11          6           0       -1.133159    0.967629   -0.097591
     12          7           0       -1.499350    2.186118   -0.257903
     13          1           0        2.998860   -0.261748   -1.373459
     14          1           0        3.993724   -0.771847   -0.010406
     15          1           0        2.709160    0.812941    1.478623
     16          1           0        3.509939    1.674322    0.165576
     17          1           0        1.082280    2.342161    0.576373
     18          1           0        1.453001    1.911496   -1.083084
     19          1           0        1.988961   -2.299830   -0.534797
     20          1           0        2.113361   -1.781172    1.129974
     21          1           0       -0.246928   -2.828643   -0.338689
     22          1           0       -0.723883   -2.161370    1.207933
     23          1           0       -1.793400   -1.381696   -1.550737
     24          1           0       -2.726210   -2.121995   -0.231394
     25          1           0       -0.683380    2.800778   -0.350347
 ---------------------------------------------------------------------

 SCF Done:  E(UB3LYP) =  -519.050023160     A.U. after   26 cycles

 The electronic state is 2-A.
 Alpha  occ. eigenvalues --  -18.93561 -14.10934 -10.07770 -10.05565 -10.05542
 Alpha  occ. eigenvalues --  -10.04952 -10.04823 -10.04560 -10.03375 -10.03296
 Alpha  occ. eigenvalues --  -10.02983 -10.02873  -0.87364  -0.73977  -0.71037
 Alpha  occ. eigenvalues --   -0.66972  -0.62206  -0.60160  -0.54021  -0.50771
 Alpha  occ. eigenvalues --   -0.47293  -0.45158  -0.39440  -0.36483  -0.35815
 Alpha  occ. eigenvalues --   -0.33108  -0.31577  -0.31025  -0.30955  -0.29170
 Alpha  occ. eigenvalues --   -0.27256  -0.26726  -0.25675  -0.25091  -0.24151
 Alpha  occ. eigenvalues --   -0.23787  -0.21935  -0.21061  -0.19819  -0.18354
 Alpha  occ. eigenvalues --   -0.16522  -0.10586  -0.09974  -0.07724   0.04500
 Alpha virt. eigenvalues --    0.07366   0.08916   0.09280   0.09898   0.10989
 Alpha virt. eigenvalues --    0.11506   0.11772   0.12288   0.12990   0.13727
 Alpha virt. eigenvalues --    0.14321   0.14484   0.15352   0.16084   0.17943

  Beta  occ. eigenvalues --  -18.93258 -14.10353 -10.07614 -10.05556 -10.05532
  Beta  occ. eigenvalues --  -10.04971 -10.04820 -10.04565 -10.03383 -10.03176
  Beta  occ. eigenvalues --  -10.03015 -10.02552  -0.86815  -0.73384  -0.70559
  Beta  occ. eigenvalues --   -0.66777  -0.62085  -0.59956  -0.53591  -0.50675
  Beta  occ. eigenvalues --   -0.47133  -0.44695  -0.39152  -0.36339  -0.35509
  Beta  occ. eigenvalues --   -0.32984  -0.31403  -0.30852  -0.30785  -0.28941
  Beta  occ. eigenvalues --   -0.27005  -0.26498  -0.25206  -0.24869  -0.24012
  Beta  occ. eigenvalues --   -0.23644  -0.21854  -0.20504  -0.19181  -0.18165
  Beta  occ. eigenvalues --   -0.14896  -0.09917  -0.08253  -0.07236
  Beta virt. eigenvalues --    0.07301   0.08801   0.09385   0.09739   0.10600
  Beta virt. eigenvalues --    0.11091   0.11617   0.11964   0.12249   0.13227
  Beta virt. eigenvalues --    0.14108   0.14294   0.14958   0.15717   0.16013

 Mulliken charges and spin densities:
               1          2
     1  C   -0.401815   0.139997
     2  C   -0.225633  -0.092880
     3  C   -0.408042  -0.108720
     4  C    0.868976  -0.067324
     5  C    0.533901   0.060602
     6  C   -0.398880  -0.199609
     7  C   -0.100930  -0.058809
     8  C   -0.066596  -0.126751
     9  C    0.040797   0.114906
    10  O   -0.339205   0.103337
    11  C   -1.081586   0.012698
    12  N   -0.299103   0.334880
    13  H    0.085526   0.029845
    14  H   -0.062473   0.203214
    15  H    0.073168   0.050556
    16  H    0.060631   0.075825
    17  H    0.156776  -0.048673
    18  H    0.090807   0.069767
    19  H    0.129351  -0.011411
    20  H   -0.109989   0.272112
    21  H    0.093507   0.016224
    22  H    0.016095   0.145903
    23  H   -0.001694   0.124002
    24  H    0.175018  -0.033164
    25  H    0.171391  -0.006528
 Sum of Mulliken charges =  -1.00000   1.00000

 Dipole moment (field-independent basis, Debye):
    X=              6.6164    Y=             -2.8090    Z=             -1.2286  Tot=              7.2923
 Quadrupole moment (field-independent basis, Debye-Ang):
   XX=           -121.5772   YY=            -92.2611   ZZ=            -84.2345
   XY=             13.5376   XZ=              0.9661   YZ=              2.4583

 Summary of Natural Population Analysis:

                                       Natural Population
                Natural  -----------------------------------------------
    Atom  No    Charge         Core      Valence    Rydberg      Total
 -----------------------------------------------------------------------
      C    1   -0.18535      0.99964     2.17833    0.00738     3.18535
      C    2   -0.18506      0.99964     2.17787    0.00755     3.18506
      C    3   -0.20002      0.99960     2.19120    0.00921     3.20002
      C    4   -0.06195      0.99940     2.05124    0.01131     3.06195
      C    5    0.06450      0.99946     1.92769    0.00835     2.93550
      C    6   -0.19948      0.99960     2.19224    0.00764     3.19948
      C    7   -0.19547      0.99960     2.18845    0.00742     3.19547
      C    8   -0.22729      0.99960     2.21900    0.00869     3.22729
      C    9    0.29452      0.99962     1.68306    0.02280     2.70548
      O   10   -0.25923      0.99987     3.25214    0.00722     4.25923
      C   11    0.08198      0.99954     1.90113    0.01735     2.91802
      N   12   -0.21622      0.99972     2.70791    0.00860     3.71622
      H   13    0.09135      0.00000     0.40717    0.00148     0.40865
      H   14    0.09220      0.00000     0.40637    0.00142     0.40780
      H   15    0.09251      0.00000     0.40589    0.00160     0.40749
      H   16    0.09131      0.00000     0.40743    0.00125     0.40869
      H   17    0.09891      0.00000     0.39910    0.00200     0.40109
      H   18    0.09445      0.00000     0.40334    0.00220     0.40555
      H   19    0.09532      0.00000     0.40302    0.00166     0.40468
      H   20    0.09978      0.00000     0.39762    0.00260     0.40022
      H   21    0.09185      0.00000     0.40626    0.00189     0.40815
      H   22    0.10130      0.00000     0.39666    0.00203     0.39870
      H   23    0.10205      0.00000     0.39615    0.00180     0.39795
      H   24    0.09722      0.00000     0.40025    0.00252     0.40278
      H   25    0.14080      0.00000     0.35662    0.00258     0.35920
 =======================================================================
   * Total *    0.00000     11.99530    31.85614    0.14857    44.00000

 Normal termination of Gaussian 16 at Wed Dec  9 18:42:52 2020.
