 Gaussian 16, Revision A.03,

 -----------------------------------------------------------
 # opt freq B3LYP/6-31G(d) empiricaldispersion=gd3bj scf=xqc
 -----------------------------------------------------------

 ------------------------------
 CID_58422390_JID_3739_neutraal
 ------------------------------
 Symbolic Z-matrix:
 Charge =  0 Multiplicity = 1

 SCF Done:  E(RB3LYP) =  -1028.36702115     A.U. after   15 cycles
 SCF Done:  E(RB3LYP) =  -1028.37054343     A.U. after   13 cycles
 SCF Done:  E(RB3LYP) =  -1028.37132594     A.U. after   12 cycles
 SCF Done:  E(RB3LYP) =  -1028.37180354     A.U. after   11 cycles
 SCF Done:  E(RB3LYP) =  -1028.37186953     A.U. after   11 cycles
 SCF Done:  E(RB3LYP) =  -1028.37190209     A.U. after   11 cycles
 SCF Done:  E(RB3LYP) =  -1028.37191137     A.U. after   10 cycles
 SCF Done:  E(RB3LYP) =  -1028.37191842     A.U. after   10 cycles
 SCF Done:  E(RB3LYP) =  -1028.37192318     A.U. after    9 cycles
 SCF Done:  E(RB3LYP) =  -1028.37192727     A.U. after   10 cycles
 SCF Done:  E(RB3LYP) =  -1028.37193471     A.U. after    7 cycles
 SCF Done:  E(RB3LYP) =  -1028.37193476     A.U. after    7 cycles
 SCF Done:  E(RB3LYP) =  -1028.37193481     A.U. after    7 cycles
 SCF Done:  E(RB3LYP) =  -1028.37193485     A.U. after    7 cycles
 SCF Done:  E(RB3LYP) =  -1028.37193488     A.U. after    7 cycles
 Optimization completed.
    -- Stationary point found.
 Normal termination of Gaussian 16 at Sun Dec 13 20:02:26 2020.

 --------------------------------------------------------------------
 #N Geom=AllCheck Guess=TCheck SCRF=Check GenChk RB3LYP/6-31G(d) Freq
 --------------------------------------------------------------------

 Structure from the checkpoint file:  "JID_3739.chk"
 ------------------------------
 CID_58422390_JID_3739_neutraal
 ------------------------------
 Charge =  0 Multiplicity = 1

 SCF Done:  E(RB3LYP) =  -1028.37193488     A.U. after    1 cycles

  Exact polarizability: 128.811  -1.281 109.214   6.789   1.350  82.994
 Approx polarizability: 154.239  -2.045 183.371   2.395   8.123 135.223

                      1                      2                      3
                      A                      A                      A
 Frequencies --     32.8127                44.3132                49.8935
 Red. masses --      4.4070                 4.1582                 4.6771
 Frc consts  --      0.0028                 0.0048                 0.0069
 IR Inten    --      0.2264                 2.6169                 2.2648

                      4                      5                      6
                      A                      A                      A
 Frequencies --     64.3317                91.2471               136.3729
 Red. masses --      4.4331                 3.9993                 2.6205
 Frc consts  --      0.0108                 0.0196                 0.0287
 IR Inten    --      0.2461                 1.1569                 0.8855

                      7                      8                      9
                      A                      A                      A
 Frequencies --    145.0815               163.9540               176.5061
 Red. masses --      1.2255                 4.2766                 2.9669
 Frc consts  --      0.0152                 0.0677                 0.0545
 IR Inten    --      0.6241                 7.1948                 0.4811

                     10                     11                     12
                      A                      A                      A
 Frequencies --    206.2302               250.7828               268.8005
 Red. masses --      3.5938                 1.7905                 2.1901
 Frc consts  --      0.0901                 0.0663                 0.0932
 IR Inten    --      6.0395                 0.1820                 0.3805

                     13                     14                     15
                      A                      A                      A
 Frequencies --    292.7768               302.4169               353.2226
 Red. masses --      3.8414                 2.8823                 2.6243
 Frc consts  --      0.1940                 0.1553                 0.1929
 IR Inten    --      8.2439                10.9244                 2.2963

                     16                     17                     18
                      A                      A                      A
 Frequencies --    404.7213               429.3932               450.8268
 Red. masses --      2.1297                 5.7195                 2.9546
 Frc consts  --      0.2055                 0.6213                 0.3538
 IR Inten    --     11.2741                 9.5450                12.4288

                     19                     20                     21
                      A                      A                      A
 Frequencies --    475.4623               497.6309               538.8908
 Red. masses --      7.5295                 4.8674                 3.9777
 Frc consts  --      1.0029                 0.7102                 0.6806
 IR Inten    --      9.6478                 1.4373                34.9066

                     22                     23                     24
                      A                      A                      A
 Frequencies --    623.3845               644.8707               681.1555
 Red. masses --      3.1284                 3.1106                 6.2777
 Frc consts  --      0.7163                 0.7622                 1.7161
 IR Inten    --     27.6582                32.5333                70.6113

                     25                     26                     27
                      A                      A                      A
 Frequencies --    737.9222               773.2883               798.5159
 Red. masses --      2.1070                 2.3188                 2.9867
 Frc consts  --      0.6760                 0.8169                 1.1220
 IR Inten    --     50.5286                69.1329                47.6595

                     28                     29                     30
                      A                      A                      A
 Frequencies --    806.5815               885.2455               898.6160
 Red. masses --      2.9391                 2.3474                 1.9961
 Frc consts  --      1.1266                 1.0839                 0.9497
 IR Inten    --     25.6943                 3.8333                77.2610

                     31                     32                     33
                      A                      A                      A
 Frequencies --    967.9680               980.4655              1019.6633
 Red. masses --      1.4035                 1.5494                 9.2326
 Frc consts  --      0.7748                 0.8776                 5.6557
 IR Inten    --     17.9383                44.2458               237.6930

                     34                     35                     36
                      A                      A                      A
 Frequencies --   1032.1068              1075.4086              1098.1927
 Red. masses --      1.0905                 1.6551                 1.5542
 Frc consts  --      0.6844                 1.1278                 1.1043
 IR Inten    --     27.0503                 7.4622                11.7416

                     37                     38                     39
                      A                      A                      A
 Frequencies --   1106.3962              1146.0569              1185.2283
 Red. masses --      2.0714                 4.6770                 1.2569
 Frc consts  --      1.4940                 3.6193                 1.0403
 IR Inten    --     12.1753               116.4423                 1.6408

                     40                     41                     42
                      A                      A                      A
 Frequencies --   1193.6089              1203.5548              1253.6253
 Red. masses --      2.1325                 1.4971                 1.3769
 Frc consts  --      1.7900                 1.2777                 1.2749
 IR Inten    --     15.2362                21.7843                28.0282

                     43                     44                     45
                      A                      A                      A
 Frequencies --   1289.1193              1321.7486              1340.5597
 Red. masses --      2.0525                 1.3133                 3.7712
 Frc consts  --      2.0097                 1.3518                 3.9930
 IR Inten    --     67.2427                 0.6584               170.8756

                     46                     47                     48
                      A                      A                      A
 Frequencies --   1364.2170              1380.6391              1388.7371
 Red. masses --      1.3377                 2.1719                 1.5794
 Frc consts  --      1.4668                 2.4392                 1.7947
 IR Inten    --     25.0797               121.8694                54.3234

                     49                     50                     51
                      A                      A                      A
 Frequencies --   1446.2262              1470.5689              1472.0629
 Red. masses --      1.2589                 1.1629                 1.2257
 Frc consts  --      1.5513                 1.4817                 1.5649
 IR Inten    --     17.4169                20.5517                27.8610

                     52                     53                     54
                      A                      A                      A
 Frequencies --   1484.0793              1503.7116              1513.9054
 Red. masses --      1.1399                 1.2757                 1.0483
 Frc consts  --      1.4792                 1.6995                 1.4156
 IR Inten    --      1.0033                65.4358                 4.2697

                     55                     56                     57
                      A                      A                      A
 Frequencies --   1523.7115              1533.6097              1535.2241
 Red. masses --      1.1565                 1.0522                 1.0876
 Frc consts  --      1.5819                 1.4581                 1.5103
 IR Inten    --     15.5239                13.0982                 3.6360

                     58                     59                     60
                      A                      A                      A
 Frequencies --   1703.8704              1774.3967              3069.3496
 Red. masses --      4.4761                 7.9405                 1.0358
 Frc consts  --      7.6563                14.7298                 5.7495
 IR Inten    --     39.1975               354.8013                13.9072

                     61                     62                     63
                      A                      A                      A
 Frequencies --   3076.0030              3097.2623              3118.4014
 Red. masses --      1.0290                 1.0593                 1.0844
 Frc consts  --      5.7361                 5.9874                 6.2128
 IR Inten    --     29.9624                 0.3467                 3.3121

                     64                     65                     66
                      A                      A                      A
 Frequencies --   3139.6871              3155.8399              3158.3008
 Red. masses --      1.1035                 1.1021                 1.1065
 Frc consts  --      6.4089                 6.4670                 6.5027
 IR Inten    --     27.9801                11.3232                 2.7597

                     67                     68                     69
                      A                      A                      A
 Frequencies --   3158.8722              3166.7744              3188.4067
 Red. masses --      1.1091                 1.0582                 1.1068
 Frc consts  --      6.5206                 6.2526                 6.6290
 IR Inten    --     11.5481                 6.1719                 7.3505

                     70                     71                     72
                      A                      A                      A
 Frequencies --   3198.0491              3247.7868              3546.5037
 Red. masses --      1.0927                 1.1161                 1.0755
 Frc consts  --      6.5846                 6.9363                 7.9703
 IR Inten    --      2.2227                14.5179                83.6567

 - Thermochemistry -
 -------------------
 Temperature   298.150 Kelvin.  Pressure   1.00000 Atm.
 Atom     1 has atomic number  6 and mass  12.00000

 Molecular mass:   207.05653 amu.
 Principal axes and moments of inertia in atomic units:
                           1         2         3
     Eigenvalues --  1249.511524749.186105233.70140
           X            0.99987   0.00464   0.01519
           Y           -0.00422   0.99960  -0.02792
           Z           -0.01531   0.02785   0.99949
 This molecule is an asymmetric top.
 Rotational symmetry number  1.
 Warning -- assumption of classical behavior for rotation
           may cause significant error
 Rotational temperatures (Kelvin)      0.06932     0.01824     0.01655
 Rotational constants (GHZ):           1.44436     0.38001     0.34483
 Zero-point vibrational energy     549415.8 (Joules/Mol)
                                  131.31353 (Kcal/Mol)
 Warning -- explicit consideration of  21 degrees of freedom as
           vibrations may cause significant error
 Vibrational temperatures:     47.21    63.76    71.79    92.56   131.28
          (Kelvin)            196.21   208.74   235.89   253.95   296.72
                              360.82   386.74   421.24   435.11   508.21
                              582.30   617.80   648.64   684.08   715.98
                              775.34   896.91   927.83   980.03  1061.71
                             1112.59  1148.89  1160.49  1273.67  1292.91
                             1392.69  1410.67  1467.07  1484.97  1547.27
                             1580.05  1591.86  1648.92  1705.28  1717.34
                             1731.65  1803.69  1854.76  1901.70  1928.77
                             1962.80  1986.43  1998.08  2080.80  2115.82
                             2117.97  2135.26  2163.51  2178.17  2192.28
                             2206.52  2208.85  2451.49  2552.96  4416.11
                             4425.68  4456.27  4486.68  4517.31  4540.55
                             4544.09  4544.91  4556.28  4587.41  4601.28
                             4672.84  5102.63

 Zero-point correction=                           0.209261 (Hartree/Particle)
 Thermal correction to Energy=                    0.224229
 Thermal correction to Enthalpy=                  0.225174
 Thermal correction to Gibbs Free Energy=         0.165804
 Sum of electronic and zero-point Energies=          -1028.162673
 Sum of electronic and thermal Energies=             -1028.147706
 Sum of electronic and thermal Enthalpies=           -1028.146761
 Sum of electronic and thermal Free Energies=        -1028.206131

                     E (Thermal)             CV                S
                      KCal/Mol        Cal/Mol-Kelvin    Cal/Mol-Kelvin
 Total                  140.706             53.087            124.953
 Electronic               0.000              0.000              0.000
 Translational            0.889              2.981             41.887
 Rotational               0.889              2.981             31.807
 Vibrational            138.929             47.125             51.258
 Vibration     1          0.594              1.983              5.652
 Vibration     2          0.595              1.980              5.056
 Vibration     3          0.595              1.978              4.822
 Vibration     4          0.597              1.971              4.320
 Vibration     5          0.602              1.955              3.633
 Vibration     6          0.614              1.917              2.854
 Vibration     7          0.616              1.908              2.736
 Vibration     8          0.623              1.887              2.504
 Vibration     9          0.628              1.871              2.365
 Vibration    10          0.641              1.831              2.077
 Vibration    11          0.663              1.761              1.725
 Vibration    12          0.673              1.731              1.604
 Vibration    13          0.688              1.687              1.458
 Vibration    14          0.694              1.669              1.403
 Vibration    15          0.729              1.569              1.152
 Vibration    16          0.770              1.460              0.945
 Vibration    17          0.791              1.406              0.861
 Vibration    18          0.810              1.359              0.793
 Vibration    19          0.832              1.304              0.722
 Vibration    20          0.853              1.255              0.664
 Vibration    21          0.894              1.164              0.568

                           ! Non-Optimized Parameters !
 Normal termination of Gaussian 16 at Sun Dec 13 20:08:43 2020.

 ----------------------------------------------------------------------
 # B3LYP/6-311++G(d,p) empiricaldispersion=gd3bj scf=xqc pop=npa geom=c
 heck
 ----------------------------------------------------------------------

 --------------------------------------
 CID_58422390_JID_3739_Energie_neutraal
 --------------------------------------
 Structure from the checkpoint file:  "JID_3739.chk"
 Charge =  0 Multiplicity = 1

 SCF Done:  E(RB3LYP) =  -1028.58994596     A.U. after   15 cycles
 Normal termination of Gaussian 16 at Sun Dec 13 20:11:31 2020.

 ----------------------------------------------------------------------
 # B3LYP/6-311++G(d,p) empiricaldispersion=gd3bj scf=xqc pop=npa geom=c
 heck
 ----------------------------------------------------------------------

 ------------------------------------
 CID_58422390_JID_3739_Energie_kation
 ------------------------------------
 Structure from the checkpoint file:  "JID_3739.chk"
 Charge =  1 Multiplicity = 2

 SCF Done:  E(UB3LYP) =  -1028.25125470     A.U. after   29 cycles
 Normal termination of Gaussian 16 at Sun Dec 13 20:19:25 2020.
 Gaussian 16:  ES64L-G16RevA.03 25-Dec-2016

 ----------------------------------------------------------------------
 # B3LYP/6-311++G(d,p) empiricaldispersion=gd3bj scf=xqc pop=npa geom=c
 heck
 ----------------------------------------------------------------------

 -----------------------------------
 CID_58422390_JID_3739_Energie_anion
 -----------------------------------
 Structure from the checkpoint file:  "JID_3739.chk"
 Charge = -1 Multiplicity = 2

                         Standard orientation:
 ---------------------------------------------------------------------
 Center     Atomic      Atomic             Coordinates (Angstroms)
 Number     Number       Type             X           Y           Z
 ---------------------------------------------------------------------
      1          6           0        0.254446    1.986571   -0.541764
      2          6           0        0.758580    0.803217    0.289237
      3          6           0       -0.328645    0.142026    1.162661
      4         16           0       -1.744626   -0.536853    0.268250
      5          8           0       -1.344251   -0.978133   -1.073476
      6          8           0       -2.480085   -1.450170    1.137917
      7          8           0       -2.587614    0.865678    0.122157
      8          6           0       -3.768776    0.764793   -0.707535
      9          7           0        1.430984   -0.181349   -0.548671
     10          6           0        2.652015   -0.776397   -0.330390
     11          8           0        2.941396   -1.850940   -0.843154
     12          6           0        3.675437   -0.057429    0.492727
     13          6           0        3.969342    1.241317    0.392747
     14          1           0       -0.411952    1.648816   -1.339135
     15          1           0        1.105975    2.494956   -1.003052
     16          1           0       -0.291676    2.702582    0.080429
     17          1           0        1.496148    1.168006    1.007011
     18          1           0        0.081634   -0.720131    1.695789
     19          1           0       -0.752170    0.839047    1.890687
     20          1           0       -3.492572    0.467461   -1.722232
     21          1           0       -4.472765    0.048216   -0.276172
     22          1           0       -4.200672    1.765281   -0.706906
     23          1           0        0.818210   -0.735856   -1.141067
     24          1           0        4.290678   -0.720908    1.095045
     25          1           0        4.807215    1.676027    0.930627
     26          1           0        3.409105    1.909538   -0.255962
 ---------------------------------------------------------------------

 SCF Done:  E(UB3LYP) =  -1028.58798537     A.U. after   33 cycles
 SCF Done:  E(UB3LYP) =  -1028.58798537     a.u. after    1 cycles

 The electronic state is 2-A.
 Alpha  occ. eigenvalues --  -88.98810 -19.08460 -19.03922 -19.03865 -18.96333
 Alpha  occ. eigenvalues --  -14.21579 -10.14708 -10.14020 -10.12987 -10.12754
 Alpha  occ. eigenvalues --  -10.06742 -10.05483 -10.05236  -8.04966  -6.01352
 Alpha  occ. eigenvalues --   -6.01157  -6.00994  -1.05935  -0.95538  -0.93054
 Alpha  occ. eigenvalues --   -0.91631  -0.81735  -0.71442  -0.66268  -0.65198
 Alpha  occ. eigenvalues --   -0.62011  -0.54332  -0.51963  -0.50761  -0.46463
 Alpha  occ. eigenvalues --   -0.44585  -0.41739  -0.40504  -0.39283  -0.37255
 Alpha  occ. eigenvalues --   -0.36406  -0.35664  -0.35187  -0.33996  -0.33862
 Alpha  occ. eigenvalues --   -0.31589  -0.31210  -0.28885  -0.28552  -0.27908
 Alpha  occ. eigenvalues --   -0.27130  -0.25922  -0.25220  -0.24905  -0.23780
 Alpha  occ. eigenvalues --   -0.22616  -0.20925  -0.16793  -0.15066  -0.13463
 Alpha  occ. eigenvalues --    0.04112
 Alpha virt. eigenvalues --    0.05741   0.07096   0.08657   0.08867   0.09660
 Alpha virt. eigenvalues --    0.10059   0.10782   0.11483   0.11870   0.12140
 Alpha virt. eigenvalues --    0.12975   0.13299   0.13814   0.14733   0.15435

  Beta  occ. eigenvalues --  -88.98807 -19.08456 -19.03914 -19.03860 -18.96196
  Beta  occ. eigenvalues --  -14.21551 -10.14608 -10.13963 -10.12979 -10.12744
  Beta  occ. eigenvalues --  -10.06726 -10.05343 -10.05042  -8.04963  -6.01344
  Beta  occ. eigenvalues --   -6.01155  -6.00989  -1.05912  -0.95518  -0.93036
  Beta  occ. eigenvalues --   -0.91388  -0.81635  -0.71378  -0.65908  -0.65074
  Beta  occ. eigenvalues --   -0.61954  -0.54265  -0.51548  -0.50683  -0.46248
  Beta  occ. eigenvalues --   -0.44516  -0.41678  -0.40480  -0.39244  -0.37181
  Beta  occ. eigenvalues --   -0.36251  -0.35592  -0.35116  -0.33898  -0.33696
  Beta  occ. eigenvalues --   -0.31522  -0.31072  -0.28720  -0.28424  -0.27870
  Beta  occ. eigenvalues --   -0.26771  -0.25897  -0.25146  -0.24750  -0.23762
  Beta  occ. eigenvalues --   -0.22569  -0.20910  -0.15745  -0.14737  -0.13053
  Beta virt. eigenvalues --    0.06724   0.07592   0.08225   0.08854   0.09047
  Beta virt. eigenvalues --    0.10189   0.10471   0.10979   0.11485   0.12103
  Beta virt. eigenvalues --    0.12431   0.12978   0.13443   0.13983   0.14802

 Mulliken charges and spin densities:
               1          2
     1  C    0.432436  -0.970544
     2  C   -0.664584   0.731293
     3  C   -0.366836  -0.672650
     4  S    0.122937   0.105036
     5  O   -0.271459   0.010226
     6  O   -0.130234  -0.004221
     7  O   -0.171582   0.073498
     8  C    0.826822  -1.056930
     9  N    0.037006  -0.022665
    10  C   -0.073605   0.023186
    11  O   -0.368520   0.045080
    12  C    0.021369   0.131728
    13  C   -0.365358   0.136868
    14  H    0.111374   0.070734
    15  H    0.062223   0.072605
    16  H   -0.091878   0.260637
    17  H   -0.113485   0.311826
    18  H    0.298162  -0.042040
    19  H   -0.177263   0.461601
    20  H   -0.034485   0.214379
    21  H   -0.086285   0.250629
    22  H   -0.615219   0.794434
    23  H    0.334826  -0.009153
    24  H    0.151715   0.013988
    25  H   -0.004611   0.101259
    26  H    0.136535  -0.030806
 Sum of Mulliken charges =  -1.00000   1.00000

 Dipole moment (field-independent basis, Debye):
    X=             -0.2370    Y=             -0.3782    Z=              0.7326  Tot=              0.8579
 Quadrupole moment (field-independent basis, Debye-Ang):
   XX=           -157.7721   YY=           -127.6634   ZZ=           -107.8172
   XY=             13.4629   XZ=              3.3565   YZ=             -7.1688

 Summary of Natural Population Analysis:

                                       Natural Population
                Natural  -----------------------------------------------
    Atom  No    Charge         Core      Valence    Rydberg      Total
 -----------------------------------------------------------------------
      C    1   -0.28806      0.99963     2.28214    0.00629     3.28806
      C    2   -0.02699      0.99959     2.01338    0.01402     3.02699
      C    3   -0.28740      0.99954     2.27676    0.01110     3.28740
      S    4    1.12295      4.99932     1.77853    0.09921     6.87705
      O    5   -0.46047      0.99990     3.45521    0.00536     4.46047
      O    6   -0.45162      0.99990     3.44631    0.00541     4.45162
      O    7   -0.37036      0.99992     3.35970    0.01075     4.37036
      C    8   -0.10728      0.99961     2.09827    0.00940     3.10728
      N    9   -0.33086      0.99966     2.82109    0.01011     3.83086
      C   10    0.33883      0.99965     1.63921    0.02231     2.66117
      O   11   -0.31001      0.99988     3.30449    0.00564     4.31001
      C   12   -0.12049      0.99953     2.10876    0.01220     3.12049
      C   13   -0.14849      0.99959     2.14085    0.00805     3.14849
      H   14    0.10367      0.00000     0.39504    0.00129     0.39633
      H   15    0.10211      0.00000     0.39701    0.00088     0.39789
      H   16    0.10343      0.00000     0.39536    0.00121     0.39657
      H   17    0.11938      0.00000     0.37841    0.00221     0.38062
      H   18    0.12144      0.00000     0.37765    0.00091     0.37856
      H   19    0.12586      0.00000     0.37258    0.00156     0.37414
      H   20    0.09341      0.00000     0.40536    0.00123     0.40659
      H   21    0.09154      0.00000     0.40724    0.00122     0.40846
      H   22    0.10287      0.00000     0.39370    0.00343     0.39713
      H   23    0.20280      0.00000     0.29475    0.00245     0.29720
      H   24    0.09732      0.00000     0.40169    0.00099     0.40268
      H   25    0.08900      0.00000     0.41010    0.00090     0.41100
      H   26    0.08744      0.00000     0.41149    0.00107     0.41256
 =======================================================================
   * Total *    0.00000     16.99571    37.76508    0.23922    55.00000

 Normal termination of Gaussian 16 at Sun Dec 13 20:28:33 2020.
