 Gaussian 16, Revision A.03,

 -----------------------------------------------------------
 # opt freq B3LYP/6-31G(d) empiricaldispersion=gd3bj scf=xqc
 -----------------------------------------------------------

 -------------------------------
 CID_115449044_JID_6973_neutraal
 -------------------------------
 Symbolic Z-matrix:
 Charge =  0 Multiplicity = 1

 SCF Done:  E(RB3LYP) =  -675.896697045     A.U. after   13 cycles
 SCF Done:  E(RB3LYP) =  -675.905461435     A.U. after   11 cycles
 SCF Done:  E(RB3LYP) =  -675.906506529     A.U. after   11 cycles
 SCF Done:  E(RB3LYP) =  -675.907202513     A.U. after   11 cycles
 SCF Done:  E(RB3LYP) =  -675.907105549     A.U. after   10 cycles
 SCF Done:  E(RB3LYP) =  -675.907493812     A.U. after   10 cycles
 SCF Done:  E(RB3LYP) =  -675.907616909     A.U. after   10 cycles
 SCF Done:  E(RB3LYP) =  -675.907817893     A.U. after   10 cycles
 SCF Done:  E(RB3LYP) =  -675.907978633     A.U. after   10 cycles
 SCF Done:  E(RB3LYP) =  -675.908094221     A.U. after   10 cycles
 SCF Done:  E(RB3LYP) =  -675.910015362     A.U. after    9 cycles
 SCF Done:  E(RB3LYP) =  -675.910021277     A.U. after    8 cycles
 SCF Done:  E(RB3LYP) =  -675.910024704     A.U. after    9 cycles
 SCF Done:  E(RB3LYP) =  -675.910024764     A.U. after    7 cycles
 SCF Done:  E(RB3LYP) =  -675.910024930     A.U. after    7 cycles
 SCF Done:  E(RB3LYP) =  -675.910024914     A.U. after    6 cycles
 Optimization completed.
    -- Stationary point found.
 Normal termination of Gaussian 16 at Fri Dec 11 01:38:39 2020.

 --------------------------------------------------------------------
 #N Geom=AllCheck Guess=TCheck SCRF=Check GenChk RB3LYP/6-31G(d) Freq
 --------------------------------------------------------------------

 Structure from the checkpoint file:  "JID_6973.chk"
 -------------------------------
 CID_115449044_JID_6973_neutraal
 -------------------------------
 Charge =  0 Multiplicity = 1

 SCF Done:  E(RB3LYP) =  -675.910024914     A.U. after    1 cycles

  Exact polarizability: 174.404   1.278 148.954   2.280  -0.313 137.493
 Approx polarizability: 210.849   0.518 212.274   4.904  -0.743 206.928

                      1                      2                      3
                      A                      A                      A
 Frequencies --     23.8375                28.7035                46.4198
 Red. masses --      3.5605                 3.3456                 3.1407
 Frc consts  --      0.0012                 0.0016                 0.0040
 IR Inten    --      0.1503                 0.4266                 0.1717

                      4                      5                      6
                      A                      A                      A
 Frequencies --     74.2404               109.0792               133.3451
 Red. masses --      3.3805                 2.2371                 2.0922
 Frc consts  --      0.0110                 0.0157                 0.0219
 IR Inten    --      0.5250                 0.2693                 0.1708

                      7                      8                      9
                      A                      A                      A
 Frequencies --    142.3320               149.5131               177.9234
 Red. masses --      3.0901                 2.5684                 1.8492
 Frc consts  --      0.0369                 0.0338                 0.0345
 IR Inten    --      1.9920                 0.8919                 1.7698

                     10                     11                     12
                      A                      A                      A
 Frequencies --    205.0628               215.2040               223.3497
 Red. masses --      1.8274                 1.5403                 1.4514
 Frc consts  --      0.0453                 0.0420                 0.0427
 IR Inten    --      1.2550                12.3353                14.9921

                     13                     14                     15
                      A                      A                      A
 Frequencies --    242.3283               252.1315               266.2591
 Red. masses --      2.2163                 2.3871                 1.1498
 Frc consts  --      0.0767                 0.0894                 0.0480
 IR Inten    --      6.9007                 5.0233                 0.3472

                     16                     17                     18
                      A                      A                      A
 Frequencies --    307.3732               324.2416               338.9379
 Red. masses --      2.4755                 2.2665                 2.6132
 Frc consts  --      0.1378                 0.1404                 0.1769
 IR Inten    --      7.7019                 6.1549                 0.5139

                     19                     20                     21
                      A                      A                      A
 Frequencies --    367.8887               369.3950               393.4523
 Red. masses --      2.1519                 2.3592                 2.1755
 Frc consts  --      0.1716                 0.1897                 0.1984
 IR Inten    --     11.9232                 3.2203                 3.8766

                     22                     23                     24
                      A                      A                      A
 Frequencies --    420.9793               453.9341               497.6256
 Red. masses --      2.3307                 2.1786                 2.1631
 Frc consts  --      0.2434                 0.2645                 0.3156
 IR Inten    --      2.0724                 0.3087                 2.9783

                     25                     26                     27
                      A                      A                      A
 Frequencies --    559.6730               602.3406               672.1579
 Red. masses --      3.4535                 3.5000                 2.0143
 Frc consts  --      0.6374                 0.7482                 0.5362
 IR Inten    --      1.0115                 1.9397                 5.8322

                     28                     29                     30
                      A                      A                      A
 Frequencies --    693.7570               727.2042               806.8315
 Red. masses --      2.6418                 2.0061                 1.3637
 Frc consts  --      0.7491                 0.6251                 0.5231
 IR Inten    --      1.2841                 5.3945                 4.6003

                     31                     32                     33
                      A                      A                      A
 Frequencies --    821.1617               853.3047               864.9155
 Red. masses --      1.9615                 1.5632                 2.0370
 Frc consts  --      0.7793                 0.6706                 0.8978
 IR Inten    --      3.2953                42.2248                 8.8960

                     34                     35                     36
                      A                      A                      A
 Frequencies --    867.4589               875.5760               893.1889
 Red. masses --      2.2722                 2.3692                 2.0626
 Frc consts  --      1.0074                 1.0701                 0.9695
 IR Inten    --     34.0702                 2.8401                14.2773

                     37                     38                     39
                      A                      A                      A
 Frequencies --    900.9196               933.3719               946.9031
 Red. masses --      2.4134                 1.8797                 2.3201
 Frc consts  --      1.1541                 0.9648                 1.2257
 IR Inten    --     12.3786                28.6395                 1.4974

                     40                     41                     42
                      A                      A                      A
 Frequencies --    957.3842               959.9136               979.5705
 Red. masses --      2.3408                 1.7451                 1.8406
 Frc consts  --      1.2641                 0.9474                 1.0406
 IR Inten    --      1.0811                 4.6916                 6.6342

                     43                     44                     45
                      A                      A                      A
 Frequencies --   1003.1651              1005.8770              1027.0927
 Red. masses --      2.5685                 2.0860                 1.9317
 Frc consts  --      1.5229                 1.2436                 1.2006
 IR Inten    --      4.9724                 0.1331                 4.1075

                     46                     47                     48
                      A                      A                      A
 Frequencies --   1061.9232              1067.9335              1074.6549
 Red. masses --      1.9709                 1.2760                 1.7889
 Frc consts  --      1.3095                 0.8574                 1.2172
 IR Inten    --      9.7751                 2.1108                16.2997

                     49                     50                     51
                      A                      A                      A
 Frequencies --   1086.0545              1088.2642              1117.9838
 Red. masses --      2.0640                 1.8744                 1.9405
 Frc consts  --      1.4344                 1.3079                 1.4290
 IR Inten    --     45.8304                25.6449                 4.2842

                     52                     53                     54
                      A                      A                      A
 Frequencies --   1135.0526              1143.5326              1158.1648
 Red. masses --      1.6480                 2.1552                 1.2966
 Frc consts  --      1.2510                 1.6605                 1.0247
 IR Inten    --      7.0622                 8.5683                16.7341

                     55                     56                     57
                      A                      A                      A
 Frequencies --   1165.2933              1191.9554              1202.9226
 Red. masses --      1.4038                 2.0503                 1.5298
 Frc consts  --      1.1231                 1.7163                 1.3043
 IR Inten    --      7.5757                38.6571                14.6708

                     58                     59                     60
                      A                      A                      A
 Frequencies --   1215.6351              1223.0182              1228.3659
 Red. masses --      1.4093                 1.5743                 1.6737
 Frc consts  --      1.2270                 1.3874                 1.4879
 IR Inten    --      2.0682                 3.2308                 0.6503

                     61                     62                     63
                      A                      A                      A
 Frequencies --   1230.5614              1237.1909              1267.0185
 Red. masses --      1.6566                 1.5628                 1.5648
 Frc consts  --      1.4780                 1.4094                 1.4800
 IR Inten    --      4.4918                11.8585                29.3804

                     64                     65                     66
                      A                      A                      A
 Frequencies --   1274.5019              1283.3504              1293.7116
 Red. masses --      1.2802                 1.7938                 1.4345
 Frc consts  --      1.2252                 1.7406                 1.4146
 IR Inten    --      1.4276                14.7059                 1.2213

                     67                     68                     69
                      A                      A                      A
 Frequencies --   1293.9032              1307.5764              1310.6128
 Red. masses --      1.8189                 1.5462                 1.7958
 Frc consts  --      1.7942                 1.5575                 1.8174
 IR Inten    --      8.5883                 0.5826                 6.8574

                     70                     71                     72
                      A                      A                      A
 Frequencies --   1321.5106              1331.8082              1356.1757
 Red. masses --      1.5218                 1.3084                 1.4769
 Frc consts  --      1.5658                 1.3673                 1.6004
 IR Inten    --      5.8389                 1.0449                 6.6186

                     73                     74                     75
                      A                      A                      A
 Frequencies --   1362.5025              1366.7701              1394.4342
 Red. masses --      1.4027                 1.4485                 1.4183
 Frc consts  --      1.5343                 1.5943                 1.6249
 IR Inten    --     13.6796                 0.5579                27.2266

                     76                     77                     78
                      A                      A                      A
 Frequencies --   1400.6929              1405.6136              1410.5044
 Red. masses --      1.4533                 1.5298                 1.3304
 Frc consts  --      1.6799                 1.7808                 1.5595
 IR Inten    --      3.7011                17.7593                20.7458

                     79                     80                     81
                      A                      A                      A
 Frequencies --   1432.3050              1450.1280              1480.4929
 Red. masses --      1.4094                 1.4601                 1.1893
 Frc consts  --      1.7036                 1.8090                 1.5358
 IR Inten    --      4.9418                11.8004                 1.7507

                     82                     83                     84
                      A                      A                      A
 Frequencies --   1484.3440              1504.1695              1504.5415
 Red. masses --      1.1132                 1.0962                 1.0923
 Frc consts  --      1.4451                 1.4612                 1.4568
 IR Inten    --      2.6298                 1.6836                 3.8612

                     85                     86                     87
                      A                      A                      A
 Frequencies --   1506.3361              1513.0421              1517.2857
 Red. masses --      1.0600                 1.0836                 1.0492
 Frc consts  --      1.4171                 1.4616                 1.4231
 IR Inten    --     14.7227                 2.5491                12.4225

                     88                     89                     90
                      A                      A                      A
 Frequencies --   1526.4315              1529.6980              1531.3526
 Red. masses --      1.0812                 1.1218                 1.0667
 Frc consts  --      1.4842                 1.5466                 1.4738
 IR Inten    --      5.2883                 9.0140                 1.5489

                     91                     92                     93
                      A                      A                      A
 Frequencies --   1534.2329              1538.7333              1541.8909
 Red. masses --      1.0923                 1.0752                 1.1075
 Frc consts  --      1.5149                 1.4999                 1.5513
 IR Inten    --     10.7605                 3.4839                 5.0360

                     94                     95                     96
                      A                      A                      A
 Frequencies --   1557.1197              1560.5422              1691.2407
 Red. masses --      1.1066                 1.0578                 1.0883
 Frc consts  --      1.5808                 1.5178                 1.8341
 IR Inten    --      8.5571                 5.8780                37.2998

                     97                     98                     99
                      A                      A                      A
 Frequencies --   2902.6968              2907.9409              2910.9232
 Red. masses --      1.0742                 1.0728                 1.0717
 Frc consts  --      5.3326                 5.3448                 5.3504
 IR Inten    --     39.3055                74.4237                50.4677

                    100                    101                    102
                      A                      A                      A
 Frequencies --   2928.4423              2947.3072              2949.3901
 Red. masses --      1.0646                 1.0638                 1.0736
 Frc consts  --      5.3791                 5.4445                 5.5025
 IR Inten    --    202.3149               105.3793                69.3256

                    103                    104                    105
                      A                      A                      A
 Frequencies --   3016.4189              3049.3970              3052.2075
 Red. masses --      1.0692                 1.0778                 1.0587
 Frc consts  --      5.7317                 5.9051                 5.8108
 IR Inten    --     30.9454                61.9812                56.3878

                    106                    107                    108
                      A                      A                      A
 Frequencies --   3061.5259              3063.9899              3072.2112
 Red. masses --      1.0674                 1.0597                 1.0700
 Frc consts  --      5.8943                 5.8616                 5.9501
 IR Inten    --     25.0120                31.4090                39.0570

                    109                    110                    111
                      A                      A                      A
 Frequencies --   3075.3983              3076.8679              3081.5940
 Red. masses --      1.0618                 1.0821                 1.0834
 Frc consts  --      5.9171                 6.0356                 6.0615
 IR Inten    --     55.1794                46.2958                19.7018

                    112                    113                    114
                      A                      A                      A
 Frequencies --   3090.8339              3093.0793              3094.2071
 Red. masses --      1.0860                 1.0912                 1.1014
 Frc consts  --      6.1128                 6.1507                 6.2130
 IR Inten    --     28.2041                17.2312                15.2071

                    115                    116                    117
                      A                      A                      A
 Frequencies --   3096.0479              3102.1822              3110.8833
 Red. masses --      1.0987                 1.0880                 1.1070
 Frc consts  --      6.2051                 6.1688                 6.3118
 IR Inten    --     42.8601                13.5548                 7.7596

                    118                    119                    120
                      A                      A                      A
 Frequencies --   3113.3194              3116.5176              3128.7243
 Red. masses --      1.1006                 1.1039                 1.1067
 Frc consts  --      6.2856                 6.3170                 6.3830
 IR Inten    --     48.1260                32.1479                74.6196

                    121                    122                    123
                      A                      A                      A
 Frequencies --   3160.0432              3467.8883              3551.8588
 Red. masses --      1.0946                 1.0497                 1.0921
 Frc consts  --      6.4401                 7.4377                 8.1176
 IR Inten    --     10.1456                 1.9213                 0.1038

 - Thermochemistry -
 -------------------
 Temperature   298.150 Kelvin.  Pressure   1.00000 Atm.
 Atom     1 has atomic number  6 and mass  12.00000

 Molecular mass:   225.22050 amu.
 Principal axes and moments of inertia in atomic units:
                           1         2         3
     Eigenvalues --  1928.589897134.255137777.40353
           X            1.00000   0.00058  -0.00292
           Y           -0.00060   0.99995  -0.00951
           Z            0.00291   0.00951   0.99995
 This molecule is an asymmetric top.
 Rotational symmetry number  1.
 Warning -- assumption of classical behavior for rotation
           may cause significant error
 Rotational temperatures (Kelvin)      0.04491     0.01214     0.01114
 Rotational constants (GHZ):           0.93578     0.25297     0.23205
 Zero-point vibrational energy    1048827.7 (Joules/Mol)
                                  250.67584 (Kcal/Mol)
 Warning -- explicit consideration of  26 degrees of freedom as
           vibrations may cause significant error
 Vibrational temperatures:     34.30    41.30    66.79   106.82   156.94
          (Kelvin)            191.85   204.78   215.12   255.99   295.04
                              309.63   321.35   348.66   362.76   383.09
                              442.24   466.51   487.66   529.31   531.48
                              566.09   605.70   653.11   715.97   805.24
                              866.63   967.09   998.16  1046.28  1160.85
                             1181.47  1227.72  1244.42  1248.08  1259.76
                             1285.10  1296.22  1342.91  1362.38  1377.46
                             1381.10  1409.38  1443.33  1447.23  1477.76
                             1527.87  1536.52  1546.19  1562.59  1565.77
                             1608.53  1633.09  1645.29  1666.34  1676.60
                             1714.96  1730.74  1749.03  1759.65  1767.34
                             1770.50  1780.04  1822.96  1833.72  1846.45
                             1861.36  1861.64  1881.31  1885.68  1901.36
                             1916.17  1951.23  1960.34  1966.48  2006.28
                             2015.28  2022.36  2029.40  2060.77  2086.41
                             2130.10  2135.64  2164.16  2164.70  2167.28
                             2176.93  2183.04  2196.19  2200.89  2203.27
                             2207.42  2213.89  2218.44  2240.35  2245.27
                             2433.32  4176.33  4183.88  4188.17  4213.38
                             4240.52  4243.51  4339.95  4387.40  4391.45
                             4404.85  4408.40  4420.23  4424.81  4426.93
                             4433.73  4447.02  4450.25  4451.87  4454.52
                             4463.35  4475.87  4479.37  4483.97  4501.54
                             4546.60  4989.52  5110.33

 Zero-point correction=                           0.399477 (Hartree/Particle)
 Thermal correction to Energy=                    0.417109
 Thermal correction to Enthalpy=                  0.418053
 Thermal correction to Gibbs Free Energy=         0.353256
 Sum of electronic and zero-point Energies=           -675.510548
 Sum of electronic and thermal Energies=              -675.492916
 Sum of electronic and thermal Enthalpies=            -675.491971
 Sum of electronic and thermal Free Energies=         -675.556769

                     E (Thermal)             CV                S
                      KCal/Mol        Cal/Mol-Kelvin    Cal/Mol-Kelvin
 Total                  261.740             67.445            136.378
 Electronic               0.000              0.000              0.000
 Translational            0.889              2.981             42.138
 Rotational               0.889              2.981             33.037
 Vibrational            259.963             61.483             61.203
 Vibration     1          0.593              1.985              6.286
 Vibration     2          0.593              1.984              5.917
 Vibration     3          0.595              1.979              4.964
 Vibration     4          0.599              1.966              4.038
 Vibration     5          0.606              1.942              3.285
 Vibration     6          0.613              1.920              2.897
 Vibration     7          0.616              1.911              2.772
 Vibration     8          0.618              1.903              2.678
 Vibration     9          0.628              1.869              2.350
 Vibration    10          0.640              1.833              2.087
 Vibration    11          0.645              1.818              1.999
 Vibration    12          0.649              1.806              1.932
 Vibration    13          0.659              1.775              1.786
 Vibration    14          0.664              1.759              1.716
 Vibration    15          0.672              1.735              1.620
 Vibration    16          0.697              1.660              1.376
 Vibration    17          0.709              1.627              1.289
 Vibration    18          0.719              1.598              1.217
 Vibration    19          0.740              1.538              1.089
 Vibration    20          0.742              1.535              1.082
 Vibration    21          0.761              1.484              0.987
 Vibration    22          0.783              1.425              0.889
 Vibration    23          0.812              1.352              0.784
 Vibration    24          0.853              1.255              0.664
 Vibration    25          0.915              1.119              0.524
 Vibration    26          0.961              1.027              0.446

 Optimization completed.
    -- Stationary point found.
 Normal termination of Gaussian 16 at Fri Dec 11 01:54:39 2020.

 ----------------------------------------------------------------------
 # B3LYP/6-311++G(d,p) empiricaldispersion=gd3bj scf=xqc pop=npa geom=c
 heck
 ----------------------------------------------------------------------

 ---------------------------------------
 CID_115449044_JID_6973_Energie_neutraal
 ---------------------------------------
 Structure from the checkpoint file:  "JID_6973.chk"
 Charge =  0 Multiplicity = 1

 SCF Done:  E(RB3LYP) =  -676.101580105     A.U. after   13 cycles
 Normal termination of Gaussian 16 at Fri Dec 11 02:01:40 2020.

 ----------------------------------------------------------------------
 # B3LYP/6-311++G(d,p) empiricaldispersion=gd3bj scf=xqc pop=npa geom=c
 heck
 ----------------------------------------------------------------------

 -------------------------------------
 CID_115449044_JID_6973_Energie_kation
 -------------------------------------
 Structure from the checkpoint file:  "JID_6973.chk"
 Charge =  1 Multiplicity = 2

 SCF Done:  E(UB3LYP) =  -675.843315321     A.U. after   22 cycles
 Normal termination of Gaussian 16 at Fri Dec 11 02:17:27 2020.
 Gaussian 16:  ES64L-G16RevA.03 25-Dec-2016

 ----------------------------------------------------------------------
 # B3LYP/6-311++G(d,p) empiricaldispersion=gd3bj scf=xqc pop=npa geom=c
 heck
 ----------------------------------------------------------------------

 ------------------------------------
 CID_115449044_JID_6973_Energie_anion
 ------------------------------------
 Structure from the checkpoint file:  "JID_6973.chk"
 Charge = -1 Multiplicity = 2

                         Standard orientation:
 ---------------------------------------------------------------------
 Center     Atomic      Atomic             Coordinates (Angstroms)
 Number     Number       Type             X           Y           Z
 ---------------------------------------------------------------------
      1          6           0        4.372618    0.992089   -1.505530
      2          7           0        3.410268    0.648103   -0.481258
      3          6           0        3.955891    0.634434    0.872718
      4          6           0        2.855314   -0.050871    1.706585
      5          6           0        2.023575   -0.859565    0.668014
      6          6           0        2.803160   -0.671127   -0.642514
      7          6           0        0.602420   -0.286003    0.551436
      8          7           0       -0.207352   -0.945839   -0.454528
      9          6           0       -0.490313   -2.344460   -0.176982
     10          6           0       -1.277995   -0.143812   -1.031302
     11          6           0       -2.396462    0.409546   -0.124961
     12          6           0       -2.041594    1.602992    0.818097
     13          6           0       -3.304205    2.353550    0.326848
     14          6           0       -3.382955    1.370581   -0.868114
     15          6           0       -3.146951   -0.680868    0.644914
     16          7           0       -3.702204   -1.695064   -0.259374
     17          1           0        4.766376    1.998766   -1.325088
     18          1           0        5.230843    0.290427   -1.543330
     19          1           0        3.886958    0.987308   -2.487363
     20          1           0        4.894840    0.045156    0.922228
     21          1           0        4.189286    1.652016    1.206425
     22          1           0        2.222377    0.691005    2.206556
     23          1           0        3.283136   -0.688131    2.485884
     24          1           0        1.974241   -1.917226    0.943504
     25          1           0        2.146903   -0.701568   -1.517881
     26          1           0        3.573116   -1.461672   -0.757370
     27          1           0        0.131629   -0.311194    1.555478
     28          1           0        0.701826    0.767794    0.269961
     29          1           0       -0.811449   -2.529919    0.865084
     30          1           0       -1.292220   -2.691767   -0.829947
     31          1           0        0.401203   -2.959625   -0.354419
     32          1           0       -0.807646    0.719914   -1.523517
     33          1           0       -1.748358   -0.741676   -1.818953
     34          1           0       -1.966821    1.381504    1.888579
     35          1           0       -1.121561    2.106026    0.506542
     36          1           0       -3.192101    3.415892    0.089949
     37          1           0       -4.149907    2.243364    1.012491
     38          1           0       -2.931005    1.785087   -1.776063
     39          1           0       -4.371921    0.977234   -1.131956
     40          1           0       -2.448023   -1.181286    1.323421
     41          1           0       -3.909914   -0.199910    1.284179
     42          1           0       -4.173036   -2.417367    0.282250
     43          1           0       -4.418764   -1.269465   -0.845770
 ---------------------------------------------------------------------

 SCF Done:  E(UB3LYP) =  -676.087788067     A.U. after   30 cycles

 The electronic state is 2-A.
 Alpha  occ. eigenvalues --  -14.21186 -14.19923 -14.19018 -10.09952 -10.09824
 Alpha  occ. eigenvalues --  -10.09098 -10.09003 -10.08846 -10.08733 -10.08063
 Alpha  occ. eigenvalues --  -10.07789 -10.07723 -10.07544 -10.07075 -10.06854
 Alpha  occ. eigenvalues --  -10.06814  -0.84537  -0.82103  -0.78535  -0.74381
 Alpha  occ. eigenvalues --   -0.70043  -0.64213  -0.62425  -0.60536  -0.58622
 Alpha  occ. eigenvalues --   -0.57253  -0.56048  -0.52156  -0.49164  -0.48662
 Alpha  occ. eigenvalues --   -0.45793  -0.42991  -0.40792  -0.40025  -0.39693
 Alpha  occ. eigenvalues --   -0.38546  -0.37567  -0.36419  -0.35947  -0.35134
 Alpha  occ. eigenvalues --   -0.34017  -0.33340  -0.32449  -0.31281  -0.30029
 Alpha  occ. eigenvalues --   -0.29387  -0.29068  -0.28433  -0.27832  -0.26886
 Alpha  occ. eigenvalues --   -0.26664  -0.26191  -0.25618  -0.24718  -0.23761
 Alpha  occ. eigenvalues --   -0.23360  -0.22718  -0.22118  -0.20458  -0.20172
 Alpha  occ. eigenvalues --   -0.14408  -0.13004  -0.10378   0.04163
 Alpha virt. eigenvalues --    0.05546   0.06719   0.07048   0.07685   0.07991
 Alpha virt. eigenvalues --    0.08089   0.09199   0.09429   0.09550   0.10049
 Alpha virt. eigenvalues --    0.10303   0.10672   0.11006   0.11892   0.12258

  Beta  occ. eigenvalues --  -14.21176 -14.19920 -14.18974 -10.09936 -10.09805
  Beta  occ. eigenvalues --  -10.09089 -10.08999 -10.08822 -10.08727 -10.08048
  Beta  occ. eigenvalues --  -10.07791 -10.07719 -10.07533 -10.07060 -10.06831
  Beta  occ. eigenvalues --  -10.06808  -0.84520  -0.82092  -0.78476  -0.74349
  Beta  occ. eigenvalues --   -0.70025  -0.64191  -0.62400  -0.60511  -0.58571
  Beta  occ. eigenvalues --   -0.57214  -0.56009  -0.52110  -0.49127  -0.48621
  Beta  occ. eigenvalues --   -0.45768  -0.42947  -0.40759  -0.39992  -0.39660
  Beta  occ. eigenvalues --   -0.38512  -0.37545  -0.36386  -0.35918  -0.35108
  Beta  occ. eigenvalues --   -0.33979  -0.33290  -0.32427  -0.31258  -0.30006
  Beta  occ. eigenvalues --   -0.29363  -0.29047  -0.28407  -0.27810  -0.26868
  Beta  occ. eigenvalues --   -0.26643  -0.26168  -0.25600  -0.24697  -0.23742
  Beta  occ. eigenvalues --   -0.23342  -0.22701  -0.22097  -0.20437  -0.20150
  Beta  occ. eigenvalues --   -0.14363  -0.12948  -0.10360
  Beta virt. eigenvalues --    0.05906   0.06654   0.07090   0.07388   0.08137
  Beta virt. eigenvalues --    0.08365   0.08441   0.09396   0.09591   0.10010
  Beta virt. eigenvalues --    0.10335   0.10508   0.10760   0.11189   0.12137

 Mulliken charges and spin densities:
               1          2
     1  C    0.306027  -0.576929
     2  N    0.110265   0.110864
     3  C    0.150066  -0.503546
     4  C   -0.161636  -0.420542
     5  C   -1.080007   1.346888
     6  C   -0.154325  -0.486148
     7  C   -0.248110  -0.731227
     8  N    0.275407   0.011918
     9  C   -0.048848  -0.297049
    10  C   -0.446328  -0.220996
    11  C   -0.693429   1.835589
    12  C   -0.079818  -0.117707
    13  C    0.809545  -1.277749
    14  C   -0.345795   0.074100
    15  C    1.961875  -2.930343
    16  N   -0.711858   0.395182
    17  H   -0.137001   0.270806
    18  H   -0.045310   0.145008
    19  H   -0.066551   0.195678
    20  H    0.044558   0.063363
    21  H   -0.172193   0.339939
    22  H    0.092299   0.031074
    23  H   -0.201494   0.339019
    24  H    0.013611   0.213029
    25  H    0.210819  -0.009483
    26  H   -0.072973   0.179894
    27  H   -0.006412   0.134575
    28  H    0.105846   0.102043
    29  H   -0.054878   0.162038
    30  H    0.127125   0.055047
    31  H   -0.057500   0.181363
    32  H    0.115250   0.069026
    33  H    0.122747   0.053772
    34  H    0.010674   0.152975
    35  H    0.109875  -0.023158
    36  H    0.024274   0.117642
    37  H   -0.058698   0.194473
    38  H   -0.040406   0.163708
    39  H   -0.314816   0.455299
    40  H    0.153303   0.040858
    41  H   -0.342264   0.498662
    42  H   -0.148146   0.391207
    43  H   -0.054768   0.269837
 Sum of Mulliken charges =  -1.00000   1.00000

 Dipole moment (field-independent basis, Debye):
    X=              3.7038    Y=              1.1860    Z=             -0.5932  Tot=              3.9340
 Quadrupole moment (field-independent basis, Debye-Ang):
   XX=           -212.0466   YY=           -146.3720   ZZ=           -138.3237
   XY=             -9.8330   XZ=              1.8412   YZ=              1.5724

 Summary of Natural Population Analysis:

                                       Natural Population
                Natural  -----------------------------------------------
    Atom  No    Charge         Core      Valence    Rydberg      Total
 -----------------------------------------------------------------------
      C    1   -0.17263      0.99965     2.16611    0.00686     3.17263
      N    2   -0.28020      0.99972     2.76872    0.01177     3.78020
      C    3   -0.08337      0.99963     2.07245    0.01129     3.08337
      C    4   -0.19123      0.99962     2.18334    0.00827     3.19123
      C    5   -0.11856      0.99959     2.10796    0.01100     3.11856
      C    6   -0.08558      0.99960     2.07402    0.01195     3.08558
      C    7   -0.08032      0.99959     2.06955    0.01118     3.08032
      N    8   -0.28568      0.99971     2.77372    0.01225     3.78568
      C    9   -0.17884      0.99964     2.17091    0.00830     3.17884
      C   10   -0.07462      0.99955     2.06223    0.01284     3.07462
      C   11   -0.04974      0.99955     2.03493    0.01526     3.04974
      C   12   -0.18600      0.99960     2.17798    0.00842     3.18600
      C   13   -0.19237      0.99965     2.18443    0.00829     3.19237
      C   14   -0.18657      0.99960     2.17793    0.00904     3.18657
      C   15   -0.08891      0.99955     2.07633    0.01303     3.08891
      N   16   -0.42626      0.99977     2.91516    0.01132     3.92626
      H   17    0.09445      0.00000     0.40431    0.00123     0.40555
      H   18    0.07746      0.00000     0.42055    0.00199     0.42254
      H   19    0.09522      0.00000     0.40367    0.00111     0.40478
      H   20    0.07672      0.00000     0.42152    0.00176     0.42328
      H   21    0.09544      0.00000     0.40342    0.00115     0.40456
      H   22    0.09845      0.00000     0.40040    0.00115     0.40155
      H   23    0.09997      0.00000     0.39912    0.00091     0.40003
      H   24    0.09991      0.00000     0.39883    0.00125     0.40009
      H   25    0.10491      0.00000     0.39336    0.00173     0.39509
      H   26    0.07855      0.00000     0.42002    0.00143     0.42145
      H   27    0.08093      0.00000     0.41703    0.00204     0.41907
      H   28    0.09940      0.00000     0.39834    0.00226     0.40060
      H   29    0.07998      0.00000     0.41888    0.00114     0.42002
      H   30    0.10847      0.00000     0.39032    0.00121     0.39153
      H   31    0.08752      0.00000     0.41139    0.00109     0.41248
      H   32    0.09144      0.00000     0.40730    0.00126     0.40856
      H   33    0.10284      0.00000     0.39581    0.00135     0.39716
      H   34    0.09798      0.00000     0.40098    0.00104     0.40202
      H   35    0.09770      0.00000     0.40074    0.00157     0.40230
      H   36    0.09334      0.00000     0.40572    0.00094     0.40666
      H   37    0.09724      0.00000     0.40127    0.00149     0.40276
      H   38    0.09657      0.00000     0.40231    0.00111     0.40343
      H   39    0.09729      0.00000     0.40131    0.00140     0.40271
      H   40    0.09305      0.00000     0.40484    0.00211     0.40695
      H   41    0.08305      0.00000     0.41453    0.00242     0.41695
      H   42    0.17852      0.00000     0.31878    0.00270     0.32148
      H   43    0.17450      0.00000     0.32288    0.00262     0.32550
 =======================================================================
   * Total *    0.00000     15.99403    46.79344    0.21253    63.00000

 Normal termination of Gaussian 16 at Fri Dec 11 02:38:23 2020.
