 Gaussian 16, Revision A.03,

 -----------------------------------------------------------
 # opt freq B3LYP/6-31G(d) empiricaldispersion=gd3bj scf=xqc
 -----------------------------------------------------------

 ------------------------------
 CID_62591420_JID_8562_neutraal
 ------------------------------
 Symbolic Z-matrix:
 Charge =  0 Multiplicity = 1

 SCF Done:  E(RB3LYP) =  -802.884704751     A.U. after   14 cycles
 SCF Done:  E(RB3LYP) =  -802.891441443     A.U. after   12 cycles
 SCF Done:  E(RB3LYP) =  -802.893157919     A.U. after   12 cycles
 SCF Done:  E(RB3LYP) =  -802.894489099     A.U. after   14 cycles
 SCF Done:  E(RB3LYP) =  -802.894992904     A.U. after   12 cycles
 SCF Done:  E(RB3LYP) =  -802.895276950     A.U. after   12 cycles
 SCF Done:  E(RB3LYP) =  -802.895429967     A.U. after   11 cycles
 SCF Done:  E(RB3LYP) =  -802.895511870     A.U. after   11 cycles
 SCF Done:  E(RB3LYP) =  -802.895618897     A.U. after   12 cycles
 SCF Done:  E(RB3LYP) =  -802.895715373     A.U. after   12 cycles
 SCF Done:  E(RB3LYP) =  -802.901978915     A.U. after    9 cycles
 SCF Done:  E(RB3LYP) =  -802.901980488     A.U. after    8 cycles
 SCF Done:  E(RB3LYP) =  -802.901980768     A.U. after    7 cycles
 SCF Done:  E(RB3LYP) =  -802.901980838     A.U. after    7 cycles
 SCF Done:  E(RB3LYP) =  -802.901980851     A.U. after    6 cycles
 Optimization completed.
    -- Stationary point found.
 Normal termination of Gaussian 16 at Fri Dec 11 21:34:30 2020.

 --------------------------------------------------------------------
 #N Geom=AllCheck Guess=TCheck SCRF=Check GenChk RB3LYP/6-31G(d) Freq
 --------------------------------------------------------------------

 Structure from the checkpoint file:  "JID_8562.chk"
 ------------------------------
 CID_62591420_JID_8562_neutraal
 ------------------------------
 Charge =  0 Multiplicity = 1

 SCF Done:  E(RB3LYP) =  -802.901980851     A.U. after    1 cycles

  Exact polarizability: 223.084 -18.315 171.331  -7.282  -5.915 110.773
 Approx polarizability: 283.818 -23.450 262.722 -14.068 -13.637 175.844

                      1                      2                      3
                      A                      A                      A
 Frequencies --     18.4902                26.8829                34.5341
 Red. masses --      4.6829                 4.7278                 3.9045
 Frc consts  --      0.0009                 0.0020                 0.0027
 IR Inten    --      0.0759                 0.1546                 0.0921

                      4                      5                      6
                      A                      A                      A
 Frequencies --     47.9862                84.3507                94.9840
 Red. masses --      3.8436                 2.7058                 2.9680
 Frc consts  --      0.0052                 0.0113                 0.0158
 IR Inten    --      0.7264                 2.2597                 0.9828

                      7                      8                      9
                      A                      A                      A
 Frequencies --    120.6373               133.2740               167.5908
 Red. masses --      3.4029                 3.2948                 2.7352
 Frc consts  --      0.0292                 0.0345                 0.0453
 IR Inten    --      3.5354                 0.6324                 1.0153

                     10                     11                     12
                      A                      A                      A
 Frequencies --    180.7023               225.6751               236.7847
 Red. masses --      3.7373                 1.9479                 1.9599
 Frc consts  --      0.0719                 0.0585                 0.0647
 IR Inten    --      0.2855                 2.3024                 0.9380

                     13                     14                     15
                      A                      A                      A
 Frequencies --    270.4497               277.3582               312.2700
 Red. masses --      2.9477                 1.8815                 2.4693
 Frc consts  --      0.1270                 0.0853                 0.1419
 IR Inten    --      6.2564                 4.1001                 1.6851

                     16                     17                     18
                      A                      A                      A
 Frequencies --    323.6836               337.7676               348.6400
 Red. masses --      2.4285                 2.4700                 2.5039
 Frc consts  --      0.1499                 0.1660                 0.1793
 IR Inten    --      3.0567                 3.9148                 1.8439

                     19                     20                     21
                      A                      A                      A
 Frequencies --    412.7543               431.0510               448.8381
 Red. masses --      2.2226                 4.3504                 2.8999
 Frc consts  --      0.2231                 0.4762                 0.3442
 IR Inten    --      0.6700                11.5994                 2.2147

                     22                     23                     24
                      A                      A                      A
 Frequencies --    464.6992               511.0991               543.1314
 Red. masses --      3.8529                 2.9614                 4.4496
 Frc consts  --      0.4902                 0.4558                 0.7734
 IR Inten    --      3.2543                 1.6650                 5.4264

                     25                     26                     27
                      A                      A                      A
 Frequencies --    588.1864               616.2395               630.6350
 Red. masses --      4.1798                 2.9273                 4.8712
 Frc consts  --      0.8520                 0.6550                 1.1414
 IR Inten    --      2.2319                 0.3638                10.3187

                     28                     29                     30
                      A                      A                      A
 Frequencies --    666.5221               758.1853               767.9972
 Red. masses --      2.3865                 1.8836                 2.6436
 Frc consts  --      0.6247                 0.6380                 0.9187
 IR Inten    --      8.5462                40.9822                 2.8655

                     31                     32                     33
                      A                      A                      A
 Frequencies --    782.1273               821.5152               831.8819
 Red. masses --      3.6279                 1.9593                 1.6852
 Frc consts  --      1.3076                 0.7791                 0.6871
 IR Inten    --     18.3168                17.4985                15.9973

                     34                     35                     36
                      A                      A                      A
 Frequencies --    839.2511               862.2243               906.4559
 Red. masses --      1.6270                 1.8814                 1.4520
 Frc consts  --      0.6752                 0.8241                 0.7029
 IR Inten    --     25.3966                20.2766                 3.4211

                     37                     38                     39
                      A                      A                      A
 Frequencies --    907.9806               926.5060               939.2545
 Red. masses --      1.8930                 2.5134                 2.5862
 Frc consts  --      0.9195                 1.2712                 1.3443
 IR Inten    --     20.2598                 8.2979                10.5227

                     40                     41                     42
                      A                      A                      A
 Frequencies --    966.1209               972.7929               974.2807
 Red. masses --      1.3656                 2.3490                 1.9151
 Frc consts  --      0.7510                 1.3097                 1.0711
 IR Inten    --      0.2536                 3.0091                46.2523

                     43                     44                     45
                      A                      A                      A
 Frequencies --   1015.3492              1034.3551              1043.3192
 Red. masses --      5.3706                 1.6656                 2.4861
 Frc consts  --      3.2621                 1.0499                 1.5944
 IR Inten    --     22.7693                 1.3979                 3.4418

                     46                     47                     48
                      A                      A                      A
 Frequencies --   1057.9307              1074.4500              1104.0210
 Red. masses --      2.4588                 2.1753                 2.1309
 Frc consts  --      1.6214                 1.4796                 1.5302
 IR Inten    --     18.0979                 7.9185                 9.9256

                     49                     50                     51
                      A                      A                      A
 Frequencies --   1106.6597              1130.4518              1137.8674
 Red. masses --      1.8400                 1.7218                 1.6577
 Frc consts  --      1.3277                 1.2964                 1.2646
 IR Inten    --      1.8183                 4.6092                19.1326

                     52                     53                     54
                      A                      A                      A
 Frequencies --   1157.7705              1166.5720              1174.2356
 Red. masses --      3.3894                 3.1789                 2.6768
 Frc consts  --      2.6768                 2.5489                 2.1746
 IR Inten    --     65.2580               108.6091                34.1124

                     55                     56                     57
                      A                      A                      A
 Frequencies --   1185.2244              1196.4695              1202.2403
 Red. masses --      3.6631                 1.3276                 1.9054
 Frc consts  --      3.0318                 1.1198                 1.6227
 IR Inten    --     17.1750                 4.8104                30.0601

                     58                     59                     60
                      A                      A                      A
 Frequencies --   1215.5640              1237.0970              1263.8126
 Red. masses --      1.2876                 1.2848                 1.4447
 Frc consts  --      1.1209                 1.1585                 1.3596
 IR Inten    --     32.1823                 4.5641                21.7376

                     61                     62                     63
                      A                      A                      A
 Frequencies --   1272.3584              1273.5508              1284.4795
 Red. masses --      1.1853                 2.2616                 3.1813
 Frc consts  --      1.1306                 2.1612                 3.0925
 IR Inten    --     21.3239                32.3704                 5.7950

                     64                     65                     66
                      A                      A                      A
 Frequencies --   1293.3197              1318.9521              1336.5119
 Red. masses --      1.3373                 1.2771                 1.2279
 Frc consts  --      1.3179                 1.3090                 1.2923
 IR Inten    --    110.5649                48.8999                10.9587

                     67                     68                     69
                      A                      A                      A
 Frequencies --   1351.7653              1360.3613              1384.7755
 Red. masses --      1.3731                 1.5372                 1.2634
 Frc consts  --      1.4783                 1.6760                 1.4274
 IR Inten    --      7.1084                59.6719                 7.9146

                     70                     71                     72
                      A                      A                      A
 Frequencies --   1389.2065              1408.5405              1412.1455
 Red. masses --      1.4781                 1.3410                 1.3953
 Frc consts  --      1.6806                 1.5675                 1.6393
 IR Inten    --     10.5728                16.4094                 6.9517

                     73                     74                     75
                      A                      A                      A
 Frequencies --   1414.6340              1426.8971              1429.5426
 Red. masses --      1.4198                 1.6444                 1.3958
 Frc consts  --      1.6741                 1.9727                 1.6807
 IR Inten    --      1.9089                19.0296                 4.5838

                     76                     77                     78
                      A                      A                      A
 Frequencies --   1441.8202              1445.3985              1480.5506
 Red. masses --      1.4597                 1.4101                 2.5590
 Frc consts  --      1.7879                 1.7357                 3.3049
 IR Inten    --     16.7645                 8.9972               159.6009

                     79                     80                     81
                      A                      A                      A
 Frequencies --   1501.6367              1506.7171              1509.8878
 Red. masses --      1.1708                 1.0987                 1.0882
 Frc consts  --      1.5555                 1.4695                 1.4617
 IR Inten    --      9.5421                17.1062                 9.2102

                     82                     83                     84
                      A                      A                      A
 Frequencies --   1515.2826              1523.6438              1527.0822
 Red. masses --      1.0486                 1.1090                 1.1891
 Frc consts  --      1.4185                 1.5169                 1.6338
 IR Inten    --      4.3131                17.7532                64.4684

                     85                     86                     87
                      A                      A                      A
 Frequencies --   1528.7476              1530.7077              1535.5622
 Red. masses --      1.1461                 1.1038                 1.5359
 Frc consts  --      1.5781                 1.5237                 2.1338
 IR Inten    --     30.3374                27.7730               147.4093

                     88                     89                     90
                      A                      A                      A
 Frequencies --   1538.8365              1546.1800              1551.8296
 Red. masses --      1.1243                 1.3396                 1.0923
 Frc consts  --      1.5686                 1.8868                 1.5498
 IR Inten    --      9.8103                17.3618                 3.6720

                     91                     92                     93
                      A                      A                      A
 Frequencies --   1586.1324              1632.0294              2970.9814
 Red. masses --      6.4257                 5.4424                 1.0712
 Frc consts  --      9.5246                 8.5408                 5.5708
 IR Inten    --     32.5106               169.9785                21.1179

                     94                     95                     96
                      A                      A                      A
 Frequencies --   2976.2669              2984.4740              2986.9408
 Red. masses --      1.0745                 1.0740                 1.0473
 Frc consts  --      5.6077                 5.6362                 5.5051
 IR Inten    --     63.4099                71.1586                27.2150

                     97                     98                     99
                      A                      A                      A
 Frequencies --   2998.6311              3030.0520              3031.6282
 Red. masses --      1.0450                 1.1012                 1.0723
 Frc consts  --      5.5362                 5.9568                 5.8063
 IR Inten    --    108.2610                98.7168                21.7686

                    100                    101                    102
                      A                      A                      A
 Frequencies --   3036.8514              3039.4517              3046.5912
 Red. masses --      1.0720                 1.1054                 1.0649
 Frc consts  --      5.8249                 6.0166                 5.8235
 IR Inten    --     17.0232                45.9776                45.6424

                    103                    104                    105
                      A                      A                      A
 Frequencies --   3056.2660              3057.4430              3082.4232
 Red. masses --      1.0870                 1.0713                 1.1039
 Frc consts  --      5.9823                 5.9005                 6.1799
 IR Inten    --     60.0872                36.6143                42.7310

                    106                    107                    108
                      A                      A                      A
 Frequencies --   3086.3828              3094.8512              3131.4540
 Red. masses --      1.0972                 1.1020                 1.0890
 Frc consts  --      6.1580                 6.2191                 6.2916
 IR Inten    --     61.7375                29.6613                20.2467

                    109                    110                    111
                      A                      A                      A
 Frequencies --   3138.7575              3167.1517              3175.1176
 Red. masses --      1.0971                 1.0887                 1.0880
 Frc consts  --      6.3683                 6.4345                 6.4625
 IR Inten    --     27.6916                26.3640                 4.0294

                    112                    113                    114
                      A                      A                      A
 Frequencies --   3199.2612              3209.6483              3514.2484
 Red. masses --      1.0935                 1.0905                 1.0732
 Frc consts  --      6.5940                 6.6190                 7.8091
 IR Inten    --     55.5784                11.4285                 3.2402

 - Thermochemistry -
 -------------------
 Temperature   298.150 Kelvin.  Pressure   1.00000 Atm.
 Atom     1 has atomic number  6 and mass  12.00000

 Molecular mass:   250.17936 amu.
 Principal axes and moments of inertia in atomic units:
                           1         2         3
     Eigenvalues --  2045.53743********************
           X            0.99997   0.00710   0.00034
           Y           -0.00710   0.99997   0.00289
           Z           -0.00032  -0.00289   1.00000
 This molecule is an asymmetric top.
 Rotational symmetry number  1.
 Warning -- assumption of classical behavior for rotation
           may cause significant error
 Rotational temperatures (Kelvin)      0.04234     0.00798     0.00700
 Rotational constants (GHZ):           0.88228     0.16626     0.14588
 Zero-point vibrational energy     930629.7 (Joules/Mol)
                                  222.42584 (Kcal/Mol)
 Warning -- explicit consideration of  26 degrees of freedom as
           vibrations may cause significant error
 Vibrational temperatures:     26.60    38.68    49.69    69.04   121.36
          (Kelvin)            136.66   173.57   191.75   241.13   259.99
                              324.70   340.68   389.12   399.06   449.29
                              465.71   485.97   501.62   593.86   620.19
                              645.78   668.60   735.36   781.44   846.27
                              886.63   907.34   958.98  1090.86  1104.98
                             1125.31  1181.98  1196.89  1207.50  1240.55
                             1304.19  1306.38  1333.04  1351.38  1390.03
                             1399.63  1401.77  1460.86  1488.21  1501.10
                             1522.13  1545.89  1588.44  1592.24  1626.47
                             1637.14  1665.77  1678.44  1689.46  1705.27
                             1721.45  1729.76  1748.93  1779.91  1818.34
                             1830.64  1832.36  1848.08  1860.80  1897.68
                             1922.94  1944.89  1957.26  1992.38  1998.76
                             2026.58  2031.76  2035.34  2052.99  2056.79
                             2074.46  2079.61  2130.18  2160.52  2167.83
                             2172.39  2180.15  2192.18  2197.13  2199.53
                             2202.35  2209.33  2214.04  2224.61  2232.74
                             2282.09  2348.13  4274.58  4282.18  4293.99
                             4297.54  4314.36  4359.57  4361.84  4369.35
                             4373.09  4383.37  4397.29  4398.98  4434.92
                             4440.62  4452.80  4505.46  4515.97  4556.82
                             4568.29  4603.02  4617.97  5056.22

 Zero-point correction=                           0.354458 (Hartree/Particle)
 Thermal correction to Energy=                    0.371901
 Thermal correction to Enthalpy=                  0.372845
 Thermal correction to Gibbs Free Energy=         0.306489
 Sum of electronic and zero-point Energies=           -802.547523
 Sum of electronic and thermal Energies=              -802.530080
 Sum of electronic and thermal Enthalpies=            -802.529136
 Sum of electronic and thermal Free Energies=         -802.595492

                     E (Thermal)             CV                S
                      KCal/Mol        Cal/Mol-Kelvin    Cal/Mol-Kelvin
 Total                  233.371             65.931            139.658
 Electronic               0.000              0.000              0.000
 Translational            0.889              2.981             42.451
 Rotational               0.889              2.981             33.973
 Vibrational            231.594             59.969             63.233
 Vibration     1          0.593              1.986              6.790
 Vibration     2          0.593              1.984              6.047
 Vibration     3          0.594              1.983              5.550
 Vibration     4          0.595              1.978              4.899
 Vibration     5          0.601              1.960              3.787
 Vibration     6          0.603              1.953              3.555
 Vibration     7          0.609              1.932              3.090
 Vibration     8          0.613              1.920              2.898
 Vibration     9          0.624              1.882              2.462
 Vibration    10          0.630              1.866              2.321
 Vibration    11          0.650              1.802              1.913
 Vibration    12          0.656              1.784              1.827
 Vibration    13          0.674              1.728              1.593
 Vibration    14          0.678              1.715              1.550
 Vibration    15          0.701              1.650              1.350
 Vibration    16          0.708              1.628              1.291
 Vibration    17          0.718              1.600              1.223
 Vibration    18          0.726              1.578              1.172
 Vibration    19          0.777              1.443              0.917
 Vibration    20          0.792              1.403              0.855
 Vibration    21          0.808              1.363              0.799
 Vibration    22          0.822              1.328              0.753
 Vibration    23          0.866              1.225              0.631
 Vibration    24          0.898              1.155              0.559
 Vibration    25          0.945              1.057              0.470
 Vibration    26          0.976              0.998              0.423

 Optimization completed.
    -- Stationary point found.
 Normal termination of Gaussian 16 at Fri Dec 11 21:50:25 2020.

 ----------------------------------------------------------------------
 # B3LYP/6-311++G(d,p) empiricaldispersion=gd3bj scf=xqc pop=npa geom=c
 heck
 ----------------------------------------------------------------------

 --------------------------------------
 CID_62591420_JID_8562_Energie_neutraal
 --------------------------------------
 Structure from the checkpoint file:  "JID_8562.chk"
 Charge =  0 Multiplicity = 1

 SCF Done:  E(RB3LYP) =  -803.123342248     A.U. after   15 cycles
 Normal termination of Gaussian 16 at Fri Dec 11 21:57:23 2020.

 ----------------------------------------------------------------------
 # B3LYP/6-311++G(d,p) empiricaldispersion=gd3bj scf=xqc pop=npa geom=c
 heck
 ----------------------------------------------------------------------

 ------------------------------------
 CID_62591420_JID_8562_Energie_kation
 ------------------------------------
 Structure from the checkpoint file:  "JID_8562.chk"
 Charge =  1 Multiplicity = 2

 SCF Done:  E(UB3LYP) =  -802.852535844     A.U. after   22 cycles
 Normal termination of Gaussian 16 at Fri Dec 11 22:12:02 2020.
 Gaussian 16:  ES64L-G16RevA.03 25-Dec-2016

 ----------------------------------------------------------------------
 # B3LYP/6-311++G(d,p) empiricaldispersion=gd3bj scf=xqc pop=npa geom=c
 heck
 ----------------------------------------------------------------------

 -----------------------------------
 CID_62591420_JID_8562_Energie_anion
 -----------------------------------
 Structure from the checkpoint file:  "JID_8562.chk"
 Charge = -1 Multiplicity = 2

                         Standard orientation:
 ---------------------------------------------------------------------
 Center     Atomic      Atomic             Coordinates (Angstroms)
 Number     Number       Type             X           Y           Z
 ---------------------------------------------------------------------
      1          6           0       -5.065127   -2.613721   -0.112251
      2          8           0       -4.269176   -1.472172    0.120478
      3          6           0       -4.942803   -0.257607   -0.176587
      4          6           0       -3.941878    0.867248    0.014900
      5          7           0       -2.854475    0.711358   -0.942396
      6          6           0       -1.711369    1.593753   -0.742199
      7          6           0       -1.001996    1.529839    0.633229
      8          6           0        0.275537    2.383001    0.642216
      9          6           0        1.422967    1.771493   -0.172943
     10          7           0        1.668840    0.382949    0.206121
     11          6           0        0.486386   -0.487149    0.207570
     12          6           0       -0.634529    0.100979    1.061546
     13          6           0        2.911100   -0.188629    0.016782
     14          7           0        3.027322   -1.508690    0.254832
     15          6           0        4.239213   -2.053105    0.136821
     16          6           0        5.360105   -1.315914   -0.228148
     17          7           0        5.256156   -0.007448   -0.505771
     18          6           0        4.056293    0.548789   -0.394744
     19          1           0       -4.458964   -3.488120    0.137666
     20          1           0       -5.378123   -2.681811   -1.166091
     21          1           0       -5.968709   -2.612351    0.517985
     22          1           0       -5.304091   -0.268601   -1.217134
     23          1           0       -5.809810   -0.125776    0.491091
     24          1           0       -4.438746    1.831136   -0.159701
     25          1           0       -3.618983    0.854360    1.070603
     26          1           0       -2.554530   -0.260546   -0.917269
     27          1           0       -0.997687    1.373350   -1.544181
     28          1           0       -2.044431    2.628066   -0.907679
     29          1           0       -1.685766    1.946496    1.383571
     30          1           0        0.073496    3.389512    0.253515
     31          1           0        0.618550    2.500414    1.677592
     32          1           0        1.218195    1.845723   -1.254148
     33          1           0        2.320608    2.359501    0.022457
     34          1           0        0.794167   -1.459622    0.586163
     35          1           0        0.141371   -0.637906   -0.829917
     36          1           0       -0.304731    0.115633    2.107858
     37          1           0       -1.507160   -0.560564    1.011220
     38          1           0        4.311144   -3.121211    0.336466
     39          1           0        6.342171   -1.772159   -0.318375
     40          1           0        3.997138    1.600820   -0.652157
 ---------------------------------------------------------------------

 SCF Done:  E(UB3LYP) =  -803.115051829     A.U. after   33 cycles
 SCF Done:  E(UB3LYP) =  -803.118456442     a.u. after    6 cycles

 The electronic state is 2-A.
 Alpha  occ. eigenvalues --  -19.04142 -14.22635 -14.20517 -14.17915 -14.17528
 Alpha  occ. eigenvalues --  -10.12713 -10.12533 -10.12370 -10.11108 -10.10444
 Alpha  occ. eigenvalues --  -10.10262 -10.09534 -10.08538 -10.08428 -10.08050
 Alpha  occ. eigenvalues --  -10.07519 -10.07344 -10.07327  -0.95412  -0.87029
 Alpha  occ. eigenvalues --   -0.82735  -0.81767  -0.77006  -0.71997  -0.67074
 Alpha  occ. eigenvalues --   -0.66752  -0.64079  -0.59843  -0.57899  -0.55580
 Alpha  occ. eigenvalues --   -0.54963  -0.51583  -0.51446  -0.49879  -0.45155
 Alpha  occ. eigenvalues --   -0.42961  -0.41553  -0.40436  -0.40129  -0.39747
 Alpha  occ. eigenvalues --   -0.38287  -0.37337  -0.36768  -0.35435  -0.34931
 Alpha  occ. eigenvalues --   -0.34826  -0.33855  -0.32846  -0.31628  -0.30698
 Alpha  occ. eigenvalues --   -0.29868  -0.29599  -0.28889  -0.27649  -0.27063
 Alpha  occ. eigenvalues --   -0.26886  -0.26411  -0.25149  -0.24014  -0.23461
 Alpha  occ. eigenvalues --   -0.22753  -0.21063  -0.17983  -0.17862  -0.17341
 Alpha  occ. eigenvalues --   -0.13638  -0.12208  -0.09992   0.04054
 Alpha virt. eigenvalues --    0.05103   0.06163   0.07112   0.07703   0.08270
 Alpha virt. eigenvalues --    0.08545   0.09075   0.09177   0.10170   0.10363
 Alpha virt. eigenvalues --    0.10717   0.10866   0.11069   0.11381   0.12031

  Beta  occ. eigenvalues --  -19.04133 -14.22644 -14.20513 -14.17497 -14.17182
  Beta  occ. eigenvalues --  -10.12689 -10.12540 -10.12332 -10.11102 -10.10434
  Beta  occ. eigenvalues --  -10.10257 -10.09533 -10.08537 -10.08427 -10.07956
  Beta  occ. eigenvalues --  -10.07433 -10.07383 -10.07323  -0.95397  -0.86826
  Beta  occ. eigenvalues --   -0.82446  -0.81718  -0.76391  -0.71950  -0.67058
  Beta  occ. eigenvalues --   -0.66714  -0.63903  -0.59786  -0.57838  -0.55416
  Beta  occ. eigenvalues --   -0.54918  -0.51463  -0.51170  -0.49786  -0.45111
  Beta  occ. eigenvalues --   -0.42888  -0.41521  -0.40407  -0.40086  -0.39600
  Beta  occ. eigenvalues --   -0.38166  -0.37297  -0.36735  -0.35379  -0.34881
  Beta  occ. eigenvalues --   -0.34792  -0.33807  -0.32782  -0.31569  -0.30571
  Beta  occ. eigenvalues --   -0.29774  -0.29016  -0.28757  -0.27602  -0.26953
  Beta  occ. eigenvalues --   -0.26852  -0.26383  -0.25062  -0.23962  -0.23377
  Beta  occ. eigenvalues --   -0.22731  -0.19893  -0.17870  -0.16962  -0.16848
  Beta  occ. eigenvalues --   -0.13620  -0.11792  -0.09512
  Beta virt. eigenvalues --    0.05975   0.06530   0.07340   0.07657   0.08221
  Beta virt. eigenvalues --    0.08498   0.08959   0.09251   0.09384   0.10340
  Beta virt. eigenvalues --    0.10464   0.10705   0.10957   0.11052   0.11426

 Mulliken charges and spin densities:
               1          2
     1  C    0.585582  -0.854202
     2  O   -0.256733   0.080323
     3  C    0.543817  -0.866073
     4  C   -0.463259   0.126726
     5  N    0.063675  -0.018317
     6  C   -0.793952  -0.050642
     7  C    0.657455   0.058874
     8  C   -0.612950  -0.111812
     9  C   -0.166342  -0.115237
    10  N    0.225549   0.032162
    11  C   -0.461138  -0.092593
    12  C   -0.444334  -0.039449
    13  C   -0.430975  -0.028698
    14  N   -0.153669   0.147472
    15  C   -0.014719   0.123284
    16  C   -0.214958  -0.026236
    17  N   -0.113646   0.173774
    18  C   -0.133085   0.121760
    19  H   -0.090379   0.226146
    20  H   -0.221622   0.354584
    21  H   -0.387337   0.525556
    22  H    0.105442   0.053296
    23  H   -0.328167   0.472090
    24  H   -0.273701   0.431800
    25  H    0.175773  -0.036413
    26  H    0.239049  -0.023111
    27  H    0.087925   0.100207
    28  H    0.105311   0.035134
    29  H    0.088051   0.115926
    30  H    0.087775   0.066653
    31  H    0.173209  -0.015710
    32  H    0.133262   0.009458
    33  H    0.167559  -0.029957
    34  H    0.236374   0.000802
    35  H    0.140513   0.039676
    36  H    0.120418   0.049840
    37  H    0.213932  -0.052293
    38  H    0.135926  -0.002195
    39  H    0.137642  -0.000643
    40  H    0.136731   0.018036
 Sum of Mulliken charges =  -1.00000   1.00000

 Dipole moment (field-independent basis, Debye):
    X=              1.5195    Y=              3.8091    Z=              0.8753  Tot=              4.1933
 Quadrupole moment (field-independent basis, Debye-Ang):
   XX=           -255.6527   YY=           -137.5069   ZZ=           -133.2068
   XY=            -10.7065   XZ=              5.1777   YZ=              2.3776

 Summary of Natural Population Analysis:

                                       Natural Population
                Natural  -----------------------------------------------
    Atom  No    Charge         Core      Valence    Rydberg      Total
 -----------------------------------------------------------------------
      C    1   -0.09597      0.99962     2.08723    0.00912     3.09597
      O    2   -0.30435      0.99988     3.29433    0.01013     4.30435
      C    3   -0.01087      0.99959     1.99850    0.01278     3.01087
      C    4   -0.09728      0.99962     2.08552    0.01214     3.09728
      N    5   -0.34254      0.99975     2.83102    0.01177     3.84254
      C    6   -0.08618      0.99961     2.07524    0.01132     3.08618
      C    7   -0.12199      0.99959     2.11158    0.01083     3.12199
      C    8   -0.18971      0.99961     2.18207    0.00802     3.18971
      C    9   -0.07972      0.99962     2.07143    0.00867     3.07972
      N   10   -0.25983      0.99964     2.74847    0.01172     3.75983
      C   11   -0.08804      0.99961     2.07842    0.01000     3.08804
      C   12   -0.19935      0.99961     2.19126    0.00848     3.19935
      C   13    0.18704      0.99953     1.79703    0.01640     2.81296
      N   14   -0.21067      0.99967     2.70059    0.01041     3.71067
      C   15    0.02528      0.99960     1.96115    0.01397     2.97472
      C   16   -0.03797      0.99960     2.02344    0.01494     3.03797
      N   17   -0.16332      0.99971     2.65114    0.01246     3.66332
      C   18   -0.00695      0.99958     1.99511    0.01226     3.00695
      H   19    0.09018      0.00000     0.40885    0.00097     0.40982
      H   20    0.07866      0.00000     0.41978    0.00156     0.42134
      H   21    0.08065      0.00000     0.41716    0.00220     0.41935
      H   22    0.08137      0.00000     0.41681    0.00182     0.41863
      H   23    0.08332      0.00000     0.41476    0.00192     0.41668
      H   24    0.09318      0.00000     0.40573    0.00109     0.40682
      H   25    0.08250      0.00000     0.41570    0.00180     0.41750
      H   26    0.17746      0.00000     0.31826    0.00428     0.32254
      H   27    0.09439      0.00000     0.40426    0.00135     0.40561
      H   28    0.08979      0.00000     0.40906    0.00115     0.41021
      H   29    0.09584      0.00000     0.40205    0.00211     0.40416
      H   30    0.09732      0.00000     0.40157    0.00111     0.40268
      H   31    0.09844      0.00000     0.40033    0.00123     0.40156
      H   32    0.08353      0.00000     0.41435    0.00212     0.41647
      H   33    0.10037      0.00000     0.39814    0.00150     0.39963
      H   34    0.12059      0.00000     0.37750    0.00191     0.37941
      H   35    0.08152      0.00000     0.41670    0.00179     0.41848
      H   36    0.09904      0.00000     0.39963    0.00133     0.40096
      H   37    0.10549      0.00000     0.39290    0.00161     0.39451
      H   38    0.08209      0.00000     0.41650    0.00141     0.41791
      H   39    0.08394      0.00000     0.41476    0.00130     0.41606
      H   40    0.08273      0.00000     0.41524    0.00203     0.41727
 =======================================================================
   * Total *    0.00000     17.99345    49.76355    0.24301    68.00000

 Normal termination of Gaussian 16 at Fri Dec 11 23:33:32 2020.
