 Gaussian 16, Revision A.03,

 -----------------------------------------------------------
 # opt freq B3LYP/6-31G(d) empiricaldispersion=gd3bj scf=xqc
 -----------------------------------------------------------

 ------------------------------
 CID_63922543_JID_7230_neutraal
 ------------------------------
 Symbolic Z-matrix:
 Charge =  0 Multiplicity = 1

 SCF Done:  E(RB3LYP) =  -1165.78010209     A.U. after   15 cycles
 SCF Done:  E(RB3LYP) =  -1165.78603911     A.U. after   12 cycles
 SCF Done:  E(RB3LYP) =  -1165.78415519     A.U. after   13 cycles
 SCF Done:  E(RB3LYP) =  -1165.78831356     A.U. after   12 cycles
 SCF Done:  E(RB3LYP) =  -1165.78788889     A.U. after   12 cycles
 SCF Done:  E(RB3LYP) =  -1165.79046793     A.U. after   13 cycles
 SCF Done:  E(RB3LYP) =  -1165.79209866     A.U. after   12 cycles
 SCF Done:  E(RB3LYP) =  -1165.79161258     A.U. after   12 cycles
 SCF Done:  E(RB3LYP) =  -1165.79328378     A.U. after   12 cycles
 SCF Done:  E(RB3LYP) =  -1165.79365210     A.U. after   11 cycles
 SCF Done:  E(RB3LYP) =  -1165.79401445     A.U. after   10 cycles
 SCF Done:  E(RB3LYP) =  -1165.79402818     A.U. after   10 cycles
 SCF Done:  E(RB3LYP) =  -1165.79403679     A.U. after   10 cycles
 SCF Done:  E(RB3LYP) =  -1165.79403870     A.U. after    9 cycles
 SCF Done:  E(RB3LYP) =  -1165.79403895     A.U. after    8 cycles
 Optimization completed.
    -- Stationary point found.
 Normal termination of Gaussian 16 at Sun Dec 13 20:24:59 2020.

 --------------------------------------------------------------------
 #N Geom=AllCheck Guess=TCheck SCRF=Check GenChk RB3LYP/6-31G(d) Freq
 --------------------------------------------------------------------

 Structure from the checkpoint file:  "JID_7230.chk"
 ------------------------------
 CID_63922543_JID_7230_neutraal
 ------------------------------
 Charge =  0 Multiplicity = 1

 SCF Done:  E(RB3LYP) =  -1165.79403895     A.U. after    1 cycles

  Exact polarizability: 192.704   0.527 137.448  -2.138  -2.009 129.098
 Approx polarizability: 234.862   9.516 215.319   2.737 -13.207 204.978

                      1                      2                      3
                      A                      A                      A
 Frequencies --     43.8773                47.8918                48.3654
 Red. masses --      4.1870                 4.2502                 3.4314
 Frc consts  --      0.0047                 0.0057                 0.0047
 IR Inten    --      0.7260                 6.1052                 0.3407

                      4                      5                      6
                      A                      A                      A
 Frequencies --     68.3420                86.1227               144.1414
 Red. masses --      3.7457                 3.9673                 3.9010
 Frc consts  --      0.0103                 0.0173                 0.0478
 IR Inten    --      1.9157                 2.8473                 2.2208

                      7                      8                      9
                      A                      A                      A
 Frequencies --    149.8907               159.3206               183.6557
 Red. masses --      2.4115                 3.1892                 2.4258
 Frc consts  --      0.0319                 0.0477                 0.0482
 IR Inten    --      3.2642                 0.8258                 0.4098

                     10                     11                     12
                      A                      A                      A
 Frequencies --    219.7348               231.0967               243.6436
 Red. masses --      2.0722                 2.0928                 3.5000
 Frc consts  --      0.0589                 0.0659                 0.1224
 IR Inten    --      3.0343                 0.7943                 1.5470

                     13                     14                     15
                      A                      A                      A
 Frequencies --    251.8042               262.7038               281.3904
 Red. masses --      1.5316                 1.9644                 1.7911
 Frc consts  --      0.0572                 0.0799                 0.0836
 IR Inten    --      1.7885                 1.9208                 1.9431

                     16                     17                     18
                      A                      A                      A
 Frequencies --    290.1192               303.0121               320.0371
 Red. masses --      1.4000                 2.2523                 3.4247
 Frc consts  --      0.0694                 0.1218                 0.2067
 IR Inten    --      0.4567                 5.7378                 2.7432

                     19                     20                     21
                      A                      A                      A
 Frequencies --    344.7370               370.0807               381.2348
 Red. masses --      2.4589                 4.4979                 3.6172
 Frc consts  --      0.1722                 0.3630                 0.3097
 IR Inten    --      0.6347                 5.6988                 0.5341

                     22                     23                     24
                      A                      A                      A
 Frequencies --    388.0811               396.5613               428.0371
 Red. masses --      3.2944                 2.5251                 3.6633
 Frc consts  --      0.2923                 0.2340                 0.3954
 IR Inten    --      0.5436                 1.0101                26.7594

                     25                     26                     27
                      A                      A                      A
 Frequencies --    455.6237               479.1380               504.8936
 Red. masses --      3.0287                 3.4448                 2.8583
 Frc consts  --      0.3704                 0.4659                 0.4293
 IR Inten    --      1.8832                25.2418                10.2775

                     28                     29                     30
                      A                      A                      A
 Frequencies --    521.9467               574.8130               600.3152
 Red. masses --      5.2371                 3.1019                 2.6554
 Frc consts  --      0.8406                 0.6039                 0.5638
 IR Inten    --     41.3685                 4.1114                19.1100

                     31                     32                     33
                      A                      A                      A
 Frequencies --    663.0079               680.0149               703.2903
 Red. masses --      3.7054                 2.2028                 1.7136
 Frc consts  --      0.9597                 0.6001                 0.4994
 IR Inten    --     16.9470                11.3592                79.7535

                     34                     35                     36
                      A                      A                      A
 Frequencies --    722.6092               790.3579               805.9028
 Red. masses --      2.4523                 3.1984                 2.4188
 Frc consts  --      0.7545                 1.1772                 0.9256
 IR Inten    --     11.2736                14.7580                31.8515

                     37                     38                     39
                      A                      A                      A
 Frequencies --    829.7561               844.7286               859.3069
 Red. masses --      1.1613                 3.1584                 1.4128
 Frc consts  --      0.4711                 1.3279                 0.6146
 IR Inten    --      1.6483                33.1959                 6.8723

                     40                     41                     42
                      A                      A                      A
 Frequencies --    882.6912               905.1930               918.3985
 Red. masses --      2.1957                 1.5623                 2.0965
 Frc consts  --      1.0079                 0.7542                 1.0418
 IR Inten    --     16.1338                 4.9262                 0.2223

                     43                     44                     45
                      A                      A                      A
 Frequencies --    945.0046               949.9245               958.9860
 Red. masses --      1.7561                 1.7839                 2.1708
 Frc consts  --      0.9240                 0.9484                 1.1762
 IR Inten    --     21.1231                12.8344                 5.7592

                     46                     47                     48
                      A                      A                      A
 Frequencies --    992.2914              1032.9571              1051.9901
 Red. masses --      2.1153                 1.3169                 2.0901
 Frc consts  --      1.2272                 0.8279                 1.3628
 IR Inten    --      0.8644                 0.3182                 1.0105

                     49                     50                     51
                      A                      A                      A
 Frequencies --   1058.5699              1088.5385              1097.9943
 Red. masses --      2.2117                 2.3111                 2.0125
 Frc consts  --      1.4602                 1.6135                 1.4295
 IR Inten    --     39.8551                34.5120                 1.0720

                     52                     53                     54
                      A                      A                      A
 Frequencies --   1107.8074              1125.4921              1142.6288
 Red. masses --      1.4809                 2.4387                 2.4657
 Frc consts  --      1.0708                 1.8201                 1.8967
 IR Inten    --     23.8928               108.6812               115.3007

                     55                     56                     57
                      A                      A                      A
 Frequencies --   1149.5548              1162.3074              1195.8009
 Red. masses --      2.1455                 2.2078                 2.9361
 Frc consts  --      1.6704                 1.7573                 2.4736
 IR Inten    --      1.9418                32.5764                52.6886

                     58                     59                     60
                      A                      A                      A
 Frequencies --   1224.1472              1228.2013              1235.4397
 Red. masses --      1.4152                 1.7258                 2.4935
 Frc consts  --      1.2495                 1.5338                 2.2424
 IR Inten    --      3.1996                74.3916               121.6332

                     61                     62                     63
                      A                      A                      A
 Frequencies --   1246.4223              1278.6784              1297.0745
 Red. masses --      2.5235                 1.6673                 1.6014
 Frc consts  --      2.3099                 1.6061                 1.5874
 IR Inten    --     14.8409                58.1051                31.0172

                     64                     65                     66
                      A                      A                      A
 Frequencies --   1312.0099              1321.9814              1334.0136
 Red. masses --      2.6816                 2.0198                 1.3237
 Frc consts  --      2.7197                 2.0798                 1.3880
 IR Inten    --    104.9515                43.8810                31.0403

                     67                     68                     69
                      A                      A                      A
 Frequencies --   1345.6901              1377.4079              1403.5265
 Red. masses --      1.6505                 1.3570                 1.3832
 Frc consts  --      1.7610                 1.5169                 1.6054
 IR Inten    --     35.5603                27.4963                 6.9438

                     70                     71                     72
                      A                      A                      A
 Frequencies --   1405.0687              1408.8501              1422.6073
 Red. masses --      1.2865                 1.3188                 1.2240
 Frc consts  --      1.4964                 1.5423                 1.4595
 IR Inten    --      6.7125                 3.8552                 4.7059

                     73                     74                     75
                      A                      A                      A
 Frequencies --   1439.7062              1442.8985              1460.5069
 Red. masses --      1.3013                 1.2199                 1.2378
 Frc consts  --      1.5892                 1.4964                 1.5556
 IR Inten    --      6.4096                 3.9140                11.3147

                     76                     77                     78
                      A                      A                      A
 Frequencies --   1481.0522              1489.8801              1508.4244
 Red. masses --      1.1036                 1.0889                 1.0924
 Frc consts  --      1.4263                 1.4241                 1.4645
 IR Inten    --      6.0633                 4.8904                 3.3047

                     79                     80                     81
                      A                      A                      A
 Frequencies --   1511.8565              1514.3607              1516.4202
 Red. masses --      1.2232                 1.1155                 1.0718
 Frc consts  --      1.6473                 1.5072                 1.4521
 IR Inten    --      9.7426                 5.9009                 1.8351

                     82                     83                     84
                      A                      A                      A
 Frequencies --   1519.0038              1522.9431              1528.7379
 Red. masses --      1.0535                 1.0824                 1.0752
 Frc consts  --      1.4322                 1.4791                 1.4805
 IR Inten    --      1.2838                 2.7659                 3.5069

                     85                     86                     87
                      A                      A                      A
 Frequencies --   1529.7542              1539.1108              1546.6806
 Red. masses --      1.0642                 1.0570                 1.0908
 Frc consts  --      1.4673                 1.4753                 1.5374
 IR Inten    --     12.5946                 4.7992                 0.4334

                     88                     89                     90
                      A                      A                      A
 Frequencies --   1558.2466              1770.7184              2958.3774
 Red. masses --      1.1403                 6.8807                 1.0740
 Frc consts  --      1.6313                12.7110                 5.5380
 IR Inten    --     28.6042               241.7564                76.2550

                     91                     92                     93
                      A                      A                      A
 Frequencies --   3041.9833              3060.4368              3064.8938
 Red. masses --      1.0404                 1.0454                 1.0444
 Frc consts  --      5.6725                 5.7693                 5.7802
 IR Inten    --     36.5718                13.9548                25.4872

                     94                     95                     96
                      A                      A                      A
 Frequencies --   3067.1592              3070.2226              3078.4119
 Red. masses --      1.0619                 1.0830                 1.0638
 Frc consts  --      5.8856                 6.0146                 5.9394
 IR Inten    --     17.5093                 1.8372                18.2157

                     97                     98                     99
                      A                      A                      A
 Frequencies --   3083.0033              3102.8663              3107.4422
 Red. masses --      1.0614                 1.0958                 1.1028
 Frc consts  --      5.9442                 6.2157                 6.2738
 IR Inten    --      3.2102                29.7075                 7.5011

                    100                    101                    102
                      A                      A                      A
 Frequencies --   3110.6838              3124.9117              3128.9698
 Red. masses --      1.0607                 1.0993                 1.0980
 Frc consts  --      6.0472                 6.3245                 6.3337
 IR Inten    --      4.8224                32.4700                 9.1088

                    103                    104                    105
                      A                      A                      A
 Frequencies --   3133.7135              3136.7985              3145.1650
 Red. masses --      1.0976                 1.1009                 1.1065
 Frc consts  --      6.3508                 6.3822                 6.4487
 IR Inten    --     14.4163                28.3151                 5.1250

                    106                    107                    108
                      A                      A                      A
 Frequencies --   3150.0690              3175.3255              3178.6713
 Red. masses --      1.0894                 1.0999                 1.1009
 Frc consts  --      6.3689                 6.5337                 6.5540
 IR Inten    --     14.7226                29.9360                 1.0174

                    109                    110                    111
                      A                      A                      A
 Frequencies --   3197.4229              3487.3939              3541.7689
 Red. masses --      1.0929                 1.0737                 1.0745
 Frc consts  --      6.5832                 7.6937                 7.9415
 IR Inten    --     32.7227                 1.4021                15.9014

 - Thermochemistry -
 -------------------
 Temperature   298.150 Kelvin.  Pressure   1.00000 Atm.
 Atom     1 has atomic number  6 and mass  12.00000

 Molecular mass:   262.13511 amu.
 Principal axes and moments of inertia in atomic units:
                           1         2         3
     Eigenvalues --  1818.569319315.340269743.55301
           X            0.99982  -0.01832  -0.00472
           Y            0.01850   0.99896   0.04170
           Z            0.00395  -0.04178   0.99912
 This molecule is an asymmetric top.
 Rotational symmetry number  1.
 Warning -- assumption of classical behavior for rotation
           may cause significant error
 Rotational temperatures (Kelvin)      0.04763     0.00930     0.00889
 Rotational constants (GHZ):           0.99240     0.19374     0.18522
 Zero-point vibrational energy     893089.0 (Joules/Mol)
                                  213.45340 (Kcal/Mol)
 Warning -- explicit consideration of  30 degrees of freedom as
           vibrations may cause significant error
 Vibrational temperatures:     63.13    68.91    69.59    98.33   123.91
          (Kelvin)            207.39   215.66   229.23   264.24   316.15
                              332.50   350.55   362.29   377.97   404.86
                              417.42   435.97   460.46   496.00   532.46
                              548.51   558.36   570.56   615.85   655.54
                              689.37   726.43   750.96   827.03   863.72
                              953.92   978.39  1011.88  1039.67  1137.15
                             1159.51  1193.83  1215.38  1236.35  1270.00
                             1302.37  1321.37  1359.65  1366.73  1379.77
                             1427.69  1486.19  1513.58  1523.05  1566.16
                             1579.77  1593.89  1619.33  1643.99  1653.95
                             1672.30  1720.49  1761.27  1767.11  1777.52
                             1793.32  1839.73  1866.20  1887.69  1902.04
                             1919.35  1936.15  1981.78  2019.36  2021.58
                             2027.02  2046.81  2071.42  2076.01  2101.34
                             2130.90  2143.61  2170.29  2175.22  2178.83
                             2181.79  2185.51  2191.18  2199.51  2200.98
                             2214.44  2225.33  2241.97  2547.67  4256.45
                             4376.74  4403.29  4409.70  4412.96  4417.37
                             4429.15  4435.75  4464.33  4470.92  4475.58
                             4496.05  4501.89  4508.71  4513.15  4525.19
                             4532.25  4568.59  4573.40  4600.38  5017.58
                             5095.82

 Zero-point correction=                           0.340160 (Hartree/Particle)
 Thermal correction to Energy=                    0.358642
 Thermal correction to Enthalpy=                  0.359586
 Thermal correction to Gibbs Free Energy=         0.294037
 Sum of electronic and zero-point Energies=          -1165.453879
 Sum of electronic and thermal Energies=             -1165.435397
 Sum of electronic and thermal Enthalpies=           -1165.434453
 Sum of electronic and thermal Free Energies=        -1165.500002

                     E (Thermal)             CV                S
                      KCal/Mol        Cal/Mol-Kelvin    Cal/Mol-Kelvin
 Total                  225.051             71.123            137.960
 Electronic               0.000              0.000              0.000
 Translational            0.889              2.981             42.591
 Rotational               0.889              2.981             33.467
 Vibrational            223.274             65.162             61.902
 Vibration     1          0.595              1.980              5.076
 Vibration     2          0.595              1.978              4.903
 Vibration     3          0.595              1.978              4.883
 Vibration     4          0.598              1.969              4.201
 Vibration     5          0.601              1.959              3.746
 Vibration     6          0.616              1.909              2.748
 Vibration     7          0.618              1.903              2.674
 Vibration     8          0.621              1.892              2.558
 Vibration     9          0.631              1.862              2.291
 Vibration    10          0.647              1.811              1.961
 Vibration    11          0.653              1.793              1.870
 Vibration    12          0.659              1.773              1.776
 Vibration    13          0.664              1.760              1.718
 Vibration    14          0.670              1.741              1.644
 Vibration    15          0.681              1.708              1.525
 Vibration    16          0.686              1.692              1.473
 Vibration    17          0.694              1.668              1.400
 Vibration    18          0.706              1.635              1.310
 Vibration    19          0.723              1.586              1.190
 Vibration    20          0.742              1.534              1.079
 Vibration    21          0.751              1.510              1.034
 Vibration    22          0.756              1.496              1.008
 Vibration    23          0.763              1.478              0.975
 Vibration    24          0.790              1.409              0.865
 Vibration    25          0.814              1.348              0.779
 Vibration    26          0.836              1.296              0.712
 Vibration    27          0.860              1.239              0.646
 Vibration    28          0.877              1.201              0.605
 Vibration    29          0.931              1.086              0.495
 Vibration    30          0.958              1.031              0.449

 Optimization completed.
    -- Stationary point found.
 Normal termination of Gaussian 16 at Sun Dec 13 20:44:20 2020.

 ----------------------------------------------------------------------
 # B3LYP/6-311++G(d,p) empiricaldispersion=gd3bj scf=xqc pop=npa geom=c
 heck
 ----------------------------------------------------------------------

 --------------------------------------
 CID_63922543_JID_7230_Energie_neutraal
 --------------------------------------
 Structure from the checkpoint file:  "JID_7230.chk"
 Charge =  0 Multiplicity = 1

 SCF Done:  E(RB3LYP) =  -1166.04876069     A.U. after   16 cycles
 Normal termination of Gaussian 16 at Sun Dec 13 20:54:08 2020.

 ----------------------------------------------------------------------
 # B3LYP/6-311++G(d,p) empiricaldispersion=gd3bj scf=xqc pop=npa geom=c
 heck
 ----------------------------------------------------------------------

 ------------------------------------
 CID_63922543_JID_7230_Energie_kation
 ------------------------------------
 Structure from the checkpoint file:  "JID_7230.chk"
 Charge =  1 Multiplicity = 2

 SCF Done:  E(UB3LYP) =  -1165.74075081     A.U. after   28 cycles
 Normal termination of Gaussian 16 at Sun Dec 13 21:18:39 2020.
 Gaussian 16:  ES64L-G16RevA.03 25-Dec-2016

 ----------------------------------------------------------------------
 # B3LYP/6-311++G(d,p) empiricaldispersion=gd3bj scf=xqc pop=npa geom=c
 heck
 ----------------------------------------------------------------------

 -----------------------------------
 CID_63922543_JID_7230_Energie_anion
 -----------------------------------
 Structure from the checkpoint file:  "JID_7230.chk"
 Charge = -1 Multiplicity = 2

                         Standard orientation:
 ---------------------------------------------------------------------
 Center     Atomic      Atomic             Coordinates (Angstroms)
 Number     Number       Type             X           Y           Z
 ---------------------------------------------------------------------
      1          6           0        5.882579   -0.075708    0.199146
      2          6           0        4.513488   -0.464728   -0.350811
      3          7           0        3.496716   -0.247073    0.681727
      4          6           0        2.081313   -0.420200    0.331418
      5          6           0        1.812163   -1.729158   -0.446880
      6          6           0        1.343727   -0.428085    1.681400
      7          6           0        1.669890    0.787952   -0.559592
      8          8           0        2.503040    1.603084   -0.926445
      9          7           0        0.397922    0.886454   -1.142474
     10          6           0       -0.979655    0.782797   -0.632033
     11          6           0       -1.249050    1.650266    0.615305
     12          6           0       -2.741211    1.758551    0.968787
     13          6           0       -3.393314    0.403139    1.254053
     14         16           0       -3.283173   -0.668062   -0.204915
     15          8           0       -3.690365   -2.033389    0.155830
     16          8           0       -3.919661    0.041896   -1.329203
     17          6           0       -1.489824   -0.658275   -0.492006
     18          1           0        5.879906    0.974233    0.506450
     19          1           0        6.661879   -0.222417   -0.556854
     20          1           0        6.148622   -0.685158    1.072978
     21          1           0        4.267218    0.172307   -1.201055
     22          1           0        4.546801   -1.507543   -0.713768
     23          1           0        3.697420   -0.867517    1.463817
     24          1           0        0.753737   -1.883711   -0.658459
     25          1           0        2.342370   -1.731865   -1.403105
     26          1           0        2.170115   -2.580527    0.143788
     27          1           0        1.526154    0.507315    2.218326
     28          1           0        0.270615   -0.581289    1.583850
     29          1           0        1.727112   -1.253007    2.293608
     30          1           0        0.469657    1.672022   -1.782453
     31          1           0       -1.579608    1.204868   -1.445589
     32          1           0       -0.851903    2.652033    0.419345
     33          1           0       -0.695116    1.258214    1.473778
     34          1           0       -3.287950    2.242822    0.152308
     35          1           0       -2.858989    2.391506    1.855305
     36          1           0       -4.462525    0.488161    1.468850
     37          1           0       -2.910978   -0.134221    2.077175
     38          1           0       -1.052822   -1.213363    0.337819
     39          1           0       -1.338157   -1.221566   -1.416430
 ---------------------------------------------------------------------

 SCF Done:  E(UB3LYP) =  -1166.04378263     A.U. after   33 cycles
 SCF Done:  E(UB3LYP) =  -1166.04378263     a.u. after    1 cycles

 The electronic state is 2-A.
 Alpha  occ. eigenvalues --  -88.95781 -19.03002 -19.02885 -19.00987 -14.25196
 Alpha  occ. eigenvalues --  -14.20776 -10.19150 -10.15289 -10.13917 -10.12989
 Alpha  occ. eigenvalues --  -10.12326 -10.09992 -10.09931 -10.09482 -10.08182
 Alpha  occ. eigenvalues --  -10.08065 -10.07497  -8.02313  -5.98573  -5.98465
 Alpha  occ. eigenvalues --   -5.98406  -1.02114  -0.96319  -0.91850  -0.84086
 Alpha  occ. eigenvalues --   -0.82540  -0.75495  -0.70500  -0.69646  -0.66744
 Alpha  occ. eigenvalues --   -0.63740  -0.61477  -0.57852  -0.55189  -0.54328
 Alpha  occ. eigenvalues --   -0.52332  -0.49993  -0.45967  -0.43978  -0.41674
 Alpha  occ. eigenvalues --   -0.40892  -0.40430  -0.39120  -0.38259  -0.37769
 Alpha  occ. eigenvalues --   -0.37594  -0.37042  -0.36269  -0.34916  -0.34287
 Alpha  occ. eigenvalues --   -0.33933  -0.33471  -0.32079  -0.31183  -0.30402
 Alpha  occ. eigenvalues --   -0.29785  -0.29018  -0.28397  -0.27997  -0.27710
 Alpha  occ. eigenvalues --   -0.27417  -0.26411  -0.25639  -0.25161  -0.24514
 Alpha  occ. eigenvalues --   -0.23699  -0.22045  -0.20302  -0.18733  -0.16630
 Alpha  occ. eigenvalues --   -0.14102   0.03651
 Alpha virt. eigenvalues --    0.05496   0.06349   0.07025   0.07490   0.07646
 Alpha virt. eigenvalues --    0.08332   0.08571   0.09388   0.09846   0.10172
 Alpha virt. eigenvalues --    0.10676   0.10833   0.11619   0.11684   0.11868

  Beta  occ. eigenvalues --  -88.95781 -19.02999 -19.02875 -19.00964 -14.25193
  Beta  occ. eigenvalues --  -14.20763 -10.19132 -10.15281 -10.13913 -10.12969
  Beta  occ. eigenvalues --  -10.12288 -10.09955 -10.09924 -10.09456 -10.08164
  Beta  occ. eigenvalues --  -10.08021 -10.07487  -8.02311  -5.98572  -5.98464
  Beta  occ. eigenvalues --   -5.98406  -1.02101  -0.96281  -0.91836  -0.84064
  Beta  occ. eigenvalues --   -0.82519  -0.75455  -0.70473  -0.69601  -0.66694
  Beta  occ. eigenvalues --   -0.63713  -0.61420  -0.57790  -0.55125  -0.54281
  Beta  occ. eigenvalues --   -0.52295  -0.49936  -0.45919  -0.43944  -0.41638
  Beta  occ. eigenvalues --   -0.40860  -0.40396  -0.39095  -0.38228  -0.37740
  Beta  occ. eigenvalues --   -0.37565  -0.37016  -0.36228  -0.34877  -0.34229
  Beta  occ. eigenvalues --   -0.33894  -0.33421  -0.32050  -0.31155  -0.30358
  Beta  occ. eigenvalues --   -0.29741  -0.28961  -0.28364  -0.27952  -0.27669
  Beta  occ. eigenvalues --   -0.27386  -0.26368  -0.25612  -0.25134  -0.24487
  Beta  occ. eigenvalues --   -0.23690  -0.22031  -0.20276  -0.18702  -0.16596
  Beta  occ. eigenvalues --   -0.14086
  Beta virt. eigenvalues --    0.05769   0.06307   0.07062   0.07368   0.07779
  Beta virt. eigenvalues --    0.08052   0.08770   0.08938   0.09608   0.10071
  Beta virt. eigenvalues --    0.10460   0.10873   0.11227   0.11738   0.11824

 Mulliken charges and spin densities:
               1          2
     1  C   -0.134985  -0.367969
     2  C   -0.253482   0.071462
     3  N    0.159005   0.088598
     4  C   -1.160253   0.932034
     5  C    0.175227  -0.638784
     6  C    0.596720  -1.213355
     7  C    0.213647  -0.219810
     8  O   -0.282146   0.016489
     9  N   -0.212145   0.173184
    10  C    1.030467  -1.310858
    11  C   -0.255222   0.470374
    12  C    0.079941  -0.691929
    13  C   -0.229380  -0.460247
    14  S    1.346849  -0.853648
    15  O   -0.133618   0.035080
    16  O   -0.224082   0.008682
    17  C   -1.356660   0.417974
    18  H    0.125410   0.029037
    19  H    0.064885   0.058308
    20  H   -0.090664   0.204437
    21  H    0.171972   0.004629
    22  H   -0.054472   0.159315
    23  H    0.255627  -0.045847
    24  H    0.014080   0.083170
    25  H    0.106472   0.073610
    26  H   -0.119372   0.299424
    27  H   -0.191606   0.409451
    28  H    0.503809  -0.391445
    29  H   -0.617195   0.780668
    30  H    0.219230   0.085942
    31  H    0.015196   0.187102
    32  H   -0.075298   0.285958
    33  H    0.344816  -0.175168
    34  H    0.120136   0.069822
    35  H   -1.011155   1.233685
    36  H   -0.013326   0.282862
    37  H   -0.369724   0.611779
    38  H   -0.012096   0.229351
    39  H    0.253395   0.066635
 Sum of Mulliken charges =  -1.00000   1.00000

 Dipole moment (field-independent basis, Debye):
    X=              2.7482    Y=             -0.8130    Z=             -5.1188  Tot=              5.8665
 Quadrupole moment (field-independent basis, Debye-Ang):
   XX=           -204.9397   YY=           -160.4055   ZZ=           -160.2524
   XY=             -0.6380   XZ=              1.7006   YZ=             -3.3986

 Summary of Natural Population Analysis:

                                       Natural Population
                Natural  -----------------------------------------------
    Atom  No    Charge         Core      Valence    Rydberg      Total
 -----------------------------------------------------------------------
      C    1   -0.28507      0.99967     2.28083    0.00457     3.28507
      C    2   -0.09421      0.99963     2.08345    0.01113     3.09421
      N    3   -0.33732      0.99971     2.82527    0.01234     3.83732
      C    4    0.02468      0.99955     1.96314    0.01263     2.97532
      C    5   -0.29072      0.99962     2.28416    0.00693     3.29072
      C    6   -0.28521      0.99962     2.27719    0.00840     3.28521
      C    7    0.35747      0.99962     1.61828    0.02464     2.64253
      O    8   -0.30742      0.99988     3.30176    0.00579     4.30742
      N    9   -0.33354      0.99967     2.82314    0.01073     3.83354
      C   10   -0.02169      0.99954     2.00880    0.01334     3.02169
      C   11   -0.19819      0.99960     2.18954    0.00905     3.19819
      C   12   -0.20208      0.99962     2.19202    0.01045     3.20208
      C   13   -0.28814      0.99959     2.27643    0.01212     3.28814
      S   14    1.02302      4.99925     1.88357    0.09416     6.97698
      O   15   -0.46603      0.99991     3.46061    0.00551     4.46603
      O   16   -0.47285      0.99991     3.46758    0.00536     4.47285
      C   17   -0.29505      0.99955     2.28477    0.01073     3.29505
      H   18    0.10235      0.00000     0.39659    0.00106     0.39765
      H   19    0.09532      0.00000     0.40395    0.00073     0.40468
      H   20    0.09306      0.00000     0.40580    0.00115     0.40694
      H   21    0.10371      0.00000     0.39484    0.00146     0.39629
      H   22    0.07567      0.00000     0.42289    0.00145     0.42433
      H   23    0.17140      0.00000     0.32558    0.00302     0.32860
      H   24    0.10114      0.00000     0.39762    0.00124     0.39886
      H   25    0.10304      0.00000     0.39592    0.00104     0.39696
      H   26    0.10265      0.00000     0.39633    0.00101     0.39735
      H   27    0.11017      0.00000     0.38828    0.00155     0.38983
      H   28    0.09641      0.00000     0.40140    0.00218     0.40359
      H   29    0.10463      0.00000     0.39360    0.00178     0.39537
      H   30    0.19259      0.00000     0.30471    0.00271     0.30741
      H   31    0.10831      0.00000     0.39013    0.00156     0.39169
      H   32    0.10825      0.00000     0.39035    0.00139     0.39175
      H   33    0.10503      0.00000     0.39285    0.00213     0.39497
      H   34    0.10530      0.00000     0.39335    0.00135     0.39470
      H   35    0.11615      0.00000     0.37934    0.00450     0.38385
      H   36    0.12176      0.00000     0.37696    0.00128     0.37824
      H   37    0.11731      0.00000     0.38058    0.00211     0.38269
      H   38    0.11533      0.00000     0.38281    0.00186     0.38467
      H   39    0.12278      0.00000     0.37601    0.00121     0.37722
 =======================================================================
   * Total *    0.00000     20.99392    49.71043    0.29565    71.00000

 Normal termination of Gaussian 16 at Sun Dec 13 21:47:21 2020.
