 Gaussian 16, Revision A.03,

 -----------------------------------------------------------
 # opt freq B3LYP/6-31G(d) empiricaldispersion=gd3bj scf=xqc
 -----------------------------------------------------------

 -----------------------------
 CID_2850453_JID_6881_neutraal
 -----------------------------
 Symbolic Z-matrix:
 Charge =  0 Multiplicity = 1

 SCF Done:  E(RB3LYP) =  -773.844690658     A.U. after   15 cycles
 SCF Done:  E(RB3LYP) =  -773.853069339     A.U. after   13 cycles
 SCF Done:  E(RB3LYP) =  -773.853788646     A.U. after   12 cycles
 SCF Done:  E(RB3LYP) =  -773.853820670     A.U. after   11 cycles
 SCF Done:  E(RB3LYP) =  -773.853991654     A.U. after   12 cycles
 SCF Done:  E(RB3LYP) =  -773.854137748     A.U. after   11 cycles
 SCF Done:  E(RB3LYP) =  -773.854217360     A.U. after   11 cycles
 SCF Done:  E(RB3LYP) =  -773.854249029     A.U. after   10 cycles
 SCF Done:  E(RB3LYP) =  -773.854255081     A.U. after    9 cycles
 SCF Done:  E(RB3LYP) =  -773.854258223     A.U. after    9 cycles
 SCF Done:  E(RB3LYP) =  -773.854270257     A.U. after    8 cycles
 SCF Done:  E(RB3LYP) =  -773.854270380     A.U. after    8 cycles
 SCF Done:  E(RB3LYP) =  -773.854270398     A.U. after    7 cycles
 SCF Done:  E(RB3LYP) =  -773.854270389     A.U. after    7 cycles
 SCF Done:  E(RB3LYP) =  -773.854270373     A.U. after    7 cycles
 SCF Done:  E(RB3LYP) =  -773.854270361     A.U. after    7 cycles
 Optimization completed.
    -- Stationary point found.
 Normal termination of Gaussian 16 at Fri Dec 11 01:03:21 2020.

 --------------------------------------------------------------------
 #N Geom=AllCheck Guess=TCheck SCRF=Check GenChk RB3LYP/6-31G(d) Freq
 --------------------------------------------------------------------

 Structure from the checkpoint file:  "JID_6881.chk"
 -----------------------------
 CID_2850453_JID_6881_neutraal
 -----------------------------
 Charge =  0 Multiplicity = 1

 SCF Done:  E(RB3LYP) =  -773.854270361     A.U. after    1 cycles

  Exact polarizability: 216.430  -9.648 129.067  -8.973   1.411  77.810
 Approx polarizability: 290.819 -12.841 207.761 -18.698   3.741 133.680

                      1                      2                      3
                      A                      A                      A
 Frequencies --     18.4103                43.0171                48.9128
 Red. masses --      5.5677                 4.3343                 9.4295
 Frc consts  --      0.0011                 0.0047                 0.0133
 IR Inten    --      2.9603                 2.7410                 0.2543

                      4                      5                      6
                      A                      A                      A
 Frequencies --     65.2420                83.3596               121.5612
 Red. masses --      5.3283                 5.4025                 2.1920
 Frc consts  --      0.0134                 0.0221                 0.0191
 IR Inten    --      4.0704                 2.3713                10.3436

                      7                      8                      9
                      A                      A                      A
 Frequencies --    158.0790               178.5342               196.1279
 Red. masses --      4.1956                 1.7963                 4.5731
 Frc consts  --      0.0618                 0.0337                 0.1036
 IR Inten    --      1.2897                25.0034                 1.0196

                     10                     11                     12
                      A                      A                      A
 Frequencies --    221.8392               278.8461               323.2229
 Red. masses --      4.3305                 4.9537                 5.3847
 Frc consts  --      0.1256                 0.2269                 0.3314
 IR Inten    --      4.4712                 2.5224                 5.4525

                     13                     14                     15
                      A                      A                      A
 Frequencies --    368.8145               387.0202               425.3300
 Red. masses --      1.5095                 4.0608                 3.7110
 Frc consts  --      0.1210                 0.3584                 0.3955
 IR Inten    --     51.8340                36.8603                15.9119

                     16                     17                     18
                      A                      A                      A
 Frequencies --    431.1049               438.4262               475.2158
 Red. masses --      2.4030                 1.7126                 2.8145
 Frc consts  --      0.2631                 0.1940                 0.3745
 IR Inten    --     56.7092               132.2603                51.6474

                     19                     20                     21
                      A                      A                      A
 Frequencies --    504.8603               524.6828               536.4169
 Red. masses --      2.5551                 1.5708                 4.1932
 Frc consts  --      0.3837                 0.2548                 0.7109
 IR Inten    --     48.6051               163.0839                 6.1581

                     22                     23                     24
                      A                      A                      A
 Frequencies --    542.1050               592.8170               620.1287
 Red. masses --      2.3669                 1.4228                 1.6852
 Frc consts  --      0.4098                 0.2946                 0.3818
 IR Inten    --     58.4644                62.7953                48.4621

                     25                     26                     27
                      A                      A                      A
 Frequencies --    643.6380               646.4797               664.9829
 Red. masses --      2.8956                 4.3993                 2.2234
 Frc consts  --      0.7068                 1.0833                 0.5793
 IR Inten    --      5.8019                61.1145               104.4935

                     28                     29                     30
                      A                      A                      A
 Frequencies --    691.4095               715.6553               733.3268
 Red. masses --      2.1657                 2.4445                 4.1265
 Frc consts  --      0.6100                 0.7377                 1.3075
 IR Inten    --     32.2389                 9.2425               125.6625

                     31                     32                     33
                      A                      A                      A
 Frequencies --    756.5984               773.9315               790.4051
 Red. masses --      3.6296                 3.2190                 4.9946
 Frc consts  --      1.2242                 1.1360                 1.8384
 IR Inten    --     11.5657               167.9381                18.6989

                     34                     35                     36
                      A                      A                      A
 Frequencies --    828.5136               886.8341               922.5365
 Red. masses --      1.7736                 4.0291                 1.6500
 Frc consts  --      0.7173                 1.8670                 0.8274
 IR Inten    --      1.8910                53.7072                 9.1716

                     37                     38                     39
                      A                      A                      A
 Frequencies --    931.5416               936.6503               980.5180
 Red. masses --      1.4718                 3.8213                 1.2722
 Frc consts  --      0.7525                 1.9752                 0.7206
 IR Inten    --      4.2122                 1.5619                 0.2144

                     40                     41                     42
                      A                      A                      A
 Frequencies --   1017.3870              1025.2925              1082.9497
 Red. masses --      5.7857                 3.1401                 1.3738
 Frc consts  --      3.5284                 1.9448                 0.9493
 IR Inten    --      2.1344                17.8005                17.1717

                     43                     44                     45
                      A                      A                      A
 Frequencies --   1101.7430              1122.0435              1137.7724
 Red. masses --      2.3884                 1.5947                 1.7935
 Frc consts  --      1.7081                 1.1829                 1.3679
 IR Inten    --     75.5273                 2.7237                17.5833

                     46                     47                     48
                      A                      A                      A
 Frequencies --   1191.8555              1206.6721              1219.6650
 Red. masses --      1.2235                 1.5455                 1.6254
 Frc consts  --      1.0240                 1.3258                 1.4246
 IR Inten    --     98.0985               207.4419                13.6008

                     49                     50                     51
                      A                      A                      A
 Frequencies --   1282.9570              1319.0693              1359.4860
 Red. masses --      3.4792                 1.7189                 3.6849
 Frc consts  --      3.3741                 1.7622                 4.0126
 IR Inten    --    163.5618                 9.8487                22.7859

                     52                     53                     54
                      A                      A                      A
 Frequencies --   1387.8018              1403.7918              1472.0598
 Red. masses --      3.1113                 3.5865                 3.3600
 Frc consts  --      3.5306                 4.1642                 4.2898
 IR Inten    --    132.5887               112.3548               209.8451

                     55                     56                     57
                      A                      A                      A
 Frequencies --   1474.8834              1528.9421              1629.2200
 Red. masses --      3.7315                 2.5440                 5.3165
 Frc consts  --      4.7824                 3.5039                 8.3145
 IR Inten    --     30.2090                40.5864               207.9669

                     58                     59                     60
                      A                      A                      A
 Frequencies --   1648.2264              1652.9345              1662.0948
 Red. masses --      2.3484                 1.7381                 1.3216
 Frc consts  --      3.7588                 2.7979                 2.1511
 IR Inten    --    391.7994                81.5672                81.5435

                     61                     62                     63
                      A                      A                      A
 Frequencies --   1667.3945              1710.4248              1751.2134
 Red. masses --      1.4349                 4.2148                 3.8448
 Frc consts  --      2.3504                 7.2651                 6.9471
 IR Inten    --     18.5913              1602.1277               123.3563

                     64                     65                     66
                      A                      A                      A
 Frequencies --   1818.7067              3185.9404              3202.3233
 Red. masses --      9.6398                 1.0868                 1.0936
 Frc consts  --     18.7863                 6.4992                 6.6074
 IR Inten    --    297.3397                10.9758                17.9271

                     67                     68                     69
                      A                      A                      A
 Frequencies --   3233.5923              3238.2413              3527.9260
 Red. masses --      1.0927                 1.0908                 1.0474
 Frc consts  --      6.7314                 6.7391                 7.6808
 IR Inten    --      3.5806                 0.6338                14.2518

                     70                     71                     72
                      A                      A                      A
 Frequencies --   3558.1493              3582.2681              3629.5692
 Red. masses --      1.0473                 1.0474                 1.0986
 Frc consts  --      7.8121                 7.9191                 8.5267
 IR Inten    --     47.9841                30.5473                21.7439

                     73                     74                     75
                      A                      A                      A
 Frequencies --   3677.7453              3693.7464              3700.9539
 Red. masses --      1.1021                 1.1010                 1.0641
 Frc consts  --      8.7828                 8.8504                 8.5874
 IR Inten    --     49.9657                28.3393                67.5297

 - Thermochemistry -
 -------------------
 Temperature   298.150 Kelvin.  Pressure   1.00000 Atm.
 Atom     1 has atomic number  6 and mass  12.00000

 Molecular mass:   221.09127 amu.
 Principal axes and moments of inertia in atomic units:
                           1         2         3
     Eigenvalues --  1510.529047995.350318905.87490
           X            0.99994  -0.01040   0.00144
           Y            0.01038   0.99989   0.01073
           Z           -0.00155  -0.01071   0.99994
 This molecule is an asymmetric top.
 Rotational symmetry number  1.
 Warning -- assumption of classical behavior for rotation
           may cause significant error
 Rotational temperatures (Kelvin)      0.05734     0.01083     0.00973
 Rotational constants (GHZ):           1.19477     0.22572     0.20265
 Zero-point vibrational energy     553824.0 (Joules/Mol)
                                  132.36711 (Kcal/Mol)
 Warning -- explicit consideration of  24 degrees of freedom as
           vibrations may cause significant error
 Vibrational temperatures:     26.49    61.89    70.37    93.87   119.94
          (Kelvin)            174.90   227.44   256.87   282.18   319.18
                              401.20   465.05   530.64   556.84   611.96
                              620.26   630.80   683.73   726.38   754.90
                              771.78   779.97   852.93   892.23   926.05
                              930.14   956.76   994.78  1029.67  1055.09
                             1088.58  1113.51  1137.22  1192.05  1275.96
                             1327.32  1340.28  1347.63  1410.75  1463.79
                             1475.17  1558.12  1585.16  1614.37  1637.00
                             1714.81  1736.13  1754.83  1845.89  1897.85
                             1956.00  1996.74  2019.74  2117.97  2122.03
                             2199.81  2344.08  2371.43  2378.20  2391.38
                             2399.01  2460.92  2519.61  2616.71  4583.86
                             4607.43  4652.42  4659.11  5075.90  5119.38
                             5154.08  5222.14  5291.46  5314.48  5324.85

 Zero-point correction=                           0.210940 (Hartree/Particle)
 Thermal correction to Energy=                    0.226251
 Thermal correction to Enthalpy=                  0.227195
 Thermal correction to Gibbs Free Energy=         0.166484
 Sum of electronic and zero-point Energies=           -773.643330
 Sum of electronic and thermal Energies=              -773.628019
 Sum of electronic and thermal Enthalpies=            -773.627075
 Sum of electronic and thermal Free Energies=         -773.687786

                     E (Thermal)             CV                S
                      KCal/Mol        Cal/Mol-Kelvin    Cal/Mol-Kelvin
 Total                  141.975             57.609            127.778
 Electronic               0.000              0.000              0.000
 Translational            0.889              2.981             42.083
 Rotational               0.889              2.981             33.042
 Vibrational            140.197             51.647             52.654
 Vibration     1          0.593              1.986              6.799
 Vibration     2          0.595              1.980              5.115
 Vibration     3          0.595              1.978              4.861
 Vibration     4          0.597              1.971              4.292
 Vibration     5          0.600              1.961              3.810
 Vibration     6          0.609              1.931              3.075
 Vibration     7          0.621              1.894              2.573
 Vibration     8          0.629              1.869              2.344
 Vibration     9          0.636              1.845              2.169
 Vibration    10          0.648              1.808              1.944
 Vibration    11          0.679              1.713              1.541
 Vibration    12          0.708              1.629              1.294
 Vibration    13          0.741              1.536              1.085
 Vibration    14          0.755              1.498              1.012
 Vibration    15          0.787              1.415              0.874
 Vibration    16          0.792              1.402              0.855
 Vibration    17          0.799              1.386              0.832
 Vibration    18          0.832              1.305              0.723
 Vibration    19          0.860              1.239              0.646
 Vibration    20          0.880              1.195              0.599
 Vibration    21          0.891              1.169              0.573
 Vibration    22          0.897              1.157              0.561
 Vibration    23          0.950              1.047              0.462
 Vibration    24          0.980              0.989              0.416

                           ! Non-Optimized Parameters !
 Normal termination of Gaussian 16 at Fri Dec 11 01:10:19 2020.

 ----------------------------------------------------------------------
 # B3LYP/6-311++G(d,p) empiricaldispersion=gd3bj scf=xqc pop=npa geom=c
 heck
 ----------------------------------------------------------------------

 -------------------------------------
 CID_2850453_JID_6881_Energie_neutraal
 -------------------------------------
 Structure from the checkpoint file:  "JID_6881.chk"
 Charge =  0 Multiplicity = 1

 SCF Done:  E(RB3LYP) =  -774.099778821     A.U. after   15 cycles
 Normal termination of Gaussian 16 at Fri Dec 11 01:13:02 2020.

 ----------------------------------------------------------------------
 # B3LYP/6-311++G(d,p) empiricaldispersion=gd3bj scf=xqc pop=npa geom=c
 heck
 ----------------------------------------------------------------------

 -----------------------------------
 CID_2850453_JID_6881_Energie_kation
 -----------------------------------
 Structure from the checkpoint file:  "JID_6881.chk"
 Charge =  1 Multiplicity = 2

 SCF Done:  E(UB3LYP) =  -773.815369986     A.U. after   27 cycles
 Normal termination of Gaussian 16 at Fri Dec 11 01:19:16 2020.
 Gaussian 16:  ES64L-G16RevA.03 25-Dec-2016

 ----------------------------------------------------------------------
 # B3LYP/6-311++G(d,p) empiricaldispersion=gd3bj scf=xqc pop=npa geom=c
 heck
 ----------------------------------------------------------------------

 ----------------------------------
 CID_2850453_JID_6881_Energie_anion
 ----------------------------------
 Structure from the checkpoint file:  "JID_6881.chk"
 Charge = -1 Multiplicity = 2

                         Standard orientation:
 ---------------------------------------------------------------------
 Center     Atomic      Atomic             Coordinates (Angstroms)
 Number     Number       Type             X           Y           Z
 ---------------------------------------------------------------------
      1          6           0       -2.137447    2.288372    0.185245
      2          6           0       -3.070608    1.259106    0.253438
      3          6           0       -2.674121   -0.045976   -0.069716
      4          6           0       -1.356922   -0.314863   -0.452950
      5          6           0       -0.407753    0.717162   -0.516068
      6          6           0       -0.820274    2.025288   -0.194215
      7          7           0        0.891771    0.449375   -0.958525
      8          6           0        1.873443    0.469209   -0.126635
      9          7           0        1.716223    0.607308    1.266836
     10          7           0        3.166856    0.321215   -0.593413
     11          6           0        4.015853   -0.483114   -0.034749
     12          7           0        3.811463   -1.268152    1.077570
     13          7           0        5.295616   -0.518431   -0.548758
     14          6           0       -3.697261   -1.117591    0.012109
     15          8           0       -4.857417   -0.954531    0.337408
     16          8           0       -3.216238   -2.346648   -0.315689
     17          1           0       -2.434109    3.306206    0.423298
     18          1           0       -4.099447    1.439483    0.543059
     19          1           0       -1.054172   -1.322375   -0.711374
     20          1           0       -0.095771    2.831652   -0.269285
     21          1           0        2.480248    1.095424    1.720810
     22          1           0        0.808897    0.967369    1.544728
     23          1           0        4.356055   -2.111144    1.190870
     24          1           0        2.865311   -1.289237    1.437683
     25          1           0        5.357835   -0.141197   -1.484614
     26          1           0        5.858202   -1.341474   -0.384325
     27          1           0       -3.976774   -2.950032   -0.229319
 ---------------------------------------------------------------------

 SCF Done:  E(UB3LYP) =  -774.107232166     A.U. after   28 cycles

 The electronic state is 2-A.
 Alpha  occ. eigenvalues --  -19.05477 -18.98666 -14.23383 -14.23030 -14.22897
 Alpha  occ. eigenvalues --  -14.18243 -14.17507 -10.19019 -10.17380 -10.16591
 Alpha  occ. eigenvalues --  -10.09200 -10.06479 -10.06314 -10.05586 -10.05584
 Alpha  occ. eigenvalues --  -10.05276  -0.99175  -0.90292  -0.89800  -0.85806
 Alpha  occ. eigenvalues --   -0.78688  -0.77720  -0.76254  -0.73094  -0.64873
 Alpha  occ. eigenvalues --   -0.63002  -0.55502  -0.54488  -0.50213  -0.49092
 Alpha  occ. eigenvalues --   -0.46847  -0.45085  -0.44118  -0.42377  -0.41795
 Alpha  occ. eigenvalues --   -0.38651  -0.37887  -0.37361  -0.35971  -0.35149
 Alpha  occ. eigenvalues --   -0.33877  -0.33714  -0.32119  -0.31637  -0.28799
 Alpha  occ. eigenvalues --   -0.27629  -0.26499  -0.25095  -0.24159  -0.21516
 Alpha  occ. eigenvalues --   -0.19328  -0.19231  -0.17526  -0.16685  -0.15511
 Alpha  occ. eigenvalues --   -0.14912  -0.13030  -0.11098   0.03167
 Alpha virt. eigenvalues --    0.04428   0.07239   0.08060   0.08084   0.08853
 Alpha virt. eigenvalues --    0.09382   0.10372   0.10555   0.11012   0.11910
 Alpha virt. eigenvalues --    0.12606   0.12971   0.14018   0.14751   0.15370

  Beta  occ. eigenvalues --  -19.05438 -18.98492 -14.23321 -14.22966 -14.22887
  Beta  occ. eigenvalues --  -14.18239 -14.17503 -10.19013 -10.17202 -10.16590
  Beta  occ. eigenvalues --  -10.09225 -10.06501 -10.06228 -10.05517 -10.05416
  Beta  occ. eigenvalues --  -10.05166  -0.98984  -0.90256  -0.89544  -0.85773
  Beta  occ. eigenvalues --   -0.78594  -0.77653  -0.76213  -0.72933  -0.64564
  Beta  occ. eigenvalues --   -0.62846  -0.55386  -0.54111  -0.50129  -0.48978
  Beta  occ. eigenvalues --   -0.46752  -0.44998  -0.44057  -0.42310  -0.41719
  Beta  occ. eigenvalues --   -0.38546  -0.37683  -0.37276  -0.35833  -0.35087
  Beta  occ. eigenvalues --   -0.33781  -0.32906  -0.32052  -0.31573  -0.28673
  Beta  occ. eigenvalues --   -0.27584  -0.26173  -0.24900  -0.24080  -0.20876
  Beta  occ. eigenvalues --   -0.19239  -0.19024  -0.17477  -0.16523  -0.15457
  Beta  occ. eigenvalues --   -0.14108  -0.12972  -0.10618
  Beta virt. eigenvalues --    0.06314   0.06895   0.07465   0.08063   0.08586
  Beta virt. eigenvalues --    0.09101   0.09510   0.10509   0.10963   0.11127
  Beta virt. eigenvalues --    0.11980   0.12592   0.12948   0.14313   0.14762

 Mulliken charges and spin densities:
               1          2
     1  C   -0.294029  -0.005195
     2  C   -0.576576   0.061650
     3  C    0.410296   0.052908
     4  C    0.073683   0.101943
     5  C   -1.081738  -0.096958
     6  C    0.468119   0.106123
     7  N    0.129024  -0.007966
     8  C    0.046822  -0.363803
     9  N   -0.396065  -0.040668
    10  N   -0.049923  -0.079476
    11  C    0.470875  -0.417490
    12  N   -0.249309  -0.140683
    13  N   -0.355769   0.089973
    14  C    0.043866   0.100442
    15  O   -0.381876   0.061292
    16  O   -0.206894   0.008406
    17  H    0.138238   0.004907
    18  H    0.163565  -0.005233
    19  H    0.189608   0.000026
    20  H    0.148806  -0.009859
    21  H    0.167736   0.100517
    22  H    0.295164  -0.021848
    23  H   -0.375561   0.659760
    24  H    0.269320   0.007219
    25  H    0.182124   0.081075
    26  H   -0.496273   0.752922
    27  H    0.266764   0.000017
 Sum of Mulliken charges =  -1.00000   1.00000

 Dipole moment (field-independent basis, Debye):
    X=             -3.2612    Y=              2.8954    Z=              1.7148  Tot=              4.6860
 Quadrupole moment (field-independent basis, Debye-Ang):
   XX=           -201.7645   YY=           -111.5407   ZZ=           -109.9416
   XY=             19.4917   XZ=              1.1545   YZ=              5.3670

 Summary of Natural Population Analysis:

                                       Natural Population
                Natural  -----------------------------------------------
    Atom  No    Charge         Core      Valence    Rydberg      Total
 -----------------------------------------------------------------------
      C    1   -0.11281      0.99958     2.10417    0.00906     3.11281
      C    2   -0.08262      0.99955     2.07408    0.00900     3.08262
      C    3   -0.06641      0.99946     2.05747    0.00948     3.06641
      C    4   -0.07176      0.99949     2.06396    0.00831     3.07176
      C    5    0.05927      0.99946     1.92877    0.01250     2.94073
      C    6   -0.08863      0.99952     2.08033    0.00878     3.08863
      N    7   -0.27036      0.99960     2.75981    0.01096     3.77036
      C    8    0.30093      0.99958     1.68100    0.01848     2.69907
      N    9   -0.43090      0.99972     2.92253    0.00864     3.93090
      N   10   -0.31528      0.99959     2.80533    0.01037     3.81528
      C   11    0.31377      0.99963     1.66910    0.01750     2.68623
      N   12   -0.41093      0.99971     2.90212    0.00911     3.91093
      N   13   -0.39665      0.99971     2.88693    0.01001     3.89665
      C   14    0.41791      0.99966     1.55808    0.02435     2.58209
      O   15   -0.31053      0.99987     3.30350    0.00716     4.31053
      O   16   -0.34927      0.99988     3.34373    0.00566     4.34927
      H   17    0.09385      0.00000     0.40512    0.00103     0.40615
      H   18    0.10601      0.00000     0.39292    0.00107     0.39399
      H   19    0.10835      0.00000     0.39007    0.00158     0.39165
      H   20    0.09671      0.00000     0.40203    0.00125     0.40329
      H   21    0.18878      0.00000     0.30997    0.00125     0.31122
      H   22    0.19738      0.00000     0.30117    0.00145     0.30262
      H   23    0.19713      0.00000     0.29588    0.00699     0.30287
      H   24    0.20373      0.00000     0.29439    0.00187     0.29627
      H   25    0.19489      0.00000     0.30294    0.00217     0.30511
      H   26    0.19360      0.00000     0.29626    0.01014     0.30640
      H   27    0.23382      0.00000     0.26323    0.00295     0.26618
 =======================================================================
   * Total *    0.00000     15.99401    41.79489    0.21111    58.00000

 Normal termination of Gaussian 16 at Fri Dec 11 01:25:52 2020.
