 Gaussian 16, Revision A.03,

 -----------------------------------------------------------
 # opt freq B3LYP/6-31G(d) empiricaldispersion=gd3bj scf=xqc
 -----------------------------------------------------------

 ------------------------------
 CID_79505076_JID_4817_neutraal
 ------------------------------
 Symbolic Z-matrix:
 Charge =  0 Multiplicity = 1

 SCF Done:  E(RB3LYP) =  -633.225390691     A.U. after   14 cycles
 SCF Done:  E(RB3LYP) =  -633.227138926     A.U. after   13 cycles
 SCF Done:  E(RB3LYP) =  -633.230601487     A.U. after   12 cycles
 SCF Done:  E(RB3LYP) =  -633.231880356     A.U. after   11 cycles
 SCF Done:  E(RB3LYP) =  -633.232137759     A.U. after   11 cycles
 SCF Done:  E(RB3LYP) =  -633.232452528     A.U. after   11 cycles
 SCF Done:  E(RB3LYP) =  -633.232624964     A.U. after   10 cycles
 SCF Done:  E(RB3LYP) =  -633.232700769     A.U. after   10 cycles
 SCF Done:  E(RB3LYP) =  -633.232730475     A.U. after    9 cycles
 SCF Done:  E(RB3LYP) =  -633.232751904     A.U. after   10 cycles
 SCF Done:  E(RB3LYP) =  -633.232763042     A.U. after    9 cycles
 SCF Done:  E(RB3LYP) =  -633.232774528     A.U. after   10 cycles
 SCF Done:  E(RB3LYP) =  -633.232782298     A.U. after   10 cycles
 SCF Done:  E(RB3LYP) =  -633.232788399     A.U. after    9 cycles
 SCF Done:  E(RB3LYP) =  -633.232789253     A.U. after    8 cycles
 SCF Done:  E(RB3LYP) =  -633.232789285     A.U. after    6 cycles
 Optimization completed.
    -- Stationary point found.
 Normal termination of Gaussian 16 at Thu Dec 10 10:46:23 2020.

 --------------------------------------------------------------------
 #N Geom=AllCheck Guess=TCheck SCRF=Check GenChk RB3LYP/6-31G(d) Freq
 --------------------------------------------------------------------

 Structure from the checkpoint file:  "JID_4817.chk"
 ------------------------------
 CID_79505076_JID_4817_neutraal
 ------------------------------
 Charge =  0 Multiplicity = 1

 SCF Done:  E(RB3LYP) =  -633.232789285     A.U. after    1 cycles

  Exact polarizability: 146.516   0.101 122.078   7.707   1.891 110.118
 Approx polarizability: 181.132   5.393 183.869  17.481   3.552 165.103

                      1                      2                      3
                      A                      A                      A
 Frequencies --     35.5733                62.1195                78.0331
 Red. masses --      3.6100                 3.0847                 2.5477
 Frc consts  --      0.0027                 0.0070                 0.0091
 IR Inten    --      0.3404                 0.9045                 2.7968

                      4                      5                      6
                      A                      A                      A
 Frequencies --     90.2724               103.2202               142.1616
 Red. masses --      2.5558                 3.5352                 2.9072
 Frc consts  --      0.0123                 0.0222                 0.0346
 IR Inten    --      0.5017                 1.0108                 1.3464

                      7                      8                      9
                      A                      A                      A
 Frequencies --    184.7489               215.5687               229.7945
 Red. masses --      3.9143                 2.5430                 1.2788
 Frc consts  --      0.0787                 0.0696                 0.0398
 IR Inten    --      1.4008                 2.9530                 2.3422

                     10                     11                     12
                      A                      A                      A
 Frequencies --    235.3465               255.0103               271.5933
 Red. masses --      1.4248                 1.3612                 2.1273
 Frc consts  --      0.0465                 0.0522                 0.0925
 IR Inten    --      3.5311                 0.2984                 6.1241

                     13                     14                     15
                      A                      A                      A
 Frequencies --    291.4207               306.3338               315.3908
 Red. masses --      1.8796                 1.5437                 2.1685
 Frc consts  --      0.0940                 0.0854                 0.1271
 IR Inten    --      2.7472                 2.2780                 0.3954

                     16                     17                     18
                      A                      A                      A
 Frequencies --    326.4935               334.3543               352.0268
 Red. masses --      2.1787                 1.9405                 1.9954
 Frc consts  --      0.1368                 0.1278                 0.1457
 IR Inten    --      1.1977                 1.0307                 0.3365

                     19                     20                     21
                      A                      A                      A
 Frequencies --    397.7037               449.7910               459.0756
 Red. masses --      2.4395                 2.4995                 1.7531
 Frc consts  --      0.2273                 0.2979                 0.2177
 IR Inten    --      7.8086                 0.8426                13.9210

                     22                     23                     24
                      A                      A                      A
 Frequencies --    479.4495               536.4523               544.7828
 Red. masses --      1.4134                 2.8812                 2.5838
 Frc consts  --      0.1914                 0.4885                 0.4518
 IR Inten    --     22.9147                 5.1698                 7.2654

                     25                     26                     27
                      A                      A                      A
 Frequencies --    610.1690               667.2143               671.4003
 Red. masses --      3.2159                 3.3997                 3.0405
 Frc consts  --      0.7054                 0.8917                 0.8075
 IR Inten    --     11.7039                38.2341                 2.4397

                     28                     29                     30
                      A                      A                      A
 Frequencies --    729.7334               786.7316               840.1726
 Red. masses --      5.1747                 2.6171                 1.6184
 Frc consts  --      1.6235                 0.9544                 0.6731
 IR Inten    --      8.4964                 3.1721               204.8822

                     31                     32                     33
                      A                      A                      A
 Frequencies --    848.4469               909.4451               933.6235
 Red. masses --      2.4197                 2.1211                 1.9795
 Frc consts  --      1.0263                 1.0337                 1.0166
 IR Inten    --     37.0576                 3.3865                 2.4662

                     34                     35                     36
                      A                      A                      A
 Frequencies --    947.1710               961.3850               981.2783
 Red. masses --      1.2350                 3.0108                 2.0154
 Frc consts  --      0.6528                 1.6395                 1.1434
 IR Inten    --      1.1037                 7.0276                 2.1237

                     37                     38                     39
                      A                      A                      A
 Frequencies --    982.9997              1011.2140              1035.2484
 Red. masses --      1.4083                 1.5310                 3.3570
 Frc consts  --      0.8018                 0.9224                 2.1198
 IR Inten    --      0.2553                 2.6231                75.4956

                     40                     41                     42
                      A                      A                      A
 Frequencies --   1056.9981              1088.5424              1117.9757
 Red. masses --      2.1642                 2.0544                 2.0989
 Frc consts  --      1.4246                 1.4343                 1.5456
 IR Inten    --     17.3471                22.0717                 8.2150

                     43                     44                     45
                      A                      A                      A
 Frequencies --   1134.6330              1160.9591              1169.4313
 Red. masses --      2.1138                 1.7432                 5.0210
 Frc consts  --      1.6033                 1.3843                 4.0456
 IR Inten    --     10.2792                 4.0801               149.8198

                     46                     47                     48
                      A                      A                      A
 Frequencies --   1188.0432              1194.9926              1213.1586
 Red. masses --      2.1455                 1.3646                 1.8948
 Frc consts  --      1.7842                 1.1481                 1.6430
 IR Inten    --      4.5957                 4.7194                36.4514

                     49                     50                     51
                      A                      A                      A
 Frequencies --   1214.6648              1220.7108              1250.8423
 Red. masses --      1.7383                 1.9421                 1.9048
 Frc consts  --      1.5111                 1.7051                 1.7559
 IR Inten    --      6.0037                52.3006                 2.4727

                     52                     53                     54
                      A                      A                      A
 Frequencies --   1276.3758              1289.6319              1298.5032
 Red. masses --      1.5426                 1.7242                 1.9042
 Frc consts  --      1.4806                 1.6895                 1.8917
 IR Inten    --      2.4473                 2.5933                21.3607

                     55                     56                     57
                      A                      A                      A
 Frequencies --   1349.1882              1361.6567              1369.7871
 Red. masses --      1.4463                 1.2929                 1.3751
 Frc consts  --      1.5512                 1.4124                 1.5201
 IR Inten    --     24.6429                20.1139                 4.1913

                     58                     59                     60
                      A                      A                      A
 Frequencies --   1400.6334              1407.9426              1429.6652
 Red. masses --      1.3816                 1.4593                 1.2584
 Frc consts  --      1.5969                 1.7044                 1.5155
 IR Inten    --      9.2334                54.1454                 6.2307

                     61                     62                     63
                      A                      A                      A
 Frequencies --   1437.9221              1438.1748              1451.1956
 Red. masses --      1.3486                 1.3331                 1.2295
 Frc consts  --      1.6429                 1.6246                 1.5255
 IR Inten    --     14.0141                 9.0195                 5.1555

                     64                     65                     66
                      A                      A                      A
 Frequencies --   1478.2680              1501.7056              1511.1079
 Red. masses --      1.5871                 1.1531                 1.4093
 Frc consts  --      2.0434                 1.5321                 1.8960
 IR Inten    --     66.6428                 4.9925                76.1038

                     67                     68                     69
                      A                      A                      A
 Frequencies --   1514.6074              1518.4462              1525.5374
 Red. masses --      1.0502                 1.0793                 1.0491
 Frc consts  --      1.4195                 1.4661                 1.4385
 IR Inten    --      6.5329                 7.6975                 3.5676

                     70                     71                     72
                      A                      A                      A
 Frequencies --   1528.6361              1529.4969              1534.9428
 Red. masses --      1.1143                 1.0700                 1.0854
 Frc consts  --      1.5341                 1.4748                 1.5066
 IR Inten    --     26.3571                 4.7699                17.4301

                     73                     74                     75
                      A                      A                      A
 Frequencies --   1535.8300              1543.8391              1549.4435
 Red. masses --      1.0736                 1.0572                 1.1038
 Frc consts  --      1.4921                 1.4845                 1.5614
 IR Inten    --     16.2103                 1.0948                 5.7618

                     76                     77                     78
                      A                      A                      A
 Frequencies --   1550.9991              1679.9510              1731.4669
 Red. masses --      1.0555                 1.4541                 3.0452
 Frc consts  --      1.4960                 2.4179                 5.3789
 IR Inten    --     12.0268               107.0096               249.9812

                     79                     80                     81
                      A                      A                      A
 Frequencies --   2980.8160              2991.9918              3004.1138
 Red. masses --      1.0592                 1.0746                 1.0385
 Frc consts  --      5.5447                 5.6676                 5.5221
 IR Inten    --     48.4101                70.4725                86.7526

                     82                     83                     84
                      A                      A                      A
 Frequencies --   3025.9376              3035.2252              3042.7103
 Red. masses --      1.0886                 1.0781                 1.0538
 Frc consts  --      5.8727                 5.8517                 5.7483
 IR Inten    --      9.3085                 5.3286                 5.9782

                     85                     86                     87
                      A                      A                      A
 Frequencies --   3043.5362              3048.7639              3052.4909
 Red. masses --      1.0719                 1.0385                 1.1052
 Frc consts  --      5.8499                 5.6875                 6.0675
 IR Inten    --     93.7295                13.2902                42.9168

                     88                     89                     90
                      A                      A                      A
 Frequencies --   3053.4638              3091.3536              3098.5332
 Red. masses --      1.0388                 1.0900                 1.0999
 Frc consts  --      5.7066                 6.1372                 6.2219
 IR Inten    --     37.8998                38.7254                25.9620

                     91                     92                     93
                      A                      A                      A
 Frequencies --   3110.9910              3114.7004              3122.6105
 Red. masses --      1.1012                 1.0987                 1.1004
 Frc consts  --      6.2791                 6.2803                 6.3215
 IR Inten    --     63.0034                25.2270                34.4930

                     94                     95                     96
                      A                      A                      A
 Frequencies --   3135.2576              3138.0403              3143.8051
 Red. masses --      1.1016                 1.0967                 1.0938
 Frc consts  --      6.3800                 6.3626                 6.3695
 IR Inten    --     24.2552                38.8843                 9.8942

                     97                     98                     99
                      A                      A                      A
 Frequencies --   3144.4747              3506.0522              3621.2985
 Red. masses --      1.0981                 1.0514                 1.0932
 Frc consts  --      6.3969                 7.6149                 8.4465
 IR Inten    --     25.5825                96.5454                52.9101

 - Thermochemistry -
 -------------------
 Temperature   298.150 Kelvin.  Pressure   1.00000 Atm.
 Atom     1 has atomic number  6 and mass  12.00000

 Molecular mass:   199.16846 amu.
 Principal axes and moments of inertia in atomic units:
                           1         2         3
     Eigenvalues --  1584.412874064.574884533.21741
           X            0.99997  -0.00508  -0.00576
           Y            0.00512   0.99997   0.00634
           Z            0.00573  -0.00637   0.99996
 This molecule is an asymmetric top.
 Rotational symmetry number  1.
 Warning -- assumption of classical behavior for rotation
           may cause significant error
 Rotational temperatures (Kelvin)      0.05467     0.02131     0.01911
 Rotational constants (GHZ):           1.13906     0.44402     0.39811
 Zero-point vibrational energy     830657.1 (Joules/Mol)
                                  198.53181 (Kcal/Mol)
 Warning -- explicit consideration of  25 degrees of freedom as
           vibrations may cause significant error
 Vibrational temperatures:     51.18    89.38   112.27   129.88   148.51
          (Kelvin)            204.54   265.81   310.16   330.62   338.61
                              366.90   390.76   419.29   440.75   453.78
                              469.75   481.06   506.49   572.21   647.15
                              660.51   689.82   771.84   783.82   877.90
                              959.97   966.00  1049.92  1131.93  1208.82
                             1220.73  1308.49  1343.28  1362.77  1383.22
                             1411.84  1414.32  1454.91  1489.49  1520.78
                             1566.17  1608.52  1632.48  1670.36  1682.55
                             1709.33  1719.33  1745.46  1747.63  1756.33
                             1799.68  1836.42  1855.49  1868.26  1941.18
                             1959.12  1970.82  2015.20  2025.72  2056.97
                             2068.85  2069.21  2087.95  2126.90  2160.62
                             2174.15  2179.18  2184.71  2194.91  2199.37
                             2200.60  2208.44  2209.72  2221.24  2229.30
                             2231.54  2417.07  2491.19  4288.73  4304.81
                             4322.25  4353.65  4367.01  4377.78  4378.97
                             4386.49  4391.85  4393.25  4447.77  4458.10
                             4476.02  4481.36  4492.74  4510.94  4514.94
                             4523.23  4524.20  5044.43  5210.24

 Zero-point correction=                           0.316381 (Hartree/Particle)
 Thermal correction to Energy=                    0.332174
 Thermal correction to Enthalpy=                  0.333118
 Thermal correction to Gibbs Free Energy=         0.273985
 Sum of electronic and zero-point Energies=           -632.916409
 Sum of electronic and thermal Energies=              -632.900616
 Sum of electronic and thermal Enthalpies=            -632.899671
 Sum of electronic and thermal Free Energies=         -632.958805

                     E (Thermal)             CV                S
                      KCal/Mol        Cal/Mol-Kelvin    Cal/Mol-Kelvin
 Total                  208.442             59.857            124.457
 Electronic               0.000              0.000              0.000
 Translational            0.889              2.981             41.772
 Rotational               0.889              2.981             31.746
 Vibrational            206.665             53.896             50.939
 Vibration     1          0.594              1.982              5.492
 Vibration     2          0.597              1.972              4.389
 Vibration     3          0.599              1.964              3.940
 Vibration     4          0.602              1.956              3.654
 Vibration     5          0.605              1.947              3.393
 Vibration     6          0.616              1.911              2.775
 Vibration     7          0.631              1.861              2.280
 Vibration     8          0.645              1.817              1.996
 Vibration     9          0.652              1.796              1.881
 Vibration    10          0.655              1.787              1.838
 Vibration    11          0.665              1.754              1.696
 Vibration    12          0.675              1.726              1.586
 Vibration    13          0.687              1.690              1.466
 Vibration    14          0.697              1.662              1.382
 Vibration    15          0.703              1.644              1.334
 Vibration    16          0.710              1.623              1.277
 Vibration    17          0.716              1.607              1.239
 Vibration    18          0.729              1.571              1.157
 Vibration    19          0.764              1.475              0.971
 Vibration    20          0.809              1.361              0.796
 Vibration    21          0.817              1.341              0.769
 Vibration    22          0.836              1.296              0.712
 Vibration    23          0.891              1.169              0.573
 Vibration    24          0.900              1.151              0.555
 Vibration    25          0.969              1.010              0.432

                           ! Non-Optimized Parameters !
 Normal termination of Gaussian 16 at Thu Dec 10 10:58:12 2020.

 ----------------------------------------------------------------------
 # B3LYP/6-311++G(d,p) empiricaldispersion=gd3bj scf=xqc pop=npa geom=c
 heck
 ----------------------------------------------------------------------

 --------------------------------------
 CID_79505076_JID_4817_Energie_neutraal
 --------------------------------------
 Structure from the checkpoint file:  "JID_4817.chk"
 Charge =  0 Multiplicity = 1

 SCF Done:  E(RB3LYP) =  -633.418792010     A.U. after   14 cycles
 Normal termination of Gaussian 16 at Thu Dec 10 11:04:00 2020.

 ----------------------------------------------------------------------
 # B3LYP/6-311++G(d,p) empiricaldispersion=gd3bj scf=xqc pop=npa geom=c
 heck
 ----------------------------------------------------------------------

 ------------------------------------
 CID_79505076_JID_4817_Energie_kation
 ------------------------------------
 Structure from the checkpoint file:  "JID_4817.chk"
 Charge =  1 Multiplicity = 2

 SCF Done:  E(UB3LYP) =  -633.156375828     A.U. after   19 cycles
 Normal termination of Gaussian 16 at Thu Dec 10 11:12:26 2020.
 Gaussian 16:  ES64L-G16RevA.03 25-Dec-2016

 ----------------------------------------------------------------------
 # B3LYP/6-311++G(d,p) empiricaldispersion=gd3bj scf=xqc pop=npa geom=c
 heck
 ----------------------------------------------------------------------

 -----------------------------------
 CID_79505076_JID_4817_Energie_anion
 -----------------------------------
 Structure from the checkpoint file:  "JID_4817.chk"
 Charge = -1 Multiplicity = 2

                         Standard orientation:
 ---------------------------------------------------------------------
 Center     Atomic      Atomic             Coordinates (Angstroms)
 Number     Number       Type             X           Y           Z
 ---------------------------------------------------------------------
      1          6           0        3.757206   -0.316452    0.173642
      2          6           0        2.385834   -0.182675   -0.507718
      3          6           0        2.198423   -1.339971   -1.497195
      4          6           0        1.230601    0.003093    0.531080
      5          6           0        1.293446    1.459751    1.087890
      6          7           0        0.399515    2.273724    0.258046
      7          6           0       -0.360597    1.430374   -0.354129
      8          7           0       -0.091962    0.085509   -0.134666
      9          6           0       -0.845649   -1.024686   -0.671034
     10          6           0       -2.131456   -1.334842    0.093145
     11          8           0       -3.081632   -0.311045   -0.154782
     12          6           0       -4.252209   -0.436029    0.626522
     13          7           0       -1.363556    1.782401   -1.241909
     14          6           0        1.234913   -1.056571    1.632436
     15          1           0        3.870494   -1.297491    0.649912
     16          1           0        3.922200    0.448866    0.938938
     17          1           0        4.558009   -0.219155   -0.567759
     18          1           0        2.388856    0.745740   -1.094756
     19          1           0        2.099745   -2.306324   -0.986099
     20          1           0        1.326009   -1.195011   -2.138985
     21          1           0        3.074612   -1.412746   -2.151811
     22          1           0        0.954669    1.486858    2.136311
     23          1           0        2.314037    1.854303    1.069736
     24          1           0       -1.096463   -0.851148   -1.726841
     25          1           0       -0.221759   -1.919447   -0.634512
     26          1           0       -2.536821   -2.306765   -0.236664
     27          1           0       -1.916664   -1.400666    1.170741
     28          1           0       -4.771075   -1.385230    0.422480
     29          1           0       -4.023320   -0.385312    1.701707
     30          1           0       -4.909611    0.394934    0.360258
     31          1           0       -1.551294    2.776409   -1.173646
     32          1           0       -2.207546    1.226824   -1.123038
     33          1           0        1.190802   -2.076746    1.232534
     34          1           0        2.142514   -0.982445    2.238627
     35          1           0        0.374603   -0.910474    2.293000
 ---------------------------------------------------------------------

 SCF Done:  E(UB3LYP) =  -633.406140474     A.U. after   32 cycles

 The electronic state is 2-A.
 Alpha  occ. eigenvalues --  -19.03948 -14.22542 -14.21561 -14.16228 -10.15547
 Alpha  occ. eigenvalues --  -10.12116 -10.11885 -10.11642 -10.11134 -10.08740
 Alpha  occ. eigenvalues --  -10.08059 -10.06792 -10.06470 -10.06439  -0.95175
 Alpha  occ. eigenvalues --   -0.89626  -0.80082  -0.76721  -0.71491  -0.66425
 Alpha  occ. eigenvalues --   -0.64610  -0.59374  -0.58814  -0.57848  -0.53189
 Alpha  occ. eigenvalues --   -0.51518  -0.48425  -0.44130  -0.42973  -0.40408
 Alpha  occ. eigenvalues --   -0.39759  -0.39032  -0.37419  -0.36986  -0.35833
 Alpha  occ. eigenvalues --   -0.35043  -0.32709  -0.32352  -0.30938  -0.30429
 Alpha  occ. eigenvalues --   -0.29891  -0.29529  -0.28853  -0.28214  -0.27589
 Alpha  occ. eigenvalues --   -0.26913  -0.25631  -0.24403  -0.24239  -0.23406
 Alpha  occ. eigenvalues --   -0.22993  -0.17721  -0.15875  -0.15518  -0.10334
 Alpha  occ. eigenvalues --    0.04276
 Alpha virt. eigenvalues --    0.05995   0.07269   0.07419   0.08391   0.08890
 Alpha virt. eigenvalues --    0.08949   0.09942   0.10449   0.10845   0.11062
 Alpha virt. eigenvalues --    0.11337   0.12100   0.12820   0.13136   0.13548

  Beta  occ. eigenvalues --  -19.03936 -14.22537 -14.21557 -14.16224 -10.15546
  Beta  occ. eigenvalues --  -10.12082 -10.11883 -10.11590 -10.11120 -10.08736
  Beta  occ. eigenvalues --  -10.08055 -10.06771 -10.06438 -10.06415  -0.95154
  Beta  occ. eigenvalues --   -0.89617  -0.80075  -0.76710  -0.71474  -0.66390
  Beta  occ. eigenvalues --   -0.64577  -0.59329  -0.58742  -0.57813  -0.53111
  Beta  occ. eigenvalues --   -0.51470  -0.48400  -0.44102  -0.42955  -0.40341
  Beta  occ. eigenvalues --   -0.39731  -0.39001  -0.37394  -0.36964  -0.35790
  Beta  occ. eigenvalues --   -0.35014  -0.32686  -0.32311  -0.30906  -0.30398
  Beta  occ. eigenvalues --   -0.29861  -0.29505  -0.28823  -0.28179  -0.27557
  Beta  occ. eigenvalues --   -0.26885  -0.25608  -0.24350  -0.24214  -0.23366
  Beta  occ. eigenvalues --   -0.22962  -0.17692  -0.15859  -0.15497  -0.10312
  Beta virt. eigenvalues --    0.06406   0.07021   0.07811   0.08058   0.08732
  Beta virt. eigenvalues --    0.09346   0.09528   0.10260   0.10834   0.11140
  Beta virt. eigenvalues --    0.11542   0.11711   0.12312   0.13069   0.13545

 Mulliken charges and spin densities:
               1          2
     1  C    0.025680  -0.661637
     2  C   -0.804537   1.322968
     3  C    0.560503  -1.221160
     4  C   -0.829181   0.296761
     5  C   -0.330454  -0.342296
     6  N   -0.142233   0.017199
     7  C    0.017296   0.064395
     8  N    0.297540   0.066422
     9  C   -0.517172   0.265517
    10  C    0.500645  -0.874375
    11  O   -0.301225   0.094564
    12  C    1.081301  -1.318480
    13  N   -0.368014   0.040538
    14  C    1.147144  -1.655229
    15  H   -0.177965   0.335487
    16  H   -0.044928   0.159814
    17  H   -0.005373   0.143675
    18  H    0.184498   0.013969
    19  H   -0.058869   0.233760
    20  H   -0.006977   0.158805
    21  H   -0.136457   0.289638
    22  H   -0.002099   0.162683
    23  H    0.170497  -0.017293
    24  H    0.112926   0.112124
    25  H   -0.054776   0.186521
    26  H   -0.429847   0.596130
    27  H    0.064219   0.084467
    28  H   -0.451835   0.591364
    29  H   -0.335774   0.476728
    30  H   -0.383146   0.520402
    31  H    0.218681   0.052744
    32  H    0.308712  -0.012592
    33  H   -0.383383   0.551967
    34  H   -0.026067   0.190005
    35  H    0.100670   0.074415
 Sum of Mulliken charges =  -1.00000   1.00000

 Dipole moment (field-independent basis, Debye):
    X=              3.7913    Y=              3.7037    Z=             -1.5921  Tot=              5.5342
 Quadrupole moment (field-independent basis, Debye-Ang):
   XX=           -168.0996   YY=           -140.9957   ZZ=           -122.7979
   XY=             -5.4652   XZ=              5.2402   YZ=              0.6433

 Summary of Natural Population Analysis:

                                       Natural Population
                Natural  -----------------------------------------------
    Atom  No    Charge         Core      Valence    Rydberg      Total
 -----------------------------------------------------------------------
      C    1   -0.28738      0.99965     2.28173    0.00600     3.28738
      C    2   -0.11728      0.99956     2.10741    0.01031     3.11728
      C    3   -0.28732      0.99964     2.28161    0.00607     3.28732
      C    4    0.07589      0.99955     1.90971    0.01485     2.92411
      C    5   -0.08911      0.99957     2.07823    0.01131     3.08911
      N    6   -0.31381      0.99968     2.80287    0.01126     3.81381
      C    7    0.31300      0.99958     1.66951    0.01792     2.68700
      N    8   -0.27723      0.99960     2.76447    0.01316     3.77723
      C    9   -0.10123      0.99960     2.08794    0.01368     3.10123
      C   10   -0.00764      0.99957     1.99609    0.01198     3.00764
      O   11   -0.31117      0.99988     3.30029    0.01100     4.31117
      C   12   -0.09425      0.99962     2.08566    0.00896     3.09425
      N   13   -0.41169      0.99970     2.90357    0.00842     3.91169
      C   14   -0.29662      0.99961     2.28887    0.00815     3.29662
      H   15    0.09912      0.00000     0.39992    0.00096     0.40088
      H   16    0.09824      0.00000     0.40077    0.00099     0.40176
      H   17    0.09924      0.00000     0.40002    0.00075     0.40076
      H   18    0.09847      0.00000     0.39963    0.00190     0.40153
      H   19    0.09818      0.00000     0.40055    0.00126     0.40182
      H   20    0.10115      0.00000     0.39764    0.00121     0.39885
      H   21    0.09939      0.00000     0.39981    0.00080     0.40061
      H   22    0.08766      0.00000     0.41085    0.00149     0.41234
      H   23    0.09083      0.00000     0.40766    0.00151     0.40917
      H   24    0.10000      0.00000     0.39834    0.00167     0.40000
      H   25    0.10940      0.00000     0.38898    0.00163     0.39060
      H   26    0.08360      0.00000     0.41408    0.00232     0.41640
      H   27    0.08344      0.00000     0.41421    0.00235     0.41656
      H   28    0.08299      0.00000     0.41434    0.00266     0.41701
      H   29    0.08200      0.00000     0.41616    0.00184     0.41800
      H   30    0.09010      0.00000     0.40840    0.00149     0.40990
      H   31    0.18776      0.00000     0.31019    0.00205     0.31224
      H   32    0.20181      0.00000     0.29579    0.00240     0.29819
      H   33    0.10277      0.00000     0.39571    0.00153     0.39723
      H   34    0.10415      0.00000     0.39486    0.00100     0.39585
      H   35    0.10556      0.00000     0.39291    0.00153     0.39444
 =======================================================================
   * Total *   -0.00000     13.99479    40.81879    0.18642    55.00000

 Normal termination of Gaussian 16 at Thu Dec 10 11:25:46 2020.
