 Gaussian 16, Revision A.03,

 -----------------------------------------------------------
 # opt freq B3LYP/6-31G(d) empiricaldispersion=gd3bj scf=xqc
 -----------------------------------------------------------

 ------------------------------
 CID_90456781_JID_5787_neutraal
 ------------------------------
 Symbolic Z-matrix:
 Charge =  0 Multiplicity = 1

 SCF Done:  E(RB3LYP) =  -708.683874885     A.U. after   15 cycles
 SCF Done:  E(RB3LYP) =  -708.687035330     A.U. after   13 cycles
 SCF Done:  E(RB3LYP) =  -708.686645554     A.U. after   12 cycles
 SCF Done:  E(RB3LYP) =  -708.687700094     A.U. after   12 cycles
 SCF Done:  E(RB3LYP) =  -708.687946782     A.U. after   11 cycles
 SCF Done:  E(RB3LYP) =  -708.688019879     A.U. after   12 cycles
 SCF Done:  E(RB3LYP) =  -708.688045611     A.U. after   11 cycles
 SCF Done:  E(RB3LYP) =  -708.688049398     A.U. after   10 cycles
 SCF Done:  E(RB3LYP) =  -708.688050903     A.U. after    9 cycles
 SCF Done:  E(RB3LYP) =  -708.688051039     A.U. after    7 cycles
 SCF Done:  E(RB3LYP) =  -708.688051089     A.U. after    7 cycles
 Optimization completed.
    -- Stationary point found.
 Normal termination of Gaussian 16 at Thu Dec 10 17:06:33 2020.

 --------------------------------------------------------------------
 #N Geom=AllCheck Guess=TCheck SCRF=Check GenChk RB3LYP/6-31G(d) Freq
 --------------------------------------------------------------------

 Structure from the checkpoint file:  "JID_5787.chk"
 ------------------------------
 CID_90456781_JID_5787_neutraal
 ------------------------------
 Charge =  0 Multiplicity = 1

 SCF Done:  E(RB3LYP) =  -708.688051089     A.U. after    1 cycles

  Exact polarizability: 167.979  -0.861 138.624   3.238  -3.944  81.173
 Approx polarizability: 235.683   5.860 222.764   7.929  -9.525 114.701

                      1                      2                      3
                      A                      A                      A
 Frequencies --     25.6293                35.2408                62.4547
 Red. masses --      3.8859                 3.8268                 4.0276
 Frc consts  --      0.0015                 0.0028                 0.0093
 IR Inten    --      0.1026                 0.3886                 2.5790

                      4                      5                      6
                      A                      A                      A
 Frequencies --     90.6199               114.8923               117.2898
 Red. masses --      4.5916                 3.3927                 3.1351
 Frc consts  --      0.0222                 0.0264                 0.0254
 IR Inten    --      0.4508                 0.1967                 0.0887

                      7                      8                      9
                      A                      A                      A
 Frequencies --    181.4065               207.4461               245.5798
 Red. masses --      4.7612                 1.8212                 1.6103
 Frc consts  --      0.0923                 0.0462                 0.0572
 IR Inten    --      0.4507                 2.8907                 2.9726

                     10                     11                     12
                      A                      A                      A
 Frequencies --    249.3855               276.7887               279.9842
 Red. masses --      1.0579                 1.0619                 1.2020
 Frc consts  --      0.0388                 0.0479                 0.0555
 IR Inten    --      2.3732               114.2440                 0.1608

                     13                     14                     15
                      A                      A                      A
 Frequencies --    309.9020               313.6085               321.7104
 Red. masses --      3.5349                 3.4800                 2.5244
 Frc consts  --      0.2000                 0.2017                 0.1539
 IR Inten    --      0.9230                 3.5667                 5.4662

                     16                     17                     18
                      A                      A                      A
 Frequencies --    352.3710               360.2790               418.7660
 Red. masses --      3.3296                 5.7638                 3.4376
 Frc consts  --      0.2436                 0.4408                 0.3552
 IR Inten    --      5.4231                 4.4322                 0.7771

                     19                     20                     21
                      A                      A                      A
 Frequencies --    435.3600               450.3585               478.4440
 Red. masses --      3.5616                 3.8806                 3.4018
 Frc consts  --      0.3977                 0.4637                 0.4588
 IR Inten    --      2.7318                 4.0257                 0.2924

                     22                     23                     24
                      A                      A                      A
 Frequencies --    525.9253               566.6439               605.5921
 Red. masses --      4.9625                 3.0983                 5.1854
 Frc consts  --      0.8087                 0.5861                 1.1205
 IR Inten    --      3.6407                17.9809                26.0161

                     25                     26                     27
                      A                      A                      A
 Frequencies --    712.0215               742.5505               754.3450
 Red. masses --      6.1312                 4.4840                 3.5000
 Frc consts  --      1.8314                 1.4567                 1.1734
 IR Inten    --      5.4422                 2.2256                20.0894

                     28                     29                     30
                      A                      A                      A
 Frequencies --    788.8872               809.5187               862.6155
 Red. masses --      4.3150                 1.6144                 2.7495
 Frc consts  --      1.5822                 0.6233                 1.2054
 IR Inten    --      8.3057                11.2307                 5.0165

                     31                     32                     33
                      A                      A                      A
 Frequencies --    885.9224               892.0705               921.6919
 Red. masses --      1.4645                 2.7485                 2.8043
 Frc consts  --      0.6772                 1.2887                 1.4036
 IR Inten    --     11.8153                 8.9576                 2.3139

                     34                     35                     36
                      A                      A                      A
 Frequencies --    935.9850               937.3633               985.6258
 Red. masses --      1.4754                 1.4538                 2.1137
 Frc consts  --      0.7615                 0.7526                 1.2098
 IR Inten    --      1.0114                 2.3022                 8.7234

                     37                     38                     39
                      A                      A                      A
 Frequencies --    997.3921              1018.4040              1036.7721
 Red. masses --      1.3817                 7.3845                 1.3058
 Frc consts  --      0.8098                 4.5124                 0.8270
 IR Inten    --      0.1728                 9.7866                 0.4841

                     40                     41                     42
                      A                      A                      A
 Frequencies --   1048.2558              1124.5108              1132.6999
 Red. masses --      3.7064                 1.8981                 1.7096
 Frc consts  --      2.3996                 1.4141                 1.2923
 IR Inten    --     23.3668                34.8300                94.1120

                     43                     44                     45
                      A                      A                      A
 Frequencies --   1137.1956              1158.4401              1202.3536
 Red. masses --      1.7636                 1.9907                 1.9518
 Frc consts  --      1.3438                 1.5740                 1.6625
 IR Inten    --      9.9453                29.1344               245.7756

                     46                     47                     48
                      A                      A                      A
 Frequencies --   1208.0401              1214.4462              1223.9717
 Red. masses --      3.5292                 2.0336                 2.4830
 Frc consts  --      3.0345                 1.7671                 2.1916
 IR Inten    --     18.4629               177.5009                 3.9400

                     49                     50                     51
                      A                      A                      A
 Frequencies --   1288.8253              1324.4401              1343.2085
 Red. masses --      2.4979                 7.1723                 1.1868
 Frc consts  --      2.4447                 7.4127                 1.2616
 IR Inten    --    185.3058                 2.6787                 3.4459

                     52                     53                     54
                      A                      A                      A
 Frequencies --   1348.5937              1403.1471              1419.3824
 Red. masses --      1.5703                 1.9323                 1.2957
 Frc consts  --      1.6827                 2.2415                 1.5380
 IR Inten    --     57.4681                60.1650                14.6915

                     55                     56                     57
                      A                      A                      A
 Frequencies --   1424.9062              1432.0135              1443.7286
 Red. masses --      1.2402                 2.4177                 1.3149
 Frc consts  --      1.4836                 2.9212                 1.6148
 IR Inten    --      6.8876                 6.0678                10.5194

                     58                     59                     60
                      A                      A                      A
 Frequencies --   1447.7646              1510.0527              1514.6597
 Red. masses --      1.4147                 1.0475                 1.0501
 Frc consts  --      1.7471                 1.4073                 1.4194
 IR Inten    --      8.3486                 0.0027                 1.4412

                     61                     62                     63
                      A                      A                      A
 Frequencies --   1515.5401              1518.6245              1522.6702
 Red. masses --      1.0584                 1.0912                 1.9351
 Frc consts  --      1.4323                 1.4827                 2.6434
 IR Inten    --     11.1308                 4.2052                 1.4935

                     64                     65                     66
                      A                      A                      A
 Frequencies --   1528.7920              1538.3852              1539.5679
 Red. masses --      1.0638                 1.0580                 1.2065
 Frc consts  --      1.4649                 1.4753                 1.6849
 IR Inten    --      2.5366                 8.4848                 5.8667

                     67                     68                     69
                      A                      A                      A
 Frequencies --   1618.3871              1651.9616              1826.9767
 Red. masses --      7.8157                 5.5390                11.9138
 Frc consts  --     12.0610                 8.9059                23.4297
 IR Inten    --      9.3613                57.6409               209.3667

                     70                     71                     72
                      A                      A                      A
 Frequencies --   3045.9299              3051.3044              3061.3701
 Red. masses --      1.0396                 1.0394                 1.0364
 Frc consts  --      5.6829                 5.7020                 5.7229
 IR Inten    --     10.3133                39.7732                18.7382

                     73                     74                     75
                      A                      A                      A
 Frequencies --   3092.8925              3115.4756              3121.5479
 Red. masses --      1.0588                 1.0970                 1.0968
 Frc consts  --      5.9676                 6.2734                 6.2968
 IR Inten    --     30.2498                 4.0510                55.5656

                     76                     77                     78
                      A                      A                      A
 Frequencies --   3126.2896              3140.5365              3144.5197
 Red. masses --      1.1022                 1.1044                 1.1034
 Frc consts  --      6.3472                 6.4179                 6.4284
 IR Inten    --     25.9257                 9.3202                11.8030

                     79                     80                     81
                      A                      A                      A
 Frequencies --   3146.4558              3159.7225              3174.5234
 Red. masses --      1.1034                 1.1066                 1.0904
 Frc consts  --      6.4363                 6.5091                 6.4743
 IR Inten    --     19.3937                25.0148                33.2587

                     82                     83                     84
                      A                      A                      A
 Frequencies --   3240.0074              3252.7312              3751.9579
 Red. masses --      1.0902                 1.0920                 1.0661
 Frc consts  --      6.7429                 6.8075                 8.8424
 IR Inten    --      2.1564                 1.9534                12.7986

 - Thermochemistry -
 -------------------
 Temperature   298.150 Kelvin.  Pressure   1.00000 Atm.
 Atom     1 has atomic number  6 and mass  12.00000

 Molecular mass:   209.10519 amu.
 Principal axes and moments of inertia in atomic units:
                           1         2         3
     Eigenvalues --  1704.351845479.452136623.38748
           X            0.99997  -0.00548  -0.00569
           Y            0.00549   0.99998   0.00243
           Z            0.00568  -0.00246   0.99998
 This molecule is an asymmetric top.
 Rotational symmetry number  1.
 Warning -- assumption of classical behavior for rotation
           may cause significant error
 Rotational temperatures (Kelvin)      0.05082     0.01581     0.01308
 Rotational constants (GHZ):           1.05890     0.32937     0.27248
 Zero-point vibrational energy     655216.5 (Joules/Mol)
                                  156.60051 (Kcal/Mol)
 Warning -- explicit consideration of  24 degrees of freedom as
           vibrations may cause significant error
 Vibrational temperatures:     36.87    50.70    89.86   130.38   165.30
          (Kelvin)            168.75   261.00   298.47   353.33   358.81
                              398.24   402.83   445.88   451.21   462.87
                              506.98   518.36   602.51   626.39   647.97
                              688.37   756.69   815.27   871.31  1024.44
                             1068.36  1085.33  1135.03  1164.72  1241.11
                             1274.64  1283.49  1326.11  1346.67  1348.66
                             1418.10  1435.02  1465.26  1491.68  1508.21
                             1617.92  1629.70  1636.17  1666.74  1729.92
                             1738.10  1747.32  1761.02  1854.33  1905.57
                             1932.58  1940.33  2018.82  2042.17  2050.12
                             2060.35  2077.20  2083.01  2172.63  2179.26
                             2180.52  2184.96  2190.78  2199.59  2213.39
                             2215.09  2328.50  2376.80  2628.61  4382.41
                             4390.15  4404.63  4449.98  4482.47  4491.21
                             4498.03  4518.53  4524.26  4527.05  4546.14
                             4567.43  4661.65  4679.95  5398.23

 Zero-point correction=                           0.249559 (Hartree/Particle)
 Thermal correction to Energy=                    0.264876
 Thermal correction to Enthalpy=                  0.265821
 Thermal correction to Gibbs Free Energy=         0.206144
 Sum of electronic and zero-point Energies=           -708.438492
 Sum of electronic and thermal Energies=              -708.423175
 Sum of electronic and thermal Enthalpies=            -708.422231
 Sum of electronic and thermal Free Energies=         -708.481907

                     E (Thermal)             CV                S
                      KCal/Mol        Cal/Mol-Kelvin    Cal/Mol-Kelvin
 Total                  166.212             57.159            125.600
 Electronic               0.000              0.000              0.000
 Translational            0.889              2.981             41.917
 Rotational               0.889              2.981             32.492
 Vibrational            164.435             51.198             51.191
 Vibration     1          0.593              1.985              6.142
 Vibration     2          0.594              1.982              5.510
 Vibration     3          0.597              1.972              4.378
 Vibration     4          0.602              1.956              3.647
 Vibration     5          0.608              1.937              3.185
 Vibration     6          0.608              1.935              3.145
 Vibration     7          0.630              1.865              2.314
 Vibration     8          0.641              1.829              2.066
 Vibration     9          0.660              1.770              1.762
 Vibration    10          0.662              1.764              1.735
 Vibration    11          0.678              1.716              1.553
 Vibration    12          0.680              1.711              1.534
 Vibration    13          0.699              1.655              1.363
 Vibration    14          0.701              1.648              1.343
 Vibration    15          0.707              1.632              1.301
 Vibration    16          0.729              1.570              1.156
 Vibration    17          0.735              1.554              1.121
 Vibration    18          0.782              1.429              0.896
 Vibration    19          0.796              1.393              0.841
 Vibration    20          0.809              1.360              0.795
 Vibration    21          0.835              1.298              0.714
 Vibration    22          0.881              1.193              0.596
 Vibration    23          0.923              1.103              0.511
 Vibration    24          0.964              1.020              0.440

 Optimization completed.
    -- Stationary point found.
 Normal termination of Gaussian 16 at Thu Dec 10 17:15:35 2020.

 ----------------------------------------------------------------------
 # B3LYP/6-311++G(d,p) empiricaldispersion=gd3bj scf=xqc pop=npa geom=c
 heck
 ----------------------------------------------------------------------

 --------------------------------------
 CID_90456781_JID_5787_Energie_neutraal
 --------------------------------------
 Structure from the checkpoint file:  "JID_5787.chk"
 Charge =  0 Multiplicity = 1

 SCF Done:  E(RB3LYP) =  -708.895101949     A.U. after   15 cycles
 Normal termination of Gaussian 16 at Thu Dec 10 17:20:57 2020.

 ----------------------------------------------------------------------
 # B3LYP/6-311++G(d,p) empiricaldispersion=gd3bj scf=xqc pop=npa geom=c
 heck
 ----------------------------------------------------------------------

 ------------------------------------
 CID_90456781_JID_5787_Energie_kation
 ------------------------------------
 Structure from the checkpoint file:  "JID_5787.chk"
 Charge =  1 Multiplicity = 2

 SCF Done:  E(UB3LYP) =  -708.554203045     A.U. after   33 cycles
 SCF Done:  E(UB3LYP) =  -708.554799514     a.u. after   11 cycles
 Normal termination of Gaussian 16 at Thu Dec 10 19:26:22 2020.
 Gaussian 16:  ES64L-G16RevA.03 25-Dec-2016

 ----------------------------------------------------------------------
 # B3LYP/6-311++G(d,p) empiricaldispersion=gd3bj scf=xqc pop=npa geom=c
 heck
 ----------------------------------------------------------------------

 -----------------------------------
 CID_90456781_JID_5787_Energie_anion
 -----------------------------------
 Structure from the checkpoint file:  "JID_5787.chk"
 Charge = -1 Multiplicity = 2

                         Standard orientation:
 ---------------------------------------------------------------------
 Center     Atomic      Atomic             Coordinates (Angstroms)
 Number     Number       Type             X           Y           Z
 ---------------------------------------------------------------------
      1          6           0        4.343005   -1.378177   -0.869022
      2          6           0        3.692717   -1.223190    0.496532
      3          8           0        2.323965   -0.776338    0.376443
      4          6           0        2.147668    0.560493    0.217260
      5          8           0        3.053583    1.361410    0.192016
      6          6           0        0.689824    0.902677    0.081801
      7          7           0        0.417892    2.208671   -0.060514
      8          6           0       -0.865250    2.545611   -0.185092
      9          6           0       -1.921561    1.629967   -0.176945
     10          6           0       -1.635978    0.273126   -0.030021
     11          6           0       -0.291969   -0.090012    0.102352
     12          6           0       -2.732433   -0.782825   -0.012030
     13          6           0       -2.546114   -1.761470   -1.183172
     14          6           0       -2.734319   -1.522262    1.335984
     15          8           0       -3.972300   -0.083717   -0.171317
     16          1           0        3.762569   -2.059345   -1.499819
     17          1           0        5.353424   -1.787329   -0.756801
     18          1           0        4.416921   -0.408247   -1.367433
     19          1           0        3.619881   -2.179824    1.019444
     20          1           0        4.241195   -0.509833    1.116229
     21          1           0       -1.069550    3.608796   -0.298996
     22          1           0       -2.946182    1.962339   -0.282962
     23          1           0        0.004891   -1.124603    0.220077
     24          1           0       -1.590112   -2.290327   -1.120998
     25          1           0       -3.345766   -2.512930   -1.175619
     26          1           0       -2.584614   -1.219461   -2.132261
     27          1           0       -2.904916   -0.812900    2.150683
     28          1           0       -3.534166   -2.273439    1.351497
     29          1           0       -1.786786   -2.039419    1.515513
     30          1           0       -4.677572   -0.748652   -0.157965
 ---------------------------------------------------------------------

 SCF Done:  E(UB3LYP) =  -708.898913478     A.U. after   33 cycles
 SCF Done:  E(UB3LYP) =  -708.898913478     a.u. after    1 cycles

 The electronic state is 2-A.
 Alpha  occ. eigenvalues --  -19.03141 -19.01936 -18.95740 -14.16112 -10.14205
 Alpha  occ. eigenvalues --  -10.13061 -10.11870 -10.07026 -10.06545 -10.06245
 Alpha  occ. eigenvalues --  -10.06228 -10.05869 -10.05824 -10.04437 -10.03348
 Alpha  occ. eigenvalues --   -0.96836  -0.92560  -0.87725  -0.80397  -0.70245
 Alpha  occ. eigenvalues --   -0.66818  -0.64496  -0.62944  -0.59263  -0.55392
 Alpha  occ. eigenvalues --   -0.52620  -0.50502  -0.46701  -0.43231  -0.40585
 Alpha  occ. eigenvalues --   -0.39061  -0.37180  -0.35632  -0.34350  -0.33822
 Alpha  occ. eigenvalues --   -0.33209  -0.32788  -0.32062  -0.31052  -0.30559
 Alpha  occ. eigenvalues --   -0.29811  -0.29505  -0.28065  -0.26621  -0.26012
 Alpha  occ. eigenvalues --   -0.25665  -0.24644  -0.24139  -0.22665  -0.21711
 Alpha  occ. eigenvalues --   -0.18102  -0.17838  -0.14927  -0.13728  -0.13342
 Alpha  occ. eigenvalues --   -0.12107   0.04164
 Alpha virt. eigenvalues --    0.05872   0.07002   0.08819   0.09069   0.09588
 Alpha virt. eigenvalues --    0.09650   0.10222   0.10453   0.11244   0.11884
 Alpha virt. eigenvalues --    0.12567   0.12897   0.13110   0.13581   0.14569

  Beta  occ. eigenvalues --  -19.03087 -19.01916 -18.95500 -14.15864 -10.14019
  Beta  occ. eigenvalues --  -10.13065 -10.11871 -10.07101 -10.06529 -10.06216
  Beta  occ. eigenvalues --  -10.06057 -10.05828 -10.05786 -10.04393 -10.03107
  Beta  occ. eigenvalues --   -0.96611  -0.92516  -0.87365  -0.79990  -0.70067
  Beta  occ. eigenvalues --   -0.66695  -0.64266  -0.62645  -0.59213  -0.55184
  Beta  occ. eigenvalues --   -0.52535  -0.50082  -0.46602  -0.43086  -0.40467
  Beta  occ. eigenvalues --   -0.39003  -0.37100  -0.35346  -0.34098  -0.33753
  Beta  occ. eigenvalues --   -0.33077  -0.32579  -0.31888  -0.30961  -0.30481
  Beta  occ. eigenvalues --   -0.29638  -0.29360  -0.27440  -0.26483  -0.25936
  Beta  occ. eigenvalues --   -0.25603  -0.24139  -0.23805  -0.22544  -0.21631
  Beta  occ. eigenvalues --   -0.17969  -0.17099  -0.13933  -0.13476  -0.12222
  Beta  occ. eigenvalues --   -0.11790
  Beta virt. eigenvalues --    0.06564   0.07055   0.08875   0.09130   0.09417
  Beta virt. eigenvalues --    0.09672   0.09723   0.10419   0.10630   0.11256
  Beta virt. eigenvalues --    0.11834   0.12494   0.12847   0.13229   0.13633

 Mulliken charges and spin densities:
               1          2
     1  C   -0.034149  -0.281609
     2  C   -0.313719   0.114480
     3  O   -0.009890   0.003617
     4  C   -0.393989   0.283876
     5  O   -0.313278   0.087074
     6  C   -0.129018  -0.107162
     7  N   -0.014160   0.111576
     8  C   -0.366548  -0.044607
     9  C    0.511836   0.167396
    10  C    0.262712  -0.542766
    11  C   -0.277028  -0.165007
    12  C   -0.597243   1.016275
    13  C    0.248762  -0.852474
    14  C   -0.233831  -0.369635
    15  O   -0.153696  -0.021362
    16  H    0.073042   0.058678
    17  H    0.018800   0.093274
    18  H    0.106951   0.066838
    19  H    0.020008   0.110384
    20  H    0.166555  -0.006238
    21  H    0.144232   0.003811
    22  H    0.205603  -0.018469
    23  H    0.491797  -0.239693
    24  H   -0.182214   0.320392
    25  H   -0.507217   0.641863
    26  H    0.226122  -0.049953
    27  H    0.170608   0.004701
    28  H   -0.116464   0.242484
    29  H    0.028060   0.106147
    30  H   -0.032646   0.266111
 Sum of Mulliken charges =  -1.00000   1.00000

 Dipole moment (field-independent basis, Debye):
    X=              0.7501    Y=             -2.5679    Z=              1.0372  Tot=              2.8692
 Quadrupole moment (field-independent basis, Debye-Ang):
   XX=           -148.1953   YY=           -124.2766   ZZ=           -102.9937
   XY=            -17.6563   XZ=             -2.3477   YZ=             -4.2676

 Summary of Natural Population Analysis:

                                       Natural Population
                Natural  -----------------------------------------------
    Atom  No    Charge         Core      Valence    Rydberg      Total
 -----------------------------------------------------------------------
      C    1   -0.29905      0.99966     2.29512    0.00427     3.29905
      C    2   -0.01652      0.99959     2.00556    0.01136     3.01652
      O    3   -0.28801      0.99986     3.28038    0.00776     4.28801
      C    4    0.41366      0.99966     1.56126    0.02542     2.58634
      O    5   -0.28658      0.99987     3.28133    0.00538     4.28658
      C    6    0.07382      0.99949     1.91113    0.01556     2.92618
      N    7   -0.18113      0.99969     2.67220    0.00925     3.68113
      C    8    0.00747      0.99960     1.97910    0.01382     2.99253
      C    9   -0.07729      0.99950     2.06942    0.00837     3.07729
      C   10   -0.00955      0.99946     1.99744    0.01264     3.00955
      C   11   -0.10216      0.99948     2.09342    0.00926     3.10216
      C   12    0.12038      0.99950     1.86599    0.01413     2.87962
      C   13   -0.29128      0.99962     2.28509    0.00657     3.29128
      C   14   -0.29004      0.99962     2.28400    0.00642     3.29004
      O   15   -0.37485      0.99989     3.36835    0.00661     4.37485
      H   16    0.09737      0.00000     0.40128    0.00135     0.40263
      H   17    0.09382      0.00000     0.40491    0.00127     0.40618
      H   18    0.10875      0.00000     0.38983    0.00142     0.39125
      H   19    0.08275      0.00000     0.41580    0.00145     0.41725
      H   20    0.09313      0.00000     0.40509    0.00178     0.40687
      H   21    0.08098      0.00000     0.41785    0.00117     0.41902
      H   22    0.10683      0.00000     0.39206    0.00111     0.39317
      H   23    0.10571      0.00000     0.39284    0.00145     0.39429
      H   24    0.10307      0.00000     0.39594    0.00098     0.39693
      H   25    0.09595      0.00000     0.40201    0.00204     0.40405
      H   26    0.10491      0.00000     0.39426    0.00083     0.39509
      H   27    0.10453      0.00000     0.39466    0.00081     0.39547
      H   28    0.09364      0.00000     0.40539    0.00097     0.40636
      H   29    0.10254      0.00000     0.39660    0.00086     0.39746
      H   30    0.22712      0.00000     0.26993    0.00294     0.27288
 =======================================================================
   * Total *   -0.00000     14.99450    40.82825    0.17725    56.00000

 Normal termination of Gaussian 16 at Thu Dec 10 19:39:38 2020.
