 Gaussian 16, Revision A.03,

 ----------------------------------------------------------------------
 # opt=(cartesian,calcfc) freq B3LYP/6-31G(d) empiricaldispersion=gd3bj
  scf=xqc
 ----------------------------------------------------------------------

 ------------------------------
 CID_22235171_JID_1771_neutraal
 ------------------------------
 Symbolic Z-matrix:
 Charge =  0 Multiplicity = 1

 SCF Done:  E(RB3LYP) =  -555.021015768     A.U. after   14 cycles
 SCF Done:  E(RB3LYP) =  -555.021296544     A.U. after   11 cycles
 SCF Done:  E(RB3LYP) =  -555.021567747     A.U. after   11 cycles
 SCF Done:  E(RB3LYP) =  -555.021740666     A.U. after   10 cycles
 SCF Done:  E(RB3LYP) =  -555.021671400     A.U. after   11 cycles
 SCF Done:  E(RB3LYP) =  -555.021874098     A.U. after   10 cycles
 SCF Done:  E(RB3LYP) =  -555.021896323     A.U. after   10 cycles
 SCF Done:  E(RB3LYP) =  -555.021911359     A.U. after   11 cycles
 SCF Done:  E(RB3LYP) =  -555.021905931     A.U. after   11 cycles
 SCF Done:  E(RB3LYP) =  -555.021948926     A.U. after   10 cycles
 SCF Done:  E(RB3LYP) =  -555.021980525     A.U. after    8 cycles
 SCF Done:  E(RB3LYP) =  -555.021978784     A.U. after    9 cycles
 SCF Done:  E(RB3LYP) =  -555.021981549     A.U. after    8 cycles
 SCF Done:  E(RB3LYP) =  -555.021981614     A.U. after    8 cycles
 SCF Done:  E(RB3LYP) =  -555.021981820     A.U. after    8 cycles
 SCF Done:  E(RB3LYP) =  -555.021981891     A.U. after    7 cycles
 Optimization completed.
    -- Stationary point found.
 Normal termination of Gaussian 16 at Mon Jan  4 09:01:36 2021.

 --------------------------------------------------------------------
 #N Geom=AllCheck Guess=TCheck SCRF=Check GenChk RB3LYP/6-31G(d) Freq
 --------------------------------------------------------------------

 Structure from the checkpoint file:  "JID_1771.chk"
 ------------------------------
 CID_22235171_JID_1771_neutraal
 ------------------------------
 Charge =  0 Multiplicity = 1

 SCF Done:  E(RB3LYP) =  -555.021981891     A.U. after    1 cycles

  Exact polarizability:  95.869   7.187  89.880  -4.807   3.070  72.998
 Approx polarizability: 124.183  10.440 134.087  -5.890   6.609 109.758

                      1                      2                      3
                      A                      A                      A
 Frequencies --     62.8146                72.6532               102.1205
 Red. masses --      4.0668                 5.9618                 3.4670
 Frc consts  --      0.0095                 0.0185                 0.0213
 IR Inten    --      2.9444                 0.8911                 7.0432

                      4                      5                      6
                      A                      A                      A
 Frequencies --    133.5902               194.6523               214.6791
 Red. masses --      2.8994                 1.3673                 2.5680
 Frc consts  --      0.0305                 0.0305                 0.0697
 IR Inten    --      1.4984                 0.5529                 4.2356

                      7                      8                      9
                      A                      A                      A
 Frequencies --    222.3929               269.4472               320.2057
 Red. masses --      2.0380                 2.5183                 1.6101
 Frc consts  --      0.0594                 0.1077                 0.0973
 IR Inten    --      7.5366                12.4332                44.2312

                     10                     11                     12
                      A                      A                      A
 Frequencies --    343.8557               385.1435               418.7442
 Red. masses --      2.4600                 3.1041                 4.3818
 Frc consts  --      0.1714                 0.2713                 0.4527
 IR Inten    --     56.0310                 8.6222                18.6600

                     13                     14                     15
                      A                      A                      A
 Frequencies --    468.6780               472.6253               479.0303
 Red. masses --      1.2112                 1.9657                 3.1195
 Frc consts  --      0.1568                 0.2587                 0.4218
 IR Inten    --    142.4130                13.2344                16.5533

                     16                     17                     18
                      A                      A                      A
 Frequencies --    552.0552               580.3757               605.9631
 Red. masses --      3.6125                 3.8476                 3.0877
 Frc consts  --      0.6487                 0.7636                 0.6680
 IR Inten    --      3.4585                12.2042                 8.3498

                     19                     20                     21
                      A                      A                      A
 Frequencies --    656.2275               759.0239               868.8987
 Red. masses --      3.8168                 3.0215                 1.7526
 Frc consts  --      0.9684                 1.0256                 0.7796
 IR Inten    --     12.0982                 4.5669                 5.5097

                     22                     23                     24
                      A                      A                      A
 Frequencies --    891.9851               952.1110               988.2280
 Red. masses --      2.2114                 2.6885                 1.5050
 Frc consts  --      1.0367                 1.4359                 0.8660
 IR Inten    --      3.6251                 8.5342                 2.0420

                     25                     26                     27
                      A                      A                      A
 Frequencies --    994.7817              1046.5662              1066.0866
 Red. masses --      2.0768                 2.6083                 1.8162
 Frc consts  --      1.2108                 1.6832                 1.2162
 IR Inten    --     14.3287                 7.2519                13.8108

                     28                     29                     30
                      A                      A                      A
 Frequencies --   1071.5777              1087.4190              1097.0418
 Red. masses --      1.7232                 2.2778                 3.4093
 Frc consts  --      1.1658                 1.5869                 2.4175
 IR Inten    --      4.4243                70.9895                50.3187

                     31                     32                     33
                      A                      A                      A
 Frequencies --   1120.4449              1131.3948              1178.6281
 Red. masses --      2.6559                 3.6034                 1.7182
 Frc consts  --      1.9645                 2.7176                 1.4063
 IR Inten    --     35.0100               107.9728                18.4712

                     34                     35                     36
                      A                      A                      A
 Frequencies --   1205.8333              1234.7918              1250.3004
 Red. masses --      1.6129                 1.8388                 1.5030
 Frc consts  --      1.3818                 1.6518                 1.3843
 IR Inten    --      8.3438                51.5081                27.3409

                     37                     38                     39
                      A                      A                      A
 Frequencies --   1300.7115              1309.8825              1334.1205
 Red. masses --      1.2825                 1.4292                 1.3767
 Frc consts  --      1.2784                 1.4448                 1.4437
 IR Inten    --      4.1057                25.5998                11.2003

                     40                     41                     42
                      A                      A                      A
 Frequencies --   1352.5016              1364.5853              1390.7870
 Red. masses --      1.3359                 1.5959                 1.4411
 Frc consts  --      1.4398                 1.7509                 1.6423
 IR Inten    --     28.6227                45.8360                 1.2560

                     43                     44                     45
                      A                      A                      A
 Frequencies --   1409.4617              1412.7932              1434.9721
 Red. masses --      1.4858                 1.1866                 1.3617
 Frc consts  --      1.7391                 1.3955                 1.6520
 IR Inten    --     39.7565                12.5569                34.8403

                     46                     47                     48
                      A                      A                      A
 Frequencies --   1443.1704              1451.4683              1512.7943
 Red. masses --      1.8402                 1.2756                 1.0746
 Frc consts  --      2.2581                 1.5833                 1.4489
 IR Inten    --    212.8091                83.4247                 7.7797

                     49                     50                     51
                      A                      A                      A
 Frequencies --   1519.6469              1523.8505              1525.9904
 Red. masses --      1.0861                 1.0778                 1.0643
 Frc consts  --      1.4778                 1.4746                 1.4602
 IR Inten    --      3.8037                 4.4257                 8.6121

                     52                     53                     54
                      A                      A                      A
 Frequencies --   1538.0009              1772.1204              2990.7057
 Red. masses --      1.0946                10.0331                 1.0709
 Frc consts  --      1.5256                18.5640                 5.6435
 IR Inten    --      6.6800               295.7598                29.6447

                     55                     56                     57
                      A                      A                      A
 Frequencies --   3009.1722              3035.6903              3058.0952
 Red. masses --      1.0737                 1.0714                 1.0451
 Frc consts  --      5.7282                 5.8174                 5.7587
 IR Inten    --     58.1237                35.6970                 5.1951

                     58                     59                     60
                      A                      A                      A
 Frequencies --   3093.2459              3102.5196              3116.1347
 Red. masses --      1.0862                 1.0900                 1.0912
 Frc consts  --      6.1233                 6.1817                 6.2427
 IR Inten    --     22.8979                19.2574                14.1885

                     61                     62                     63
                      A                      A                      A
 Frequencies --   3131.4753              3135.6792              3178.0948
 Red. masses --      1.0933                 1.0900                 1.0913
 Frc consts  --      6.3167                 6.3147                 6.4940
 IR Inten    --     38.7406                 4.5123                 2.9121

                     64                     65                     66
                      A                      A                      A
 Frequencies --   3181.9175              3719.3000              3720.8115
 Red. masses --      1.1044                 1.0657                 1.0655
 Frc consts  --      6.5878                 8.6856                 8.6908
 IR Inten    --      4.2908                 7.8998                14.7043

 - Thermochemistry -
 -------------------
 Temperature   298.150 Kelvin.  Pressure   1.00000 Atm.
 Atom     1 has atomic number  6 and mass  12.00000

 Molecular mass:   159.08954 amu.
 Principal axes and moments of inertia in atomic units:
                           1         2         3
     Eigenvalues --  1292.244091996.931332847.14529
           X            0.99970   0.01783  -0.01668
           Y           -0.01791   0.99983  -0.00490
           Z            0.01659   0.00520   0.99985
 This molecule is an asymmetric top.
 Rotational symmetry number  1.
 Warning -- assumption of classical behavior for rotation
           may cause significant error
 Rotational temperatures (Kelvin)      0.06703     0.04337     0.03042
 Rotational constants (GHZ):           1.39659     0.90376     0.63388
 Zero-point vibrational energy     541729.3 (Joules/Mol)
                                  129.47641 (Kcal/Mol)
 Warning -- explicit consideration of  18 degrees of freedom as
           vibrations may cause significant error
 Vibrational temperatures:     90.38   104.53   146.93   192.21   280.06
          (Kelvin)            308.88   319.97   387.67   460.70   494.73
                              554.14   602.48   674.32   680.00   689.22
                              794.28   835.03   871.85   944.16  1092.07
                             1250.15  1283.37  1369.88  1421.84  1431.27
                             1505.78  1533.86  1541.76  1564.55  1578.40
                             1612.07  1627.82  1695.78  1734.93  1776.59
                             1798.90  1871.43  1884.63  1919.50  1945.95
                             1963.33  2001.03  2027.90  2032.69  2064.60
                             2076.40  2088.34  2176.57  2186.43  2192.48
                             2195.56  2212.84  2549.69  4302.96  4329.53
                             4367.68  4399.92  4450.49  4463.83  4483.42
                             4505.49  4511.54  4572.57  4578.07  5351.24
                             5353.42

 Zero-point correction=                           0.206334 (Hartree/Particle)
 Thermal correction to Energy=                    0.217708
 Thermal correction to Enthalpy=                  0.218652
 Thermal correction to Gibbs Free Energy=         0.169177
 Sum of electronic and zero-point Energies=           -554.815648
 Sum of electronic and thermal Energies=              -554.804274
 Sum of electronic and thermal Enthalpies=            -554.803330
 Sum of electronic and thermal Free Energies=         -554.852804

                     E (Thermal)             CV                S
                      KCal/Mol        Cal/Mol-Kelvin    Cal/Mol-Kelvin
 Total                  136.614             42.616            104.128
 Electronic               0.000              0.000              0.000
 Translational            0.889              2.981             41.102
 Rotational               0.889              2.981             30.375
 Vibrational            134.836             36.655             32.651
 Vibration     1          0.597              1.972              4.367
 Vibration     2          0.599              1.967              4.080
 Vibration     3          0.604              1.947              3.413
 Vibration     4          0.613              1.920              2.894
 Vibration     5          0.635              1.847              2.183
 Vibration     6          0.645              1.819              2.004
 Vibration     7          0.648              1.807              1.940
 Vibration     8          0.674              1.729              1.600
 Vibration     9          0.706              1.635              1.309
 Vibration    10          0.723              1.588              1.194
 Vibration    11          0.754              1.502              1.019
 Vibration    12          0.782              1.430              0.896
 Vibration    13          0.826              1.320              0.741
 Vibration    14          0.829              1.311              0.730
 Vibration    15          0.835              1.297              0.713
 Vibration    16          0.907              1.135              0.540
 Vibration    17          0.937              1.074              0.485
 Vibration    18          0.965              1.019              0.440

 Optimization completed.
    -- Stationary point found.
 Normal termination of Gaussian 16 at Mon Jan  4 09:06:33 2021.

 ----------------------------------------------------------------------
 # B3LYP/6-311++G(d,p) empiricaldispersion=gd3bj scf=xqc pop=npa geom=c
 heck
 ----------------------------------------------------------------------

 --------------------------------------
 CID_22235171_JID_1771_Energie_neutraal
 --------------------------------------
 Structure from the checkpoint file:  "JID_1771.chk"
 Charge =  0 Multiplicity = 1

 SCF Done:  E(RB3LYP) =  -555.203197195     A.U. after   14 cycles
 Normal termination of Gaussian 16 at Mon Jan  4 09:08:15 2021.

 ----------------------------------------------------------------------
 # B3LYP/6-311++G(d,p) empiricaldispersion=gd3bj scf=xqc pop=npa geom=c
 heck
 ----------------------------------------------------------------------

 ------------------------------------
 CID_22235171_JID_1771_Energie_kation
 ------------------------------------
 Structure from the checkpoint file:  "JID_1771.chk"
 Charge =  1 Multiplicity = 2

 SCF Done:  E(UB3LYP) =  -554.875244602     A.U. after   23 cycles
 Normal termination of Gaussian 16 at Mon Jan  4 09:11:53 2021.
 Gaussian 16:  ES64L-G16RevA.03 25-Dec-2016

 ----------------------------------------------------------------------
 # B3LYP/6-311++G(d,p) empiricaldispersion=gd3bj scf=xqc pop=npa geom=c
 heck
 ----------------------------------------------------------------------

 -----------------------------------
 CID_22235171_JID_1771_Energie_anion
 -----------------------------------
 Structure from the checkpoint file:  "JID_1771.chk"
 Charge = -1 Multiplicity = 2

                         Standard orientation:
 ---------------------------------------------------------------------
 Center     Atomic      Atomic             Coordinates (Angstroms)
 Number     Number       Type             X           Y           Z
 ---------------------------------------------------------------------
      1          6           0       -2.460838   -0.787736    0.895606
      2          6           0       -1.316033   -1.254625    0.010500
      3          8           0       -1.303679   -2.373162   -0.487549
      4          7           0       -0.285342   -0.357493   -0.211133
      5          6           0        0.981499   -0.839967   -0.755136
      6          6           0        1.996899   -0.433394    0.325024
      7          6           0        1.458414    0.928200    0.817258
      8          6           0       -0.063567    0.899096    0.539654
      9          6           0       -0.509945    2.106203   -0.296303
     10          8           0       -1.867150    2.035122   -0.693126
     11          8           0        3.345619   -0.425512   -0.094985
     12          1           0       -2.160338   -0.829717    1.950255
     13          1           0       -3.293440   -1.476928    0.750454
     14          1           0       -2.772508    0.236231    0.677336
     15          1           0        0.916803   -1.912005   -0.935255
     16          1           0        1.221481   -0.338506   -1.705628
     17          1           0        1.955664   -1.165281    1.137660
     18          1           0        1.935680    1.726367    0.231208
     19          1           0        1.692720    1.116688    1.867679
     20          1           0       -0.642414    0.876953    1.465103
     21          1           0       -0.404449    3.021209    0.295630
     22          1           0        0.152593    2.197666   -1.172929
     23          1           0       -1.941749    1.252040   -1.263424
     24          1           0        3.420461    0.199489   -0.834495
 ---------------------------------------------------------------------

 SCF Done:  E(UB3LYP) =  -555.193637519     A.U. after   30 cycles

 The electronic state is 2-A.
 Alpha  occ. eigenvalues --  -19.02890 -19.02359 -18.98966 -14.24224 -10.17643
 Alpha  occ. eigenvalues --  -10.12575 -10.11639 -10.11476 -10.09664 -10.07454
 Alpha  occ. eigenvalues --  -10.07162  -0.94329  -0.93176  -0.92834  -0.84497
 Alpha  occ. eigenvalues --   -0.68972  -0.66303  -0.63042  -0.57567  -0.53038
 Alpha  occ. eigenvalues --   -0.50647  -0.45046  -0.42922  -0.41258  -0.39043
 Alpha  occ. eigenvalues --   -0.37384  -0.35454  -0.35350  -0.33676  -0.32278
 Alpha  occ. eigenvalues --   -0.31844  -0.30696  -0.29359  -0.28654  -0.28616
 Alpha  occ. eigenvalues --   -0.26243  -0.25717  -0.24814  -0.22368  -0.18832
 Alpha  occ. eigenvalues --   -0.18143  -0.16061  -0.14555   0.04467
 Alpha virt. eigenvalues --    0.06666   0.07847   0.08577   0.09670   0.10206
 Alpha virt. eigenvalues --    0.10626   0.11107   0.11620   0.11664   0.13114
 Alpha virt. eigenvalues --    0.13564   0.13894   0.14568   0.16342   0.16571

  Beta  occ. eigenvalues --  -19.02874 -19.02312 -18.98961 -14.24220 -10.17641
  Beta  occ. eigenvalues --  -10.12567 -10.11600 -10.11462 -10.09632 -10.07432
  Beta  occ. eigenvalues --  -10.07123  -0.94314  -0.93145  -0.92744  -0.84473
  Beta  occ. eigenvalues --   -0.68928  -0.66252  -0.62994  -0.57486  -0.52968
  Beta  occ. eigenvalues --   -0.50543  -0.44997  -0.42866  -0.41207  -0.38956
  Beta  occ. eigenvalues --   -0.37346  -0.35406  -0.35305  -0.33624  -0.32208
  Beta  occ. eigenvalues --   -0.31811  -0.30665  -0.29313  -0.28623  -0.28555
  Beta  occ. eigenvalues --   -0.26211  -0.25658  -0.24770  -0.22321  -0.18792
  Beta  occ. eigenvalues --   -0.18098  -0.16051  -0.14530
  Beta virt. eigenvalues --    0.07102   0.08199   0.08485   0.09263   0.10095
  Beta virt. eigenvalues --    0.10474   0.11189   0.11576   0.11862   0.12184
  Beta virt. eigenvalues --    0.13561   0.13846   0.14456   0.14941   0.16511

 Mulliken charges and spin densities:
               1          2
     1  C    0.320664  -0.790586
     2  C   -0.060117   0.178250
     3  O   -0.347673  -0.005930
     4  N    0.099939  -0.069039
     5  C    1.768703  -2.025298
     6  C   -1.340028   0.962834
     7  C    1.641732  -2.141044
     8  C   -2.895930   3.103700
     9  C    2.606179  -3.121811
    10  O   -0.283172   0.036789
    11  O   -0.222942   0.019596
    12  H   -0.234725   0.402437
    13  H    0.114154   0.062815
    14  H    0.034162   0.134185
    15  H    0.230199  -0.032533
    16  H   -0.512584   0.704239
    17  H    0.066650   0.140942
    18  H   -0.379369   0.572601
    19  H   -0.459798   0.603991
    20  H   -0.410895   0.651331
    21  H   -0.301060   0.483869
    22  H   -0.526022   0.707180
    23  H    0.129967   0.117584
    24  H   -0.038034   0.303898
 Sum of Mulliken charges =  -1.00000   1.00000

 Dipole moment (field-independent basis, Debye):
    X=             -3.1165    Y=             -2.6318    Z=              0.5004  Tot=              4.1097
 Quadrupole moment (field-independent basis, Debye-Ang):
   XX=           -115.6986   YY=           -114.0439   ZZ=           -103.9404
   XY=             -4.2958   XZ=              3.9423   YZ=             -0.7641

 Summary of Natural Population Analysis:

                                       Natural Population
                Natural  -----------------------------------------------
    Atom  No    Charge         Core      Valence    Rydberg      Total
 -----------------------------------------------------------------------
      C    1   -0.33749      0.99962     2.33336    0.00450     3.33749
      C    2    0.34756      0.99966     1.63062    0.02216     2.65244
      O    3   -0.32667      0.99988     3.32082    0.00598     4.32667
      N    4   -0.26854      0.99964     2.75637    0.01253     3.76854
      C    5   -0.09760      0.99959     2.08551    0.01250     3.09760
      C    6    0.06452      0.99955     1.92197    0.01397     2.93548
      C    7   -0.20694      0.99960     2.19714    0.01021     3.20694
      C    8   -0.01952      0.99959     2.00662    0.01331     3.01952
      C    9   -0.00885      0.99956     1.99629    0.01299     3.00885
      O   10   -0.36732      0.99990     3.36066    0.00676     4.36732
      O   11   -0.36637      0.99989     3.35965    0.00683     4.36637
      H   12    0.11171      0.00000     0.38671    0.00157     0.38829
      H   13    0.11001      0.00000     0.38907    0.00092     0.38999
      H   14    0.11596      0.00000     0.38262    0.00142     0.38404
      H   15    0.11585      0.00000     0.38297    0.00118     0.38415
      H   16    0.09614      0.00000     0.40188    0.00199     0.40386
      H   17    0.08696      0.00000     0.41153    0.00151     0.41304
      H   18    0.10394      0.00000     0.39230    0.00376     0.39606
      H   19    0.10990      0.00000     0.38823    0.00187     0.39010
      H   20    0.10440      0.00000     0.39345    0.00214     0.39560
      H   21    0.09082      0.00000     0.40752    0.00167     0.40918
      H   22    0.08171      0.00000     0.41553    0.00276     0.41829
      H   23    0.22833      0.00000     0.26821    0.00346     0.27167
      H   24    0.23150      0.00000     0.26288    0.00562     0.26850
 =======================================================================
   * Total *    0.00000     10.99648    31.85190    0.15163    43.00000

 Normal termination of Gaussian 16 at Mon Jan  4 09:16:33 2021.
