 Gaussian 16, Revision A.03,

 -----------------------------------------------------------
 # opt freq B3LYP/6-31G(d) empiricaldispersion=gd3bj scf=xqc
 -----------------------------------------------------------

 -----------------------------
 CID_2369439_JID_1211_neutraal
 -----------------------------
 Symbolic Z-matrix:
 Charge =  0 Multiplicity = 1

 SCF Done:  E(RB3LYP) =  -494.363575998     A.U. after   16 cycles
 SCF Done:  E(RB3LYP) =  -494.394057240     A.U. after   14 cycles
 SCF Done:  E(RB3LYP) =  -494.395412010     A.U. after   12 cycles
 SCF Done:  E(RB3LYP) =  -494.395571310     A.U. after   11 cycles
 SCF Done:  E(RB3LYP) =  -494.395589334     A.U. after   10 cycles
 SCF Done:  E(RB3LYP) =  -494.395592755     A.U. after    9 cycles
 SCF Done:  E(RB3LYP) =  -494.395593811     A.U. after    9 cycles
 Optimization completed.
    -- Stationary point found.
 Normal termination of Gaussian 16 at Tue Dec  8 19:22:54 2020.

 --------------------------------------------------------------------
 #N Geom=AllCheck Guess=TCheck SCRF=Check GenChk RB3LYP/6-31G(d) Freq
 --------------------------------------------------------------------

 Structure from the checkpoint file:  "JID_1211.chk"
 -----------------------------
 CID_2369439_JID_1211_neutraal
 -----------------------------
 Charge =  0 Multiplicity = 1

 SCF Done:  E(RB3LYP) =  -494.395593811     A.U. after    1 cycles

  Exact polarizability: 138.084   7.749 115.441  -0.005   0.003  46.994
 Approx polarizability: 220.519  25.364 190.125  -0.005   0.004  70.538

                      1                      2                      3
                      A                      A                      A
 Frequencies --     69.6939                98.7518               136.2210
 Red. masses --      5.3579                 1.0549                 3.9212
 Frc consts  --      0.0153                 0.0061                 0.0429
 IR Inten    --      0.2473                 0.2545                 0.1185

                      4                      5                      6
                      A                      A                      A
 Frequencies --    148.9377               152.6010               186.6668
 Red. masses --      1.4314                 8.6465                 1.9991
 Frc consts  --      0.0187                 0.1186                 0.0410
 IR Inten    --      1.2193                 2.7558                 0.1713

                      7                      8                      9
                      A                      A                      A
 Frequencies --    244.4112               279.5928               314.9745
 Red. masses --      5.1995                 2.5701                 3.6335
 Frc consts  --      0.1830                 0.1184                 0.2124
 IR Inten    --      2.1180                 0.1238                 5.5381

                     10                     11                     12
                      A                      A                      A
 Frequencies --    424.1189               451.3406               488.4257
 Red. masses --      5.9179                 6.4710                 4.5532
 Frc consts  --      0.6272                 0.7767                 0.6400
 IR Inten    --      0.6128                 6.8318                 4.4433

                     13                     14                     15
                      A                      A                      A
 Frequencies --    494.8818               555.4885               609.3595
 Red. masses --      5.4665                 4.7895                 4.3027
 Frc consts  --      0.7888                 0.8708                 0.9413
 IR Inten    --      4.1423                 1.2853                 5.1383

                     16                     17                     18
                      A                      A                      A
 Frequencies --    616.9474               617.8717               712.6814
 Red. masses --      3.7466                 5.8204                 5.1962
 Frc consts  --      0.8402                 1.3092                 1.5550
 IR Inten    --      0.0288                 5.1660                 5.7692

                     19                     20                     21
                      A                      A                      A
 Frequencies --    744.4853               827.0253               849.4946
 Red. masses --      8.0502                 1.2030                 1.2365
 Frc consts  --      2.6289                 0.4848                 0.5258
 IR Inten    --      2.9513                21.4984                77.2596

                     22                     23                     24
                      A                      A                      A
 Frequencies --    930.8169               985.2127              1041.1404
 Red. masses --      3.3949                 2.4689                 2.4994
 Frc consts  --      1.7330                 1.4119                 1.5963
 IR Inten    --     18.5452                31.7598                 3.1587

                     25                     26                     27
                      A                      A                      A
 Frequencies --   1066.6958              1068.1387              1080.5557
 Red. masses --      2.0465                 1.5523                 1.5342
 Frc consts  --      1.3719                 1.0434                 1.0554
 IR Inten    --     24.7251                 5.8065                 2.7626

                     28                     29                     30
                      A                      A                      A
 Frequencies --   1097.4740              1190.0183              1221.7849
 Red. masses --      2.1194                 2.4793                 2.8127
 Frc consts  --      1.5040                 2.0686                 2.4738
 IR Inten    --     22.1213                78.3396                66.2129

                     31                     32                     33
                      A                      A                      A
 Frequencies --   1251.7952              1392.0353              1423.9862
 Red. masses --      2.1490                 3.3756                 2.1475
 Frc consts  --      1.9841                 3.8539                 2.5657
 IR Inten    --     33.8822                10.2251                18.0327

                     34                     35                     36
                      A                      A                      A
 Frequencies --   1442.7302              1447.4661              1497.6160
 Red. masses --      1.4013                 1.4850                 1.0431
 Frc consts  --      1.7185                 1.8331                 1.3784
 IR Inten    --      1.9566                 4.4352                 8.6908

                     37                     38                     39
                      A                      A                      A
 Frequencies --   1505.8906              1512.5228              1514.7369
 Red. masses --      1.1304                 1.0446                 1.1117
 Frc consts  --      1.5103                 1.4080                 1.5028
 IR Inten    --     31.5347                 8.2578                10.1224

                     40                     41                     42
                      A                      A                      A
 Frequencies --   1614.1777              1700.4661              1756.3028
 Red. masses --      5.9630                 6.7665                 9.0075
 Frc consts  --      9.1542                11.5280                16.3702
 IR Inten    --    168.0571               112.2302               311.1434

                     43                     44                     45
                      A                      A                      A
 Frequencies --   2347.0940              3051.1443              3057.4871
 Red. masses --     12.6756                 1.0399                 1.0376
 Frc consts  --     41.1415                 5.7039                 5.7146
 IR Inten    --     27.7244                10.7859                11.7793

                     46                     47                     48
                      A                      A                      A
 Frequencies --   3101.8966              3112.9418              3159.8176
 Red. masses --      1.1000                 1.1007                 1.1014
 Frc consts  --      6.2356                 6.2846                 6.4794
 IR Inten    --      9.5186                 6.9304                 8.2085

                     49                     50                     51
                      A                      A                      A
 Frequencies --   3168.4273              3231.1010              3487.9342
 Red. masses --      1.0993                 1.0920                 1.0748
 Frc consts  --      6.5018                 6.7169                 7.7043
 IR Inten    --      3.5387                 5.1985                 7.0543

 - Thermochemistry -
 -------------------
 Temperature   298.150 Kelvin.  Pressure   1.00000 Atm.
 Atom     1 has atomic number  6 and mass  12.00000

 Molecular mass:   148.06366 amu.
 Principal axes and moments of inertia in atomic units:
                           1         2         3
     Eigenvalues --   988.419511918.962182884.97825
           X            0.99974  -0.02296  -0.00001
           Y            0.02296   0.99974   0.00001
           Z            0.00001  -0.00001   1.00000
 This molecule is an asymmetric top.
 Rotational symmetry number  1.
 Warning -- assumption of classical behavior for rotation
           may cause significant error
 Rotational temperatures (Kelvin)      0.08763     0.04514     0.03002
 Rotational constants (GHZ):           1.82589     0.94048     0.62556
 Zero-point vibrational energy     385696.3 (Joules/Mol)
                                   92.18362 (Kcal/Mol)
 Warning -- explicit consideration of  17 degrees of freedom as
           vibrations may cause significant error
 Vibrational temperatures:    100.27   142.08   195.99   214.29   219.56
          (Kelvin)            268.57   351.65   402.27   453.18   610.21
                              649.38   702.74   712.02   799.22   876.73
                              887.65   888.98  1025.39  1071.15  1189.90
                             1222.23  1339.24  1417.50  1497.97  1534.74
                             1536.81  1554.68  1579.02  1712.17  1757.88
                             1801.05  2002.83  2048.80  2075.77  2082.58
                             2154.74  2166.64  2176.18  2179.37  2322.44
                             2446.59  2526.93  3376.94  4389.92  4399.04
                             4462.94  4478.83  4546.27  4558.66  4648.83
                             5018.36

 Zero-point correction=                           0.146904 (Hartree/Particle)
 Thermal correction to Energy=                    0.157462
 Thermal correction to Enthalpy=                  0.158407
 Thermal correction to Gibbs Free Energy=         0.110773
 Sum of electronic and zero-point Energies=           -494.248690
 Sum of electronic and thermal Energies=              -494.238131
 Sum of electronic and thermal Enthalpies=            -494.237187
 Sum of electronic and thermal Free Energies=         -494.284821

                     E (Thermal)             CV                S
                      KCal/Mol        Cal/Mol-Kelvin    Cal/Mol-Kelvin
 Total                   98.809             38.522            100.254
 Electronic               0.000              0.000              0.000
 Translational            0.889              2.981             40.888
 Rotational               0.889              2.981             30.082
 Vibrational             97.032             32.560             29.284
 Vibration     1          0.598              1.969              4.162
 Vibration     2          0.604              1.950              3.479
 Vibration     3          0.614              1.917              2.856
 Vibration     4          0.618              1.904              2.686
 Vibration     5          0.619              1.900              2.640
 Vibration     6          0.632              1.858              2.261
 Vibration     7          0.660              1.772              1.771
 Vibration     8          0.680              1.711              1.536
 Vibration     9          0.702              1.645              1.336
 Vibration    10          0.786              1.418              0.878
 Vibration    11          0.810              1.358              0.792
 Vibration    12          0.844              1.276              0.688
 Vibration    13          0.850              1.261              0.671
 Vibration    14          0.911              1.128              0.533
 Vibration    15          0.968              1.012              0.434
 Vibration    16          0.977              0.996              0.421
 Vibration    17          0.978              0.994              0.420

                           ! Non-Optimized Parameters !
 Normal termination of Gaussian 16 at Tue Dec  8 19:26:06 2020.

 ----------------------------------------------------------------------
 # B3LYP/6-311++G(d,p) empiricaldispersion=gd3bj scf=xqc pop=npa geom=c
 heck
 ----------------------------------------------------------------------

 -------------------------------------
 CID_2369439_JID_1211_Energie_neutraal
 -------------------------------------
 Structure from the checkpoint file:  "JID_1211.chk"
 Charge =  0 Multiplicity = 1

 SCF Done:  E(RB3LYP) =  -494.532385056     A.U. after   16 cycles
 Normal termination of Gaussian 16 at Tue Dec  8 19:27:07 2020.

 ----------------------------------------------------------------------
 # B3LYP/6-311++G(d,p) empiricaldispersion=gd3bj scf=xqc pop=npa geom=c
 heck
 ----------------------------------------------------------------------

 -----------------------------------
 CID_2369439_JID_1211_Energie_kation
 -----------------------------------
 Structure from the checkpoint file:  "JID_1211.chk"
 Charge =  1 Multiplicity = 2

 SCF Done:  E(UB3LYP) =  -494.225411341     A.U. after   21 cycles
 Normal termination of Gaussian 16 at Tue Dec  8 19:29:06 2020.
 Gaussian 16:  ES64L-G16RevA.03 25-Dec-2016

 ----------------------------------------------------------------------
 # B3LYP/6-311++G(d,p) empiricaldispersion=gd3bj scf=xqc pop=npa geom=c
 heck
 ----------------------------------------------------------------------

 ----------------------------------
 CID_2369439_JID_1211_Energie_anion
 ----------------------------------
 Structure from the checkpoint file:  "JID_1211.chk"
 Charge = -1 Multiplicity = 2

                         Standard orientation:
 ---------------------------------------------------------------------
 Center     Atomic      Atomic             Coordinates (Angstroms)
 Number     Number       Type             X           Y           Z
 ---------------------------------------------------------------------
      1          6           0        3.345275    0.156520   -0.000103
      2          6           0        1.854053    0.184424    0.000088
      3          6           0        1.070295    1.286335   -0.000136
      4          6           0       -0.361227    1.158966   -0.000154
      5          6           0       -0.904886   -0.099891   -0.000072
      6          6           0       -0.061512   -1.295964    0.000032
      7          7           0       -0.514622   -2.479742   -0.000146
      8          8           0        1.322426   -1.064141    0.000386
      9          6           0       -2.317224   -0.300779   -0.000143
     10          7           0       -3.475827   -0.406976    0.000046
     11          6           0       -1.194725    2.406831    0.000095
     12          1           0        3.716426   -0.375838   -0.883548
     13          1           0        3.716632   -0.378162    0.881828
     14          1           0        3.751236    1.170276    0.001134
     15          1           0        1.528139    2.268187   -0.000316
     16          1           0        0.245386   -3.163150   -0.000071
     17          1           0       -0.962472    3.014493    0.883309
     18          1           0       -0.958366    3.017756   -0.879728
     19          1           0       -2.263537    2.187924   -0.002645
 ---------------------------------------------------------------------

 SCF Done:  E(UB3LYP) =  -494.555612418     A.U. after   21 cycles

 The electronic state is 2-A.
 Alpha  occ. eigenvalues --  -19.02413 -14.13274 -14.12608 -10.11876 -10.07780
 Alpha  occ. eigenvalues --  -10.05448 -10.03917 -10.03419 -10.02410 -10.02344
 Alpha  occ. eigenvalues --  -10.01946  -0.94868  -0.75404  -0.73449  -0.68497
 Alpha  occ. eigenvalues --   -0.64447  -0.58132  -0.56867  -0.49865  -0.45635
 Alpha  occ. eigenvalues --   -0.40626  -0.38218  -0.33683  -0.33082  -0.30428
 Alpha  occ. eigenvalues --   -0.29225  -0.29006  -0.27889  -0.27724  -0.25967
 Alpha  occ. eigenvalues --   -0.23187  -0.21058  -0.20996  -0.19671  -0.16865
 Alpha  occ. eigenvalues --   -0.16336  -0.14762  -0.13229  -0.06821   0.04012
 Alpha virt. eigenvalues --    0.08056   0.09616   0.10985   0.11454   0.12074
 Alpha virt. eigenvalues --    0.12795   0.13647   0.14955   0.15069   0.16086
 Alpha virt. eigenvalues --    0.16864   0.18202   0.18369   0.18895   0.19117

  Beta  occ. eigenvalues --  -19.02187 -14.13077 -14.12562 -10.11877 -10.07173
  Beta  occ. eigenvalues --  -10.05498 -10.03933 -10.03463 -10.02187 -10.02120
  Beta  occ. eigenvalues --  -10.01773  -0.94397  -0.75192  -0.73163  -0.67737
  Beta  occ. eigenvalues --   -0.63922  -0.57760  -0.56764  -0.49562  -0.44935
  Beta  occ. eigenvalues --   -0.40373  -0.37907  -0.33345  -0.31954  -0.30217
  Beta  occ. eigenvalues --   -0.28942  -0.28565  -0.27726  -0.27158  -0.25658
  Beta  occ. eigenvalues --   -0.22977  -0.20713  -0.19935  -0.19393  -0.16189
  Beta  occ. eigenvalues --   -0.15895  -0.13176  -0.13136  -0.05292
  Beta virt. eigenvalues --    0.08016   0.09592   0.10939   0.10983   0.11777
  Beta virt. eigenvalues --    0.12023   0.13248   0.13578   0.14913   0.15600
  Beta virt. eigenvalues --    0.16052   0.16803   0.18340   0.18390   0.19076

 Mulliken charges and spin densities:
               1          2
     1  C   -0.721225  -0.051633
     2  C    0.140751   0.368166
     3  C   -0.030586  -0.146447
     4  C    0.073664   0.390953
     5  C    1.791487   0.191434
     6  C   -0.171325   0.011166
     7  N   -0.380459   0.028908
     8  O   -0.143267   0.053316
     9  C   -1.742835  -0.043024
    10  N   -0.319150   0.099051
    11  C   -0.534989  -0.029662
    12  H    0.112619   0.038239
    13  H    0.112872   0.037920
    14  H    0.137584   0.000150
    15  H    0.102920   0.009244
    16  H    0.197658  -0.000787
    17  H    0.111898   0.021645
    18  H    0.111756   0.021260
    19  H    0.150626   0.000102
 Sum of Mulliken charges =  -1.00000   1.00000

 Dipole moment (field-independent basis, Debye):
    X=              7.0738    Y=              3.4022    Z=              0.0001  Tot=              7.8494
 Quadrupole moment (field-independent basis, Debye-Ang):
   XX=           -104.4425   YY=            -79.7992   ZZ=            -71.5188
   XY=             -6.6380   XZ=              0.0048   YZ=             -0.0037

 Summary of Natural Population Analysis:

                                       Natural Population
                Natural  -----------------------------------------------
    Atom  No    Charge         Core      Valence    Rydberg      Total
 -----------------------------------------------------------------------
      C    1   -0.30785      0.99964     2.30379    0.00442     3.30785
      C    2    0.29934      0.99944     1.68996    0.01125     2.70066
      C    3   -0.21262      0.99947     2.20451    0.00865     3.21262
      C    4    0.14823      0.99950     1.84457    0.00769     2.85177
      C    5   -0.13202      0.99930     2.12218    0.01055     3.13202
      C    6    0.29433      0.99955     1.68907    0.01705     2.70567
      N    7   -0.36718      0.99969     2.85880    0.00869     3.86718
      O    8   -0.25688      0.99983     3.24670    0.01035     4.25688
      C    9    0.16192      0.99965     1.81916    0.01926     2.83808
      N   10   -0.19536      0.99978     2.68393    0.01165     3.69536
      C   11   -0.30130      0.99964     2.29728    0.00438     3.30130
      H   12    0.10447      0.00000     0.39422    0.00131     0.39553
      H   13    0.10446      0.00000     0.39423    0.00131     0.39554
      H   14    0.09710      0.00000     0.40215    0.00075     0.40290
      H   15    0.09501      0.00000     0.40406    0.00093     0.40499
      H   16    0.15868      0.00000     0.33926    0.00206     0.34132
      H   17    0.10078      0.00000     0.39817    0.00104     0.39922
      H   18    0.10069      0.00000     0.39826    0.00104     0.39931
      H   19    0.10819      0.00000     0.39090    0.00091     0.39181
 =======================================================================
   * Total *   -0.00000     10.99551    27.88119    0.12330    39.00000

 Normal termination of Gaussian 16 at Tue Dec  8 19:31:18 2020.
