 Gaussian 16, Revision A.03,

 -----------------------------------------------------------
 # opt freq B3LYP/6-31G(d) empiricaldispersion=gd3bj scf=xqc
 -----------------------------------------------------------

 -------------------------------
 CID_123568150_JID_8106_neutraal
 -------------------------------
 Symbolic Z-matrix:
 Charge =  0 Multiplicity = 1

 SCF Done:  E(RB3LYP) =  -819.206382038     A.U. after   15 cycles
 SCF Done:  E(RB3LYP) =  -819.212134057     A.U. after   13 cycles
 SCF Done:  E(RB3LYP) =  -819.213752969     A.U. after   13 cycles
 SCF Done:  E(RB3LYP) =  -819.214582556     A.U. after   12 cycles
 SCF Done:  E(RB3LYP) =  -819.215284675     A.U. after   13 cycles
 SCF Done:  E(RB3LYP) =  -819.215792002     A.U. after   13 cycles
 SCF Done:  E(RB3LYP) =  -819.216049473     A.U. after   12 cycles
 SCF Done:  E(RB3LYP) =  -819.216239081     A.U. after   11 cycles
 SCF Done:  E(RB3LYP) =  -819.216352902     A.U. after   11 cycles
 SCF Done:  E(RB3LYP) =  -819.216489810     A.U. after   11 cycles
 SCF Done:  E(RB3LYP) =  -819.216760494     A.U. after    8 cycles
 SCF Done:  E(RB3LYP) =  -819.216761597     A.U. after    8 cycles
 SCF Done:  E(RB3LYP) =  -819.216763034     A.U. after    8 cycles
 SCF Done:  E(RB3LYP) =  -819.216764206     A.U. after    9 cycles
 SCF Done:  E(RB3LYP) =  -819.216765105     A.U. after    8 cycles
 SCF Done:  E(RB3LYP) =  -819.216765243     A.U. after    7 cycles
 Optimization completed.
    -- Stationary point found.
 Normal termination of Gaussian 16 at Fri Dec 11 18:48:16 2020.

 --------------------------------------------------------------------
 #N Geom=AllCheck Guess=TCheck SCRF=Check GenChk RB3LYP/6-31G(d) Freq
 --------------------------------------------------------------------

 Structure from the checkpoint file:  "JID_8106.chk"
 -------------------------------
 CID_123568150_JID_8106_neutraal
 -------------------------------
 Charge =  0 Multiplicity = 1

 SCF Done:  E(RB3LYP) =  -819.216765243     A.U. after    1 cycles

  Exact polarizability: 272.000   6.188 179.372   0.003   0.006  78.619
 Approx polarizability: 360.504  18.975 301.159   0.016   0.012 122.039

                      1                      2                      3
                      A                      A                      A
 Frequencies --     24.8382                30.0832                63.7408
 Red. masses --      3.9557                 3.3034                 5.6656
 Frc consts  --      0.0014                 0.0018                 0.0136
 IR Inten    --      0.4731                 0.5653                 0.6827

                      4                      5                      6
                      A                      A                      A
 Frequencies --     78.9391                81.9141               105.1135
 Red. masses --      5.0854                 4.3351                 1.0435
 Frc consts  --      0.0187                 0.0171                 0.0068
 IR Inten    --      0.0438                 0.0331                 0.1524

                      7                      8                      9
                      A                      A                      A
 Frequencies --    137.7369               146.8896               165.3751
 Red. masses --      1.0287                 4.4665                 4.6233
 Frc consts  --      0.0115                 0.0568                 0.0745
 IR Inten    --      0.0040                 3.6507                 1.9909

                     10                     11                     12
                      A                      A                      A
 Frequencies --    185.4956               208.0955               219.0251
 Red. masses --      1.0581                 2.3217                 1.7263
 Frc consts  --      0.0215                 0.0592                 0.0488
 IR Inten    --      0.0614                 1.1926                 2.1684

                     13                     14                     15
                      A                      A                      A
 Frequencies --    219.7060               231.1842               264.3542
 Red. masses --      3.6317                 2.3985                 3.1767
 Frc consts  --      0.1033                 0.0755                 0.1308
 IR Inten    --      0.4890                 0.6787                 1.3791

                     16                     17                     18
                      A                      A                      A
 Frequencies --    293.3731               325.0173               363.8879
 Red. masses --      3.2394                 3.9990                 4.8185
 Frc consts  --      0.1643                 0.2489                 0.3759
 IR Inten    --      2.2668                 0.0001                 0.0020

                     19                     20                     21
                      A                      A                      A
 Frequencies --    365.6181               371.6402               417.2464
 Red. masses --      4.6350                 6.2321                 3.1570
 Frc consts  --      0.3651                 0.5071                 0.3238
 IR Inten    --     11.1494                 0.1588                 0.8903

                     22                     23                     24
                      A                      A                      A
 Frequencies --    476.6707               524.2174               552.6540
 Red. masses --      3.1277                 4.0086                 1.9255
 Frc consts  --      0.4187                 0.6490                 0.3465
 IR Inten    --      1.6186                 3.8878                 3.6697

                     25                     26                     27
                      A                      A                      A
 Frequencies --    560.8583               626.1566               642.2018
 Red. masses --      4.1555                 7.5455                 4.6656
 Frc consts  --      0.7702                 1.7430                 1.1337
 IR Inten    --     33.6551                 0.0005                 5.3318

                     28                     29                     30
                      A                      A                      A
 Frequencies --    658.8934               659.8223               690.6628
 Red. masses --      4.7450                 5.6969                 1.3306
 Frc consts  --      1.2137                 1.4613                 0.3740
 IR Inten    --      0.0206                 7.6284                85.2247

                     31                     32                     33
                      A                      A                      A
 Frequencies --    698.1484               744.6677               759.9096
 Red. masses --      5.7361                 8.6517                 3.8718
 Frc consts  --      1.6473                 2.8267                 1.3173
 IR Inten    --      0.5298                 5.0197                 2.4225

                     34                     35                     36
                      A                      A                      A
 Frequencies --    766.3271               808.2992               852.7621
 Red. masses --      4.5072                 5.2588                 5.6587
 Frc consts  --      1.5595                 2.0243                 2.4245
 IR Inten    --      2.9517                 9.2517                10.1453

                     37                     38                     39
                      A                      A                      A
 Frequencies --    902.6381               943.9207               964.4967
 Red. masses --      1.5359                 1.3220                 7.2388
 Frc consts  --      0.7373                 0.6940                 3.9675
 IR Inten    --     23.6448                 1.1621                 2.4431

                     40                     41                     42
                      A                      A                      A
 Frequencies --    983.1132              1006.7244              1020.6266
 Red. masses --      2.1422                 2.1773                 2.1467
 Frc consts  --      1.2199                 1.3001                 1.3175
 IR Inten    --      2.8023                 4.0761                 1.2528

                     43                     44                     45
                      A                      A                      A
 Frequencies --   1041.5186              1047.3323              1073.2936
 Red. masses --      1.7486                 1.5694                 1.7263
 Frc consts  --      1.1176                 1.0143                 1.1717
 IR Inten    --     75.2558                 5.0109                 7.0769

                     46                     47                     48
                      A                      A                      A
 Frequencies --   1076.8922              1078.6793              1083.6448
 Red. masses --      1.4154                 1.4835                 1.5166
 Frc consts  --      0.9671                 1.0170                 1.0493
 IR Inten    --      2.6393                 2.2036                 0.0736

                     49                     50                     51
                      A                      A                      A
 Frequencies --   1104.3780              1181.4675              1236.1149
 Red. masses --      3.7594                 3.3692                 3.6920
 Frc consts  --      2.7015                 2.7709                 3.3238
 IR Inten    --     12.5572                38.4465                 0.3820

                     52                     53                     54
                      A                      A                      A
 Frequencies --   1241.3421              1260.3358              1320.8941
 Red. masses --      2.4914                 2.9440                 5.0701
 Frc consts  --      2.2620                 2.7552                 5.2120
 IR Inten    --     18.6687                 5.6418               203.7426

                     55                     56                     57
                      A                      A                      A
 Frequencies --   1327.4817              1345.9460              1370.8754
 Red. masses --      3.4303                 3.6167                 2.4942
 Frc consts  --      3.5615                 3.8602                 2.7617
 IR Inten    --      1.2730               343.2840                 7.3082

                     58                     59                     60
                      A                      A                      A
 Frequencies --   1373.0794              1412.2990              1432.6121
 Red. masses --      2.4037                 2.8957                 1.4089
 Frc consts  --      2.6701                 3.4029                 1.7037
 IR Inten    --     30.2992                70.3471               126.3763

                     61                     62                     63
                      A                      A                      A
 Frequencies --   1450.9588              1451.9080              1453.0395
 Red. masses --      1.2460                 1.3941                 1.4447
 Frc consts  --      1.5455                 1.7316                 1.7971
 IR Inten    --      1.2718                 1.9311                 0.8957

                     64                     65                     66
                      A                      A                      A
 Frequencies --   1477.5301              1501.0281              1501.8955
 Red. masses --      1.0677                 1.0463                 1.0426
 Frc consts  --      1.3734                 1.3889                 1.3856
 IR Inten    --      5.8739                 8.1219                 3.1106

                     67                     68                     69
                      A                      A                      A
 Frequencies --   1506.3477              1508.2061              1513.2540
 Red. masses --      1.0425                 1.6530                 1.0442
 Frc consts  --      1.3937                 2.2154                 1.4089
 IR Inten    --      8.6701                46.7372                 7.1659

                     70                     71                     72
                      A                      A                      A
 Frequencies --   1518.5418              1520.8245              1532.4628
 Red. masses --      1.0884                 1.0695                 1.6101
 Frc consts  --      1.4788                 1.4574                 2.2278
 IR Inten    --      6.2402                 0.8486                15.5118

                     73                     74                     75
                      A                      A                      A
 Frequencies --   1537.3292              1587.3532              1621.7995
 Red. masses --      2.6549                 5.7349                 7.9698
 Frc consts  --      3.6968                 8.5138                12.3508
 IR Inten    --    331.4708                30.1640                50.9842

                     76                     77                     78
                      A                      A                      A
 Frequencies --   1660.4379              1683.9540              1795.4741
 Red. masses --      5.9194                 7.1277                 7.4697
 Frc consts  --      9.6156                11.9086                14.1877
 IR Inten    --    367.6084                29.1310               471.8842

                     79                     80                     81
                      A                      A                      A
 Frequencies --   3047.5771              3056.0605              3057.9808
 Red. masses --      1.0383                 1.0365                 1.0354
 Frc consts  --      5.6817                 5.7035                 5.7048
 IR Inten    --     30.5113                30.1946                26.0707

                     82                     83                     84
                      A                      A                      A
 Frequencies --   3083.8608              3098.1528              3112.2283
 Red. masses --      1.0344                 1.1018                 1.1016
 Frc consts  --      5.7963                 6.2310                 6.2865
 IR Inten    --      2.3929                13.0445                13.4117

                     85                     86                     87
                      A                      A                      A
 Frequencies --   3117.4750              3130.2913              3136.5882
 Red. masses --      1.1008                 1.1032                 1.1017
 Frc consts  --      6.3030                 6.3692                 6.3857
 IR Inten    --     13.7945                18.3007                16.6081

                     88                     89                     90
                      A                      A                      A
 Frequencies --   3146.6829              3152.4627              3163.4458
 Red. masses --      1.0986                 1.0995                 1.0903
 Frc consts  --      6.4090                 6.4380                 6.4286
 IR Inten    --     11.9601                 3.8520                38.0031

                     91                     92                     93
                      A                      A                      A
 Frequencies --   3179.5344              3220.6500              3591.9110
 Red. masses --      1.1066                 1.0914                 1.0758
 Frc consts  --      6.5914                 6.6696                 8.1780
 IR Inten    --     23.6039                 3.9271                24.3108

 - Thermochemistry -
 -------------------
 Temperature   298.150 Kelvin.  Pressure   1.00000 Atm.
 Atom     1 has atomic number  6 and mass  12.00000

 Molecular mass:   245.11643 amu.
 Principal axes and moments of inertia in atomic units:
                           1         2         3
     Eigenvalues --  1948.575859254.60456**********
           X            0.99993  -0.01169  -0.00001
           Y            0.01169   0.99993   0.00000
           Z            0.00001  -0.00000   1.00000
 This molecule is an asymmetric top.
 Rotational symmetry number  1.
 Warning -- assumption of classical behavior for rotation
           may cause significant error
 Rotational temperatures (Kelvin)      0.04445     0.00936     0.00776
 Rotational constants (GHZ):           0.92618     0.19501     0.16174
 Zero-point vibrational energy     701421.3 (Joules/Mol)
                                  167.64371 (Kcal/Mol)
 Warning -- explicit consideration of  25 degrees of freedom as
           vibrations may cause significant error
 Vibrational temperatures:     35.74    43.28    91.71   113.58   117.86
          (Kelvin)            151.23   198.17   211.34   237.94   266.89
                              299.40   315.13   316.11   332.62   380.35
                              422.10   467.63   523.55   526.04   534.71
                              600.32   685.82   754.23   795.15   806.95
                              900.90   923.99   948.00   949.34   993.71
                             1004.48  1071.41  1093.34  1102.57  1162.96
                             1226.93  1298.69  1358.09  1387.70  1414.48
                             1448.45  1468.45  1498.51  1506.88  1544.23
                             1549.41  1551.98  1559.12  1588.95  1699.87
                             1778.49  1786.01  1813.34  1900.47  1909.95
                             1936.52  1972.38  1975.55  2031.98  2061.21
                             2087.61  2088.97  2090.60  2125.84  2159.64
                             2160.89  2167.30  2169.97  2177.23  2184.84
                             2188.13  2204.87  2211.87  2283.85  2333.41
                             2389.00  2422.83  2583.29  4384.78  4396.99
                             4399.75  4436.99  4457.55  4477.80  4485.35
                             4503.79  4512.85  4527.37  4535.69  4551.49
                             4574.64  4633.80  5167.96

 Zero-point correction=                           0.267157 (Hartree/Particle)
 Thermal correction to Energy=                    0.284730
 Thermal correction to Enthalpy=                  0.285674
 Thermal correction to Gibbs Free Energy=         0.220353
 Sum of electronic and zero-point Energies=           -818.949608
 Sum of electronic and thermal Energies=              -818.932035
 Sum of electronic and thermal Enthalpies=            -818.931091
 Sum of electronic and thermal Free Energies=         -818.996412

                     E (Thermal)             CV                S
                      KCal/Mol        Cal/Mol-Kelvin    Cal/Mol-Kelvin
 Total                  178.671             64.618            137.480
 Electronic               0.000              0.000              0.000
 Translational            0.889              2.981             42.390
 Rotational               0.889              2.981             33.664
 Vibrational            176.893             58.657             61.425
 Vibration     1          0.593              1.985              6.204
 Vibration     2          0.594              1.984              5.824
 Vibration     3          0.597              1.972              4.338
 Vibration     4          0.600              1.963              3.917
 Vibration     5          0.600              1.962              3.844
 Vibration     6          0.605              1.945              3.357
 Vibration     7          0.614              1.916              2.835
 Vibration     8          0.617              1.906              2.712
 Vibration     9          0.624              1.885              2.487
 Vibration    10          0.632              1.860              2.272
 Vibration    11          0.641              1.828              2.060
 Vibration    12          0.647              1.812              1.967
 Vibration    13          0.647              1.811              1.962
 Vibration    14          0.653              1.793              1.870
 Vibration    15          0.671              1.738              1.633
 Vibration    16          0.688              1.686              1.454
 Vibration    17          0.709              1.625              1.285
 Vibration    18          0.737              1.547              1.105
 Vibration    19          0.739              1.543              1.098
 Vibration    20          0.743              1.530              1.073
 Vibration    21          0.780              1.433              0.901
 Vibration    22          0.833              1.302              0.719
 Vibration    23          0.879              1.196              0.600
 Vibration    24          0.908              1.134              0.539
 Vibration    25          0.917              1.116              0.522

                           ! Non-Optimized Parameters !
 Normal termination of Gaussian 16 at Fri Dec 11 19:00:33 2020.

 ----------------------------------------------------------------------
 # B3LYP/6-311++G(d,p) empiricaldispersion=gd3bj scf=xqc pop=npa geom=c
 heck
 ----------------------------------------------------------------------

 ---------------------------------------
 CID_123568150_JID_8106_Energie_neutraal
 ---------------------------------------
 Structure from the checkpoint file:  "JID_8106.chk"
 Charge =  0 Multiplicity = 1

 SCF Done:  E(RB3LYP) =  -819.437271352     A.U. after   15 cycles
 Normal termination of Gaussian 16 at Fri Dec 11 19:06:34 2020.

 ----------------------------------------------------------------------
 # B3LYP/6-311++G(d,p) empiricaldispersion=gd3bj scf=xqc pop=npa geom=c
 heck
 ----------------------------------------------------------------------

 -------------------------------------
 CID_123568150_JID_8106_Energie_kation
 -------------------------------------
 Structure from the checkpoint file:  "JID_8106.chk"
 Charge =  1 Multiplicity = 2

 SCF Done:  E(UB3LYP) =  -819.146425562     A.U. after   27 cycles
 Normal termination of Gaussian 16 at Fri Dec 11 19:22:20 2020.
 Gaussian 16:  ES64L-G16RevA.03 25-Dec-2016

 ----------------------------------------------------------------------
 # B3LYP/6-311++G(d,p) empiricaldispersion=gd3bj scf=xqc pop=npa geom=c
 heck
 ----------------------------------------------------------------------

 ------------------------------------
 CID_123568150_JID_8106_Energie_anion
 ------------------------------------
 Structure from the checkpoint file:  "JID_8106.chk"
 Charge = -1 Multiplicity = 2

                         Standard orientation:
 ---------------------------------------------------------------------
 Center     Atomic      Atomic             Coordinates (Angstroms)
 Number     Number       Type             X           Y           Z
 ---------------------------------------------------------------------
      1          6           0        0.937611    2.918512   -0.000124
      2          6           0       -0.062048    1.791404   -0.000254
      3          6           0       -1.426440    2.086525   -0.000383
      4          7           0       -2.424308    1.198241   -0.000580
      5          6           0       -2.092662   -0.095745   -0.000530
      6          6           0       -0.760571   -0.528419   -0.000312
      7          6           0        0.268724    0.414944   -0.000224
      8          6           0        1.632208   -0.109104   -0.000072
      9          7           0        1.987578   -1.364381   -0.000059
     10          6           0        3.376009   -1.358733    0.000148
     11          6           0        3.812367   -0.064654    0.000197
     12          8           0        2.697978    0.744213    0.000036
     13          6           0        5.136988    0.604265    0.000338
     14          6           0        4.160614   -2.628674    0.000326
     15          7           0       -3.098614   -1.063550   -0.000786
     16          6           0       -4.491671   -0.994504    0.000161
     17          8           0       -5.114510   -2.045640   -0.000436
     18          6           0       -5.165997    0.355462    0.001834
     19          1           0        0.414399    3.879645   -0.000532
     20          1           0        1.590747    2.885172    0.877955
     21          1           0        1.591490    2.884768   -0.877608
     22          1           0       -1.735960    3.130886   -0.000416
     23          1           0       -0.507453   -1.582953   -0.000185
     24          1           0        5.932715   -0.144941    0.001178
     25          1           0        5.265786    1.238805   -0.884932
     26          1           0        5.264996    1.239986    0.884873
     27          1           0        3.921896   -3.232310    0.883128
     28          1           0        3.921230   -3.232920   -0.881870
     29          1           0        5.236719   -2.432794   -0.000139
     30          1           0       -2.783705   -2.026572   -0.001617
     31          1           0       -4.869617    0.941656    0.875289
     32          1           0       -4.871461    0.942862   -0.871426
     33          1           0       -6.242912    0.180280    0.002853
 ---------------------------------------------------------------------

 SCF Done:  E(UB3LYP) =  -819.454833244     A.U. after   20 cycles

 The electronic state is 2-A.
 Alpha  occ. eigenvalues --  -19.04400 -18.97614 -14.22322 -14.15056 -14.14202
 Alpha  occ. eigenvalues --  -10.16186 -10.10363 -10.10056 -10.09305 -10.07883
 Alpha  occ. eigenvalues --  -10.07281 -10.06827 -10.05644 -10.05206 -10.04225
 Alpha  occ. eigenvalues --  -10.03710 -10.03331 -10.02094  -0.98656  -0.92956
 Alpha  occ. eigenvalues --   -0.83087  -0.77829  -0.76996  -0.69382  -0.66342
 Alpha  occ. eigenvalues --   -0.63766  -0.62677  -0.61877  -0.57376  -0.55796
 Alpha  occ. eigenvalues --   -0.50807  -0.48697  -0.46969  -0.45038  -0.43313
 Alpha  occ. eigenvalues --   -0.40613  -0.36700  -0.35563  -0.35436  -0.33752
 Alpha  occ. eigenvalues --   -0.33640  -0.32502  -0.31982  -0.31377  -0.30881
 Alpha  occ. eigenvalues --   -0.30619  -0.30325  -0.28938  -0.28909  -0.28460
 Alpha  occ. eigenvalues --   -0.28354  -0.27244  -0.26916  -0.25790  -0.24734
 Alpha  occ. eigenvalues --   -0.23853  -0.22609  -0.19169  -0.17742  -0.15657
 Alpha  occ. eigenvalues --   -0.15033  -0.14767  -0.11839  -0.09363  -0.09079
 Alpha  occ. eigenvalues --    0.03842
 Alpha virt. eigenvalues --    0.06778   0.08393   0.08829   0.09514   0.10655
 Alpha virt. eigenvalues --    0.10681   0.11133   0.11468   0.11593   0.12075
 Alpha virt. eigenvalues --    0.12275   0.12866   0.13364   0.13952   0.14361

  Beta  occ. eigenvalues --  -19.04153 -18.97593 -14.22336 -14.14767 -14.13734
  Beta  occ. eigenvalues --  -10.16159 -10.10231 -10.10090 -10.09154 -10.07897
  Beta  occ. eigenvalues --  -10.07363 -10.06823 -10.05643 -10.05156 -10.04232
  Beta  occ. eigenvalues --  -10.03653 -10.03020 -10.01926  -0.98264  -0.92916
  Beta  occ. eigenvalues --   -0.82863  -0.77383  -0.76594  -0.68964  -0.66019
  Beta  occ. eigenvalues --   -0.63563  -0.62633  -0.61697  -0.57130  -0.55639
  Beta  occ. eigenvalues --   -0.50417  -0.48525  -0.46743  -0.44792  -0.43118
  Beta  occ. eigenvalues --   -0.40466  -0.36627  -0.35268  -0.34938  -0.33588
  Beta  occ. eigenvalues --   -0.33517  -0.32353  -0.31833  -0.31340  -0.30834
  Beta  occ. eigenvalues --   -0.30250  -0.30142  -0.28885  -0.28504  -0.28389
  Beta  occ. eigenvalues --   -0.28252  -0.26901  -0.26821  -0.25581  -0.24158
  Beta  occ. eigenvalues --   -0.23646  -0.22460  -0.18061  -0.16722  -0.14976
  Beta  occ. eigenvalues --   -0.14410  -0.14028  -0.11316  -0.08270  -0.07924
  Beta virt. eigenvalues --    0.06748   0.08365   0.08815   0.09487   0.09593
  Beta virt. eigenvalues --    0.10621   0.10713   0.11436   0.11562   0.11646
  Beta virt. eigenvalues --    0.12044   0.12346   0.12827   0.13337   0.14057

 Mulliken charges and spin densities:
               1          2
     1  C   -0.881395  -0.007842
     2  C    0.518000   0.057525
     3  C   -0.351442   0.082085
     4  N   -0.163639   0.220727
     5  C   -0.782483  -0.052644
     6  C   -0.768726   0.198045
     7  C    1.096184   0.175649
     8  C   -0.867118   0.048888
     9  N    0.009615   0.146040
    10  C    0.297835  -0.054788
    11  C    0.355208   0.114408
    12  O   -0.038304   0.048015
    13  C   -0.511423  -0.004254
    14  C   -0.443611   0.006528
    15  N   -0.119657  -0.008823
    16  C    0.120674   0.013282
    17  O   -0.365051   0.007919
    18  C   -0.422498   0.001349
    19  H    0.109502  -0.000942
    20  H    0.145054   0.004809
    21  H    0.145090   0.004801
    22  H    0.110096  -0.004915
    23  H    0.215999  -0.011279
    24  H    0.124752   0.000090
    25  H    0.136023   0.008888
    26  H    0.136049   0.008850
    27  H    0.144305  -0.000039
    28  H    0.144285  -0.000027
    29  H    0.106232  -0.000874
    30  H    0.297493  -0.000471
    31  H    0.173834  -0.000166
    32  H    0.173864  -0.000167
    33  H    0.155252  -0.000664
 Sum of Mulliken charges =  -1.00000   1.00000

 Dipole moment (field-independent basis, Debye):
    X=              5.5479    Y=              1.9216    Z=              0.0024  Tot=              5.8713
 Quadrupole moment (field-independent basis, Debye-Ang):
   XX=           -164.4088   YY=           -127.7168   ZZ=           -113.8059
   XY=            -12.1778   XZ=             -0.0085   YZ=              0.0016

 Summary of Natural Population Analysis:

                                       Natural Population
                Natural  -----------------------------------------------
    Atom  No    Charge         Core      Valence    Rydberg      Total
 -----------------------------------------------------------------------
      C    1   -0.28992      0.99965     2.28556    0.00471     3.28992
      C    2   -0.02428      0.99949     2.01719    0.00760     3.02428
      C    3    0.03224      0.99955     1.95382    0.01438     2.96776
      N    4   -0.20592      0.99966     2.69326    0.01299     3.70592
      C    5    0.17500      0.99953     1.81163    0.01384     2.82500
      C    6   -0.07971      0.99943     2.07221    0.00806     3.07971
      C    7    0.00757      0.99947     1.98313    0.00984     2.99243
      C    8    0.29206      0.99947     1.69015    0.01833     2.70794
      N    9   -0.22546      0.99967     2.71601    0.00978     3.72546
      C   10    0.01868      0.99947     1.96828    0.01356     2.98132
      C   11    0.14510      0.99941     1.84298    0.01252     2.85490
      O   12   -0.22739      0.99985     3.21746    0.01008     4.22739
      C   13   -0.30307      0.99964     2.29920    0.00422     3.30307
      C   14   -0.29237      0.99964     2.28763    0.00510     3.29237
      N   15   -0.30809      0.99964     2.79971    0.00874     3.80809
      C   16    0.34762      0.99972     1.63158    0.02108     2.65238
      O   17   -0.33221      0.99988     3.32517    0.00717     4.33221
      C   18   -0.33236      0.99962     2.32833    0.00441     3.33236
      H   19    0.09090      0.00000     0.40784    0.00126     0.40910
      H   20    0.10196      0.00000     0.39686    0.00118     0.39804
      H   21    0.10197      0.00000     0.39685    0.00118     0.39803
      H   22    0.07563      0.00000     0.42309    0.00128     0.42437
      H   23    0.10603      0.00000     0.39315    0.00082     0.39397
      H   24    0.10057      0.00000     0.39858    0.00085     0.39943
      H   25    0.10116      0.00000     0.39743    0.00141     0.39884
      H   26    0.10117      0.00000     0.39742    0.00141     0.39883
      H   27    0.10022      0.00000     0.39842    0.00136     0.39978
      H   28    0.10023      0.00000     0.39841    0.00136     0.39977
      H   29    0.09411      0.00000     0.40494    0.00095     0.40589
      H   30    0.19451      0.00000     0.30326    0.00223     0.30549
      H   31    0.11781      0.00000     0.38098    0.00121     0.38219
      H   32    0.11784      0.00000     0.38096    0.00121     0.38216
      H   33    0.09858      0.00000     0.40012    0.00130     0.40142
 =======================================================================
   * Total *    0.00017     17.99279    46.80160    0.20544    64.99983

 Normal termination of Gaussian 16 at Fri Dec 11 19:34:04 2020.
