 Gaussian 16, Revision A.03,

 -----------------------------------------------------------
 # opt freq B3LYP/6-31G(d) empiricaldispersion=gd3bj scf=xqc
 -----------------------------------------------------------

 -------------------------------
 CID_151976731_JID_1025_neutraal
 -------------------------------
 Symbolic Z-matrix:
 Charge =  0 Multiplicity = 1

 SCF Done:  E(RB3LYP) =  -1208.26339175     A.U. after   15 cycles
 SCF Done:  E(RB3LYP) =  -1208.26740563     A.U. after   15 cycles
 SCF Done:  E(RB3LYP) =  -1208.27036860     A.U. after   14 cycles
 SCF Done:  E(RB3LYP) =  -1208.27278591     A.U. after   14 cycles
 SCF Done:  E(RB3LYP) =  -1208.27347336     A.U. after   14 cycles
 SCF Done:  E(RB3LYP) =  -1208.27387260     A.U. after   13 cycles
 SCF Done:  E(RB3LYP) =  -1208.27402113     A.U. after   13 cycles
 SCF Done:  E(RB3LYP) =  -1208.27378982     A.U. after   16 cycles
 SCF Done:  E(RB3LYP) =  -1208.27446302     A.U. after   14 cycles
 SCF Done:  E(RB3LYP) =  -1208.27467582     A.U. after   13 cycles
 SCF Done:  E(RB3LYP) =  -1208.27517796     A.U. after   10 cycles
 SCF Done:  E(RB3LYP) =  -1208.27517882     A.U. after   10 cycles
 SCF Done:  E(RB3LYP) =  -1208.27517892     A.U. after    9 cycles
 SCF Done:  E(RB3LYP) =  -1208.27517893     A.U. after    8 cycles
 Optimization completed.
    -- Stationary point found.
 Normal termination of Gaussian 16 at Tue Dec  8 19:11:23 2020.

 --------------------------------------------------------------------
 #N Geom=AllCheck Guess=TCheck SCRF=Check GenChk RB3LYP/6-31G(d) Freq
 --------------------------------------------------------------------

 Structure from the checkpoint file:  "JID_1025.chk"
 -------------------------------
 CID_151976731_JID_1025_neutraal
 -------------------------------
 Charge =  0 Multiplicity = 1

 SCF Done:  E(RB3LYP) =  -1208.27517893     A.U. after    1 cycles

  Exact polarizability: 163.084  -4.949 130.631  -2.666   0.439  48.347
 Approx polarizability: 289.346 -31.193 234.263 -15.065   2.343  80.503

                      1                      2                      3
                      A                      A                      A
 Frequencies --     38.0557                94.2716               131.9088
 Red. masses --     13.4881                 8.2310                 2.1736
 Frc consts  --      0.0115                 0.0431                 0.0223
 IR Inten    --      0.3794                 2.3807                10.5111

                      4                      5                      6
                      A                      A                      A
 Frequencies --    150.8184               198.4795               199.0480
 Red. masses --      1.8958                11.1008                 4.0182
 Frc consts  --      0.0254                 0.2577                 0.0938
 IR Inten    --     13.3276                 0.9795                 0.1072

                      7                      8                      9
                      A                      A                      A
 Frequencies --    245.1144               267.8551               289.1247
 Red. masses --     11.0779                 1.0694                10.2155
 Frc consts  --      0.3921                 0.0452                 0.5031
 IR Inten    --      1.7526                17.8917                 3.0368

                     10                     11                     12
                      A                      A                      A
 Frequencies --    363.5609               412.9294               511.5610
 Red. masses --     13.9281                 7.4237                 6.4130
 Frc consts  --      1.0847                 0.7458                 0.9888
 IR Inten    --      1.7314                 1.9412                 0.2186

                     13                     14                     15
                      A                      A                      A
 Frequencies --    514.5531               526.3104               530.6055
 Red. masses --      7.9109                10.5348                 8.8448
 Frc consts  --      1.2341                 1.7193                 1.4672
 IR Inten    --      4.1947                 9.6585                 2.1103

                     16                     17                     18
                      A                      A                      A
 Frequencies --    574.6915               680.8341               750.1767
 Red. masses --      6.0148                 8.9728                 5.6751
 Frc consts  --      1.1704                 2.4505                 1.8817
 IR Inten    --      5.1841                20.1937                10.9144

                     19                     20                     21
                      A                      A                      A
 Frequencies --    806.3331               839.8147               877.2470
 Red. masses --      7.5312                 6.8800                 1.3725
 Frc consts  --      2.8850                 2.8590                 0.6223
 IR Inten    --     20.0460                54.8799                12.4213

                     22                     23                     24
                      A                      A                      A
 Frequencies --    922.7880               966.9237               981.7989
 Red. masses --      1.4275                 1.1802                 1.1411
 Frc consts  --      0.7162                 0.6501                 0.6481
 IR Inten    --      0.2173                 0.3658                 1.5331

                     25                     26                     27
                      A                      A                      A
 Frequencies --   1116.0633              1162.7330              1243.7418
 Red. masses --     10.9330                 8.4558                 1.9911
 Frc consts  --      8.0236                 6.7354                 1.8147
 IR Inten    --      9.7354                10.9178                 8.4810

                     28                     29                     30
                      A                      A                      A
 Frequencies --   1280.2796              1300.5549              1396.8749
 Red. masses --      2.6380                 7.1212                 4.9230
 Frc consts  --      2.5476                 7.0968                 5.6597
 IR Inten    --     46.7962                 8.1790                72.6339

                     31                     32                     33
                      A                      A                      A
 Frequencies --   1453.6244              1490.6157              1582.9034
 Red. masses --      1.7487                 3.3660                 5.6532
 Frc consts  --      2.1770                 4.4066                 8.3455
 IR Inten    --     16.6330               170.0272                43.4352

                     34                     35                     36
                      A                      A                      A
 Frequencies --   1591.5987              2273.7032              2685.2338
 Red. masses --      7.9798                13.9742                 1.0382
 Frc consts  --     11.9099                42.5644                 4.4106
 IR Inten    --     26.6892               605.4095                17.8795

                     37                     38                     39
                      A                      A                      A
 Frequencies --   2702.4073              3169.3978              3179.0188
 Red. masses --      1.0386                 1.0893                 1.0916
 Frc consts  --      4.4690                 6.4469                 6.4998
 IR Inten    --      7.8105                20.9987                13.0360

 - Thermochemistry -
 -------------------
 Temperature   298.150 Kelvin.  Pressure   1.00000 Atm.
 Atom     1 has atomic number  6 and mass  12.00000

 Molecular mass:   183.98774 amu.
 Principal axes and moments of inertia in atomic units:
                           1         2         3
     Eigenvalues --  1604.928482324.199073875.24352
           X            0.99960   0.02833   0.00193
           Y           -0.02833   0.99960  -0.00093
           Z           -0.00196   0.00088   1.00000
 This molecule is an asymmetric top.
 Rotational symmetry number  1.
 Warning -- assumption of classical behavior for rotation
           may cause significant error
 Rotational temperatures (Kelvin)      0.05397     0.03727     0.02235
 Rotational constants (GHZ):           1.12450     0.77650     0.46571
 Zero-point vibrational energy     236283.7 (Joules/Mol)
                                   56.47317 (Kcal/Mol)
 Warning -- explicit consideration of  16 degrees of freedom as
           vibrations may cause significant error
 Vibrational temperatures:     54.75   135.64   189.79   216.99   285.57
          (Kelvin)            286.39   352.66   385.38   415.99   523.08
                              594.11   736.02   740.33   757.24   763.42
                              826.85   979.57  1079.34  1160.13  1208.31
                             1262.16  1327.69  1391.19  1412.59  1605.77
                             1672.91  1789.47  1842.04  1871.21  2009.79
                             2091.44  2144.66  2277.44  2289.96  3271.35
                             3863.45  3888.16  4560.06  4573.90

 Zero-point correction=                           0.089996 (Hartree/Particle)
 Thermal correction to Energy=                    0.100575
 Thermal correction to Enthalpy=                  0.101520
 Thermal correction to Gibbs Free Energy=         0.052631
 Sum of electronic and zero-point Energies=          -1208.185183
 Sum of electronic and thermal Energies=             -1208.174604
 Sum of electronic and thermal Enthalpies=           -1208.173659
 Sum of electronic and thermal Free Energies=        -1208.222548

                     E (Thermal)             CV                S
                      KCal/Mol        Cal/Mol-Kelvin    Cal/Mol-Kelvin
 Total                   63.112             37.505            102.894
 Electronic               0.000              0.000              0.000
 Translational            0.889              2.981             41.535
 Rotational               0.889              2.981             31.048
 Vibrational             61.335             31.543             30.311
 Vibration     1          0.594              1.982              5.358
 Vibration     2          0.603              1.953              3.569
 Vibration     3          0.612              1.921              2.918
 Vibration     4          0.618              1.902              2.662
 Vibration     5          0.637              1.842              2.147
 Vibration     6          0.637              1.841              2.142
 Vibration     7          0.660              1.771              1.765
 Vibration     8          0.673              1.732              1.610
 Vibration     9          0.686              1.694              1.479
 Vibration    10          0.737              1.547              1.107
 Vibration    11          0.777              1.442              0.916
 Vibration    12          0.867              1.224              0.630
 Vibration    13          0.870              1.218              0.623
 Vibration    14          0.881              1.192              0.596
 Vibration    15          0.886              1.182              0.586
 Vibration    16          0.931              1.086              0.495

 Optimization completed.
    -- Stationary point found.
 Normal termination of Gaussian 16 at Tue Dec  8 19:13:54 2020.

 ----------------------------------------------------------------------
 # B3LYP/6-311++G(d,p) empiricaldispersion=gd3bj scf=xqc pop=npa geom=c
 heck
 ----------------------------------------------------------------------

 ---------------------------------------
 CID_151976731_JID_1025_Energie_neutraal
 ---------------------------------------
 Structure from the checkpoint file:  "JID_1025.chk"
 Charge =  0 Multiplicity = 1

 SCF Done:  E(RB3LYP) =  -1208.44029569     A.U. after   22 cycles
 Normal termination of Gaussian 16 at Tue Dec  8 19:14:53 2020.

 ----------------------------------------------------------------------
 # B3LYP/6-311++G(d,p) empiricaldispersion=gd3bj scf=xqc pop=npa geom=c
 heck
 ----------------------------------------------------------------------

 -------------------------------------
 CID_151976731_JID_1025_Energie_kation
 -------------------------------------
 Structure from the checkpoint file:  "JID_1025.chk"
 Charge =  1 Multiplicity = 2

 SCF Done:  E(UB3LYP) =  -1208.12803771     A.U. after   33 cycles
 SCF Done:  E(UB3LYP) =  -1208.13285776     a.u. after   12 cycles
 Normal termination of Gaussian 16 at Tue Dec  8 19:31:20 2020.
 Gaussian 16:  ES64L-G16RevA.03 25-Dec-2016

 ----------------------------------------------------------------------
 # B3LYP/6-311++G(d,p) empiricaldispersion=gd3bj scf=xqc pop=npa geom=c
 heck
 ----------------------------------------------------------------------

 ------------------------------------
 CID_151976731_JID_1025_Energie_anion
 ------------------------------------
 Structure from the checkpoint file:  "JID_1025.chk"
 Charge = -1 Multiplicity = 2

                         Standard orientation:
 ---------------------------------------------------------------------
 Center     Atomic      Atomic             Coordinates (Angstroms)
 Number     Number       Type             X           Y           Z
 ---------------------------------------------------------------------
      1          6           0        1.931904   -1.408432    0.140986
      2          6           0        1.488627   -0.091730   -0.011949
      3          6           0        0.102811    0.142854   -0.086472
      4          6           0       -0.769932   -0.958876   -0.025877
      5          6           0       -0.201261   -2.229616    0.144840
      6          7           0        1.108081   -2.454154    0.222787
      7         16           0       -2.531603   -0.747243   -0.198826
      8          7           0       -0.264470    1.488088   -0.290725
      9          7           0       -1.334973    1.944414    0.138113
     10          7           0       -2.252606    2.533753    0.465251
     11         16           0        2.583692    1.304189   -0.105029
     12          1           0        2.996471   -1.622852    0.206388
     13          1           0       -0.846745   -3.103666    0.210003
     14          1           0       -2.799924   -2.065397   -0.276184
     15          1           0        3.711661    0.570880    0.004326
 ---------------------------------------------------------------------

 SCF Done:  E(UB3LYP) =  -1208.45005858     A.U. after   33 cycles
 SCF Done:  E(UB3LYP) =  -1208.45005858     a.u. after    1 cycles

 The electronic state is 2-A.
 Alpha  occ. eigenvalues --  -88.74108 -88.73714 -14.29827 -14.21591 -14.20742
 Alpha  occ. eigenvalues --  -14.18194 -10.10077 -10.09035 -10.08696 -10.08373
 Alpha  occ. eigenvalues --  -10.07830  -7.82728  -7.82365  -5.79103  -5.78743
 Alpha  occ. eigenvalues --   -5.78735  -5.78368  -5.78134  -5.77770  -0.97970
 Alpha  occ. eigenvalues --   -0.83696  -0.81785  -0.70855  -0.69051  -0.61712
 Alpha  occ. eigenvalues --   -0.59241  -0.53899  -0.49047  -0.44317  -0.39745
 Alpha  occ. eigenvalues --   -0.36053  -0.34945  -0.34278  -0.33387  -0.30314
 Alpha  occ. eigenvalues --   -0.29638  -0.28894  -0.26942  -0.25032  -0.22728
 Alpha  occ. eigenvalues --   -0.21043  -0.20148  -0.16785  -0.14286  -0.13915
 Alpha  occ. eigenvalues --   -0.10166  -0.09192   0.04732
 Alpha virt. eigenvalues --    0.07903   0.07928   0.09209   0.09748   0.10585
 Alpha virt. eigenvalues --    0.11631   0.13147   0.13441   0.13739   0.14083
 Alpha virt. eigenvalues --    0.15551   0.15970   0.16340   0.16997   0.17849

  Beta  occ. eigenvalues --  -88.74097 -88.73700 -14.29363 -14.21691 -14.20054
  Beta  occ. eigenvalues --  -14.18095 -10.09868 -10.09075 -10.08594 -10.08389
  Beta  occ. eigenvalues --  -10.07726  -7.82717  -7.82351  -5.79071  -5.78731
  Beta  occ. eigenvalues --   -5.78703  -5.78365  -5.78130  -5.77756  -0.97044
  Beta  occ. eigenvalues --   -0.83297  -0.81509  -0.70606  -0.68901  -0.61478
  Beta  occ. eigenvalues --   -0.59111  -0.53540  -0.48931  -0.44103  -0.39439
  Beta  occ. eigenvalues --   -0.34843  -0.34692  -0.33307  -0.32987  -0.30173
  Beta  occ. eigenvalues --   -0.28678  -0.27920  -0.26710  -0.24858  -0.22534
  Beta  occ. eigenvalues --   -0.20402  -0.19739  -0.15837  -0.14127  -0.13678
  Beta  occ. eigenvalues --   -0.09938  -0.08802
  Beta virt. eigenvalues --    0.07940   0.08436   0.09638   0.09867   0.10331
  Beta virt. eigenvalues --    0.11527   0.12008   0.13259   0.13445   0.14000
  Beta virt. eigenvalues --    0.14838   0.15775   0.16051   0.16579   0.17302

 Mulliken charges and spin densities:
               1          2
     1  C    0.097524  -0.285399
     2  C    1.413781   0.108161
     3  C   -2.362930  -0.015248
     4  C    0.951893   0.306455
     5  C    0.119743  -0.253803
     6  N   -0.066000   0.055704
     7  S   -0.378627  -0.128885
     8  N    0.237141  -0.397416
     9  N    0.297520   0.329668
    10  N   -0.589604   0.552802
    11  S   -0.436992  -0.006784
    12  H   -0.025669   0.157846
    13  H   -0.096729   0.253352
    14  H   -0.125970   0.207239
    15  H   -0.035080   0.116306
 Sum of Mulliken charges =  -1.00000   1.00000

 Dipole moment (field-independent basis, Debye):
    X=              1.9449    Y=             -1.5134    Z=             -0.3226  Tot=              2.4854
 Quadrupole moment (field-independent basis, Debye-Ang):
   XX=           -105.6976   YY=           -113.9844   ZZ=            -88.7919
   XY=             10.6153   XZ=              0.8922   YZ=             -0.0041

 Summary of Natural Population Analysis:

                                       Natural Population
                Natural  -----------------------------------------------
    Atom  No    Charge         Core      Valence    Rydberg      Total
 -----------------------------------------------------------------------
      C    1    0.02146      0.99951     1.96362    0.01541     2.97854
      C    2   -0.10964      0.99936     2.10086    0.00941     3.10964
      C    3    0.09106      0.99931     1.89657    0.01306     2.90894
      C    4   -0.09575      0.99936     2.08762    0.00878     3.09575
      C    5    0.00445      0.99952     1.98057    0.01546     2.99555
      N    6   -0.22967      0.99970     2.71658    0.01339     3.72967
      S    7    0.02642      4.99959     2.95689    0.01711     7.97358
      N    8   -0.22081      0.99964     2.70694    0.01423     3.72081
      N    9    0.15283      0.99970     2.33177    0.01569     3.34717
      N   10    0.05257      0.99981     2.43496    0.01266     3.44743
      S   11    0.03117      4.99957     2.95148    0.01778     7.96883
      H   12    0.08411      0.00000     0.41425    0.00164     0.41589
      H   13    0.08565      0.00000     0.41248    0.00187     0.41435
      H   14    0.05698      0.00000     0.43909    0.00392     0.44302
      H   15    0.04918      0.00000     0.44727    0.00356     0.45082
 =======================================================================
   * Total *    0.00000     18.99509    27.84094    0.16397    47.00000

 Normal termination of Gaussian 16 at Tue Dec  8 19:33:48 2020.
