 Gaussian 16, Revision A.03,

 -----------------------------------------------------------
 # opt freq B3LYP/6-31G(d) empiricaldispersion=gd3bj scf=xqc
 -----------------------------------------------------------

 -------------------------------
 CID_114940817_JID_2600_neutraal
 -------------------------------
 Symbolic Z-matrix:
 Charge =  0 Multiplicity = 1

 SCF Done:  E(RB3LYP) =  -524.927735206     A.U. after   12 cycles
 SCF Done:  E(RB3LYP) =  -524.930605265     A.U. after   11 cycles
 SCF Done:  E(RB3LYP) =  -524.931215640     A.U. after   10 cycles
 SCF Done:  E(RB3LYP) =  -524.931844023     A.U. after   11 cycles
 SCF Done:  E(RB3LYP) =  -524.932158656     A.U. after   11 cycles
 SCF Done:  E(RB3LYP) =  -524.932211640     A.U. after   11 cycles
 SCF Done:  E(RB3LYP) =  -524.932481619     A.U. after   10 cycles
 SCF Done:  E(RB3LYP) =  -524.932699315     A.U. after   10 cycles
 SCF Done:  E(RB3LYP) =  -524.932798703     A.U. after   10 cycles
 SCF Done:  E(RB3LYP) =  -524.932834033     A.U. after   10 cycles
 SCF Done:  E(RB3LYP) =  -524.932844857     A.U. after    9 cycles
 SCF Done:  E(RB3LYP) =  -524.932845512     A.U. after    7 cycles
 SCF Done:  E(RB3LYP) =  -524.932848021     A.U. after    9 cycles
 SCF Done:  E(RB3LYP) =  -524.932848331     A.U. after    7 cycles
 SCF Done:  E(RB3LYP) =  -524.932848447     A.U. after    7 cycles
 SCF Done:  E(RB3LYP) =  -524.932848434     A.U. after    6 cycles
 Optimization completed.
    -- Stationary point found.
 Normal termination of Gaussian 16 at Wed Dec  9 17:45:20 2020.

 --------------------------------------------------------------------
 #N Geom=AllCheck Guess=TCheck SCRF=Check GenChk RB3LYP/6-31G(d) Freq
 --------------------------------------------------------------------

 Structure from the checkpoint file:  "JID_2600.chk"
 -------------------------------
 CID_114940817_JID_2600_neutraal
 -------------------------------
 Charge =  0 Multiplicity = 1

 SCF Done:  E(RB3LYP) =  -524.932848434     A.U. after    1 cycles

  Exact polarizability: 137.459   0.928 112.120   0.345   0.753 105.235
 Approx polarizability: 161.133   0.138 156.567   0.618   1.945 153.428

                      1                      2                      3
                      A                      A                      A
 Frequencies --     21.3818                42.8540                61.2685
 Red. masses --      3.4882                 2.7187                 2.8839
 Frc consts  --      0.0009                 0.0029                 0.0064
 IR Inten    --      0.2497                 0.0842                 0.8432

                      4                      5                      6
                      A                      A                      A
 Frequencies --     78.0903                95.9073               111.7449
 Red. masses --      2.2227                 3.0588                 3.0628
 Frc consts  --      0.0080                 0.0166                 0.0225
 IR Inten    --      0.3770                 0.3646                 0.4208

                      7                      8                      9
                      A                      A                      A
 Frequencies --    197.4445               214.5329               221.5616
 Red. masses --      2.5245                 1.2862                 1.1147
 Frc consts  --      0.0580                 0.0349                 0.0322
 IR Inten    --      0.6558                 0.4647                 0.2658

                     10                     11                     12
                      A                      A                      A
 Frequencies --    231.3782               239.9434               277.7352
 Red. masses --      1.1265                 1.1144                 2.0448
 Frc consts  --      0.0355                 0.0378                 0.0929
 IR Inten    --      0.1626                 0.4252                 1.9800

                     13                     14                     15
                      A                      A                      A
 Frequencies --    281.9874               298.4618               308.0855
 Red. masses --      1.8828                 1.8403                 1.2144
 Frc consts  --      0.0882                 0.0966                 0.0679
 IR Inten    --      1.1215                 0.8024                 0.3287

                     16                     17                     18
                      A                      A                      A
 Frequencies --    332.4906               362.1354               372.4085
 Red. masses --      2.4394                 2.3214                 2.3299
 Frc consts  --      0.1589                 0.1794                 0.1904
 IR Inten    --      1.9144                 1.2356                 1.3220

                     19                     20                     21
                      A                      A                      A
 Frequencies --    392.1313               427.8260               440.9737
 Red. masses --      2.2548                 1.7900                 2.4747
 Frc consts  --      0.2043                 0.1930                 0.2835
 IR Inten    --      1.5826                 1.3192                 0.5642

                     22                     23                     24
                      A                      A                      A
 Frequencies --    488.8563               511.2679               601.0702
 Red. masses --      3.3043                 3.1597                 2.7419
 Frc consts  --      0.4653                 0.4866                 0.5837
 IR Inten    --     10.7583                 2.5001                 0.8135

                     25                     26                     27
                      A                      A                      A
 Frequencies --    737.5364               748.5694               810.8940
 Red. masses --      2.0682                 1.7908                 1.2202
 Frc consts  --      0.6628                 0.5912                 0.4727
 IR Inten    --     23.2653                66.6928                 1.4132

                     28                     29                     30
                      A                      A                      A
 Frequencies --    832.7512               864.9420               890.7753
 Red. masses --      2.1066                 1.8964                 1.9132
 Frc consts  --      0.8607                 0.8359                 0.8944
 IR Inten    --     24.5083                10.7122                 2.0141

                     31                     32                     33
                      A                      A                      A
 Frequencies --    915.5640               931.9846               939.7348
 Red. masses --      1.6661                 1.5122                 1.2778
 Frc consts  --      0.8229                 0.7739                 0.6648
 IR Inten    --     11.3222                 0.5179                 0.9517

                     34                     35                     36
                      A                      A                      A
 Frequencies --    950.0380               959.3743               977.5997
 Red. masses --      1.8507                 2.1575                 1.4205
 Frc consts  --      0.9842                 1.1700                 0.7998
 IR Inten    --      0.5293                20.7721                 0.1793

                     37                     38                     39
                      A                      A                      A
 Frequencies --   1014.0669              1020.8612              1067.0981
 Red. masses --      1.3582                 1.9267                 1.6832
 Frc consts  --      0.8229                 1.1830                 1.1292
 IR Inten    --      1.0434                 4.4353                 3.0557

                     40                     41                     42
                      A                      A                      A
 Frequencies --   1098.6022              1138.2565              1145.5584
 Red. masses --      3.1466                 2.4296                 2.2886
 Frc consts  --      2.2376                 1.8546                 1.7695
 IR Inten    --     85.7441                85.6389                24.7591

                     43                     44                     45
                      A                      A                      A
 Frequencies --   1155.8580              1185.9630              1193.1640
 Red. masses --      1.9518                 2.8297                 1.8617
 Frc consts  --      1.5363                 2.3449                 1.5616
 IR Inten    --     23.5876                49.5354                 5.4470

                     46                     47                     48
                      A                      A                      A
 Frequencies --   1206.4077              1224.5652              1235.5967
 Red. masses --      1.8061                 2.3661                 2.2935
 Frc consts  --      1.5487                 2.0905                 2.0630
 IR Inten    --      1.5300                62.5619                11.4531

                     49                     50                     51
                      A                      A                      A
 Frequencies --   1287.2601              1303.6803              1341.5952
 Red. masses --      1.9939                 1.6891                 1.1293
 Frc consts  --      1.9466                 1.6914                 1.1976
 IR Inten    --     54.9986                 7.8166                 2.8555

                     52                     53                     54
                      A                      A                      A
 Frequencies --   1347.6310              1358.3066              1390.9226
 Red. masses --      1.2823                 1.2672                 1.3245
 Frc consts  --      1.3721                 1.3775                 1.5097
 IR Inten    --      2.3921                17.7654                 6.3018

                     55                     56                     57
                      A                      A                      A
 Frequencies --   1407.6845              1413.3389              1417.4183
 Red. masses --      1.3108                 1.3091                 1.2404
 Frc consts  --      1.5304                 1.5407                 1.4683
 IR Inten    --      6.9089                 9.1065                 5.8277

                     58                     59                     60
                      A                      A                      A
 Frequencies --   1424.1630              1430.1788              1439.0205
 Red. masses --      1.3507                 1.3054                 1.2859
 Frc consts  --      1.6141                 1.5732                 1.5689
 IR Inten    --      4.4618                 4.6093                13.7847

                     61                     62                     63
                      A                      A                      A
 Frequencies --   1445.3656              1449.0277              1501.5651
 Red. masses --      1.2633                 1.2448                 1.0800
 Frc consts  --      1.5549                 1.5399                 1.4348
 IR Inten    --     27.3298                 7.3598                 1.2156

                     64                     65                     66
                      A                      A                      A
 Frequencies --   1507.8107              1512.1577              1516.0461
 Red. masses --      1.1343                 1.0594                 1.0571
 Frc consts  --      1.5194                 1.4272                 1.4315
 IR Inten    --      7.1998                 1.4118                 2.6194

                     67                     68                     69
                      A                      A                      A
 Frequencies --   1517.6533              1519.0126              1524.6697
 Red. masses --      1.0565                 1.0476                 1.0562
 Frc consts  --      1.4338                 1.4241                 1.4466
 IR Inten    --      1.0023                 0.9726                 1.6514

                     70                     71                     72
                      A                      A                      A
 Frequencies --   1526.3255              1530.0514              1534.5376
 Red. masses --      1.0642                 1.0902                 1.0562
 Frc consts  --      1.4607                 1.5037                 1.4654
 IR Inten    --      8.2031                11.3059                 4.6678

                     73                     74                     75
                      A                      A                      A
 Frequencies --   1536.9422              1541.4269              1545.6550
 Red. masses --      1.0740                 1.0536                 1.0692
 Frc consts  --      1.4947                 1.4750                 1.5050
 IR Inten    --      3.2400                10.1294                 3.5657

                     76                     77                     78
                      A                      A                      A
 Frequencies --   1550.6773              2956.5809              3019.2466
 Red. masses --      1.0689                 1.0720                 1.0748
 Frc consts  --      1.5144                 5.5213                 5.7724
 IR Inten    --      3.2701                56.1390                 3.7998

                     79                     80                     81
                      A                      A                      A
 Frequencies --   3025.9006              3029.6343              3034.2347
 Red. masses --      1.0662                 1.0566                 1.0363
 Frc consts  --      5.7516                 5.7139                 5.6212
 IR Inten    --     40.1265                43.6427                33.8829

                     82                     83                     84
                      A                      A                      A
 Frequencies --   3039.9263              3050.7844              3052.7181
 Red. masses --      1.0386                 1.0364                 1.0381
 Frc consts  --      5.6550                 5.6832                 5.6997
 IR Inten    --     37.8013                16.5633                28.4872

                     85                     86                     87
                      A                      A                      A
 Frequencies --   3056.6584              3064.7248              3068.1624
 Red. masses --      1.0423                 1.1016                 1.1043
 Frc consts  --      5.7376                 6.0961                 6.1248
 IR Inten    --     12.9277                45.2413                27.3395

                     88                     89                     90
                      A                      A                      A
 Frequencies --   3088.3366              3096.9534              3102.5255
 Red. masses --      1.0887                 1.1006                 1.1004
 Frc consts  --      6.1179                 6.2194                 6.2408
 IR Inten    --     13.7927                18.9008                71.8275

                     91                     92                     93
                      A                      A                      A
 Frequencies --   3108.2946              3111.1033              3114.1618
 Red. masses --      1.1025                 1.1013                 1.0997
 Frc consts  --      6.2758                 6.2806                 6.2838
 IR Inten    --     16.0381                69.8964                11.9374

                     94                     95                     96
                      A                      A                      A
 Frequencies --   3121.8135              3122.6178              3126.7572
 Red. masses --      1.0987                 1.1011                 1.1027
 Frc consts  --      6.3090                 6.3259                 6.3517
 IR Inten    --     31.2178                63.4296                29.6209

                     97                     98                     99
                      A                      A                      A
 Frequencies --   3140.1701              3147.8766              3512.0123
 Red. masses --      1.1035                 1.1015                 1.0735
 Frc consts  --      6.4113                 6.4308                 7.8014
 IR Inten    --     40.2114                16.2397                 0.5066

 - Thermochemistry -
 -------------------
 Temperature   298.150 Kelvin.  Pressure   1.00000 Atm.
 Atom     1 has atomic number  6 and mass  12.00000

 Molecular mass:   173.17796 amu.
 Principal axes and moments of inertia in atomic units:
                           1         2         3
     Eigenvalues --  1088.190414741.731305054.18488
           X            0.99999  -0.00063  -0.00446
           Y            0.00061   0.99998  -0.00554
           Z            0.00446   0.00553   0.99997
 This molecule is an asymmetric top.
 Rotational symmetry number  1.
 Warning -- assumption of classical behavior for rotation
           may cause significant error
 Rotational temperatures (Kelvin)      0.07959     0.01827     0.01714
 Rotational constants (GHZ):           1.65848     0.38061     0.35708
 Zero-point vibrational energy     854544.1 (Joules/Mol)
                                  204.24094 (Kcal/Mol)
 Warning -- explicit consideration of  24 degrees of freedom as
           vibrations may cause significant error
 Vibrational temperatures:     30.76    61.66    88.15   112.35   137.99
          (Kelvin)            160.78   284.08   308.67   318.78   332.90
                              345.23   399.60   405.72   429.42   443.27
                              478.38   521.03   535.81   564.19   615.55
                              634.46   703.36   735.60   864.81  1061.15
                             1077.02  1166.70  1198.14  1244.46  1281.63
                             1317.29  1340.92  1352.07  1366.89  1380.33
                             1406.55  1459.02  1468.79  1535.32  1580.64
                             1637.70  1648.20  1663.02  1706.34  1716.70
                             1735.75  1761.88  1777.75  1852.08  1875.71
                             1930.26  1938.94  1954.30  2001.23  2025.34
                             2033.48  2039.35  2049.05  2057.71  2070.43
                             2079.56  2084.83  2160.42  2169.40  2175.66
                             2181.25  2183.56  2185.52  2193.66  2196.04
                             2201.40  2207.86  2211.32  2217.77  2223.85
                             2231.08  4253.86  4344.02  4353.60  4358.97
                             4365.59  4373.78  4389.40  4392.18  4397.85
                             4409.46  4414.40  4443.43  4455.83  4463.84
                             4472.14  4476.18  4480.58  4491.59  4492.75
                             4498.71  4518.00  4529.09  5053.00

 Zero-point correction=                           0.325479 (Hartree/Particle)
 Thermal correction to Energy=                    0.341183
 Thermal correction to Enthalpy=                  0.342127
 Thermal correction to Gibbs Free Energy=         0.282142
 Sum of electronic and zero-point Energies=           -524.607370
 Sum of electronic and thermal Energies=              -524.591665
 Sum of electronic and thermal Enthalpies=            -524.590721
 Sum of electronic and thermal Free Energies=         -524.650706

                     E (Thermal)             CV                S
                      KCal/Mol        Cal/Mol-Kelvin    Cal/Mol-Kelvin
 Total                  214.096             58.039            126.249
 Electronic               0.000              0.000              0.000
 Translational            0.889              2.981             41.355
 Rotational               0.889              2.981             31.634
 Vibrational            212.318             52.078             53.260
 Vibration     1          0.593              1.985              6.502
 Vibration     2          0.595              1.980              5.123
 Vibration     3          0.597              1.973              4.416
 Vibration     4          0.599              1.964              3.938
 Vibration     5          0.603              1.952              3.536
 Vibration     6          0.607              1.940              3.238
 Vibration     7          0.637              1.843              2.157
 Vibration     8          0.644              1.819              2.005
 Vibration     9          0.648              1.808              1.946
 Vibration    10          0.653              1.793              1.868
 Vibration    11          0.657              1.779              1.803
 Vibration    12          0.679              1.715              1.548
 Vibration    13          0.681              1.707              1.522
 Vibration    14          0.692              1.677              1.426
 Vibration    15          0.698              1.658              1.373
 Vibration    16          0.714              1.611              1.248
 Vibration    17          0.736              1.550              1.113
 Vibration    18          0.744              1.529              1.070
 Vibration    19          0.760              1.487              0.992
 Vibration    20          0.789              1.410              0.866
 Vibration    21          0.801              1.381              0.824
 Vibration    22          0.845              1.275              0.687
 Vibration    23          0.866              1.225              0.631
 Vibration    24          0.959              1.030              0.448

 Optimization completed.
    -- Stationary point found.
 Normal termination of Gaussian 16 at Wed Dec  9 17:54:11 2020.

 ----------------------------------------------------------------------
 # B3LYP/6-311++G(d,p) empiricaldispersion=gd3bj scf=xqc pop=npa geom=c
 heck
 ----------------------------------------------------------------------

 ---------------------------------------
 CID_114940817_JID_2600_Energie_neutraal
 ---------------------------------------
 Structure from the checkpoint file:  "JID_2600.chk"
 Charge =  0 Multiplicity = 1

 SCF Done:  E(RB3LYP) =  -525.088234942     A.U. after   13 cycles
 Normal termination of Gaussian 16 at Wed Dec  9 17:57:44 2020.

 ----------------------------------------------------------------------
 # B3LYP/6-311++G(d,p) empiricaldispersion=gd3bj scf=xqc pop=npa geom=c
 heck
 ----------------------------------------------------------------------

 -------------------------------------
 CID_114940817_JID_2600_Energie_kation
 -------------------------------------
 Structure from the checkpoint file:  "JID_2600.chk"
 Charge =  1 Multiplicity = 2

 SCF Done:  E(UB3LYP) =  -524.797364650     A.U. after   19 cycles
 Normal termination of Gaussian 16 at Wed Dec  9 18:04:21 2020.
 Gaussian 16:  ES64L-G16RevA.03 25-Dec-2016

 ----------------------------------------------------------------------
 # B3LYP/6-311++G(d,p) empiricaldispersion=gd3bj scf=xqc pop=npa geom=c
 heck
 ----------------------------------------------------------------------

 ------------------------------------
 CID_114940817_JID_2600_Energie_anion
 ------------------------------------
 Structure from the checkpoint file:  "JID_2600.chk"
 Charge = -1 Multiplicity = 2

                         Standard orientation:
 ---------------------------------------------------------------------
 Center     Atomic      Atomic             Coordinates (Angstroms)
 Number     Number       Type             X           Y           Z
 ---------------------------------------------------------------------
      1          6           0       -3.585397   -1.782534    0.519015
      2          6           0       -3.353546   -0.666217   -0.494499
      3          8           0       -1.967096   -0.419729   -0.685486
      4          6           0       -1.392283    0.769713   -0.127193
      5          6           0       -1.875337    1.999891   -0.909975
      6          6           0       -1.694632    0.918413    1.369856
      7          6           0        0.121716    0.597485   -0.358718
      8          7           0        0.719230   -0.427749    0.487205
      9          6           0        1.963629   -0.993961   -0.021371
     10          6           0        3.145850   -0.025665   -0.247012
     11          6           0        3.518022    0.717979    1.039937
     12          6           0        4.347664   -0.791976   -0.809785
     13          1           0       -3.018568   -2.672466    0.228122
     14          1           0       -4.649206   -2.046070    0.567752
     15          1           0       -3.256752   -1.485785    1.519527
     16          1           0       -3.757731   -0.962579   -1.471292
     17          1           0       -3.890068    0.243322   -0.193895
     18          1           0       -2.960900    2.118647   -0.830676
     19          1           0       -1.413017    2.917465   -0.529615
     20          1           0       -1.621541    1.894391   -1.970157
     21          1           0       -1.382860    0.018199    1.905243
     22          1           0       -1.157529    1.781446    1.781424
     23          1           0       -2.761359    1.081655    1.553272
     24          1           0        0.248472    0.288498   -1.402103
     25          1           0        0.602112    1.587163   -0.255969
     26          1           0        0.869784   -0.060922    1.423247
     27          1           0        2.281330   -1.776968    0.681958
     28          1           0        1.731652   -1.499958   -0.968082
     29          1           0        2.836821    0.719256   -0.994654
     30          1           0        3.822145    0.011730    1.824062
     31          1           0        4.352789    1.407876    0.872408
     32          1           0        2.677819    1.306617    1.426717
     33          1           0        4.089979   -1.308849   -1.741855
     34          1           0        5.188380   -0.120499   -1.018534
     35          1           0        4.696298   -1.548873   -0.094974
 ---------------------------------------------------------------------

 SCF Done:  E(UB3LYP) =  -525.072733505     A.U. after   27 cycles

 The electronic state is 2-A.
 Alpha  occ. eigenvalues --  -19.01147 -14.18993 -10.12570 -10.11493 -10.08770
 Alpha  occ. eigenvalues --  -10.08488 -10.07139 -10.06286 -10.06196 -10.05700
 Alpha  occ. eigenvalues --  -10.05663 -10.05537  -0.92637  -0.80297  -0.70481
 Alpha  occ. eigenvalues --   -0.68547  -0.64303  -0.59170  -0.59006  -0.58714
 Alpha  occ. eigenvalues --   -0.54492  -0.51952  -0.46467  -0.44808  -0.41213
 Alpha  occ. eigenvalues --   -0.37675  -0.37435  -0.36621  -0.34986  -0.34596
 Alpha  occ. eigenvalues --   -0.32894  -0.31567  -0.31104  -0.30460  -0.29197
 Alpha  occ. eigenvalues --   -0.28958  -0.28512  -0.27889  -0.27698  -0.26958
 Alpha  occ. eigenvalues --   -0.26412  -0.24684  -0.24471  -0.23925  -0.23167
 Alpha  occ. eigenvalues --   -0.22634  -0.19715  -0.15277  -0.11855   0.04464
 Alpha virt. eigenvalues --    0.06166   0.07191   0.07547   0.08514   0.08740
 Alpha virt. eigenvalues --    0.08828   0.09890   0.10067   0.10556   0.10826
 Alpha virt. eigenvalues --    0.11361   0.11578   0.12368   0.12917   0.13196

  Beta  occ. eigenvalues --  -19.01141 -14.18982 -10.12567 -10.11474 -10.08762
  Beta  occ. eigenvalues --  -10.08474 -10.07130 -10.06262 -10.06179 -10.05671
  Beta  occ. eigenvalues --  -10.05623 -10.05503  -0.92628  -0.80277  -0.70457
  Beta  occ. eigenvalues --   -0.68519  -0.64269  -0.59115  -0.58965  -0.58650
  Beta  occ. eigenvalues --   -0.54447  -0.51900  -0.46411  -0.44752  -0.41185
  Beta  occ. eigenvalues --   -0.37640  -0.37407  -0.36581  -0.34943  -0.34572
  Beta  occ. eigenvalues --   -0.32856  -0.31530  -0.31070  -0.30422  -0.29168
  Beta  occ. eigenvalues --   -0.28924  -0.28476  -0.27856  -0.27667  -0.26932
  Beta  occ. eigenvalues --   -0.26386  -0.24656  -0.24438  -0.23895  -0.23138
  Beta  occ. eigenvalues --   -0.22596  -0.19695  -0.15257  -0.11837
  Beta virt. eigenvalues --    0.06513   0.06921   0.07879   0.08012   0.09022
  Beta virt. eigenvalues --    0.09134   0.09154   0.10208   0.10639   0.10837
  Beta virt. eigenvalues --    0.11085   0.11589   0.11857   0.12607   0.13136

 Mulliken charges and spin densities:
               1          2
     1  C    0.147704  -0.639551
     2  C    0.065161  -0.037176
     3  O    0.020626   0.006276
     4  C   -2.365659   2.148812
     5  C    0.747502  -1.150297
     6  C    1.115819  -1.675548
     7  C    0.350220  -1.017117
     8  N   -0.041198   0.117647
     9  C    0.348679  -0.902087
    10  C   -0.855526   1.410326
    11  C    1.015248  -1.640765
    12  C    0.139781  -0.740954
    13  H    0.086953   0.042917
    14  H   -0.175646   0.308847
    15  H   -0.001725   0.128366
    16  H   -0.093271   0.246058
    17  H    0.070707   0.037627
    18  H   -0.264002   0.400242
    19  H   -0.254943   0.408866
    20  H   -0.016883   0.172912
    21  H    0.096923   0.060785
    22  H   -0.206178   0.375273
    23  H   -0.252985   0.417120
    24  H    0.087828   0.099413
    25  H    0.123456   0.036765
    26  H    0.093403   0.129398
    27  H    0.019468   0.142447
    28  H    0.152332  -0.011278
    29  H   -0.050121   0.193189
    30  H   -0.136572   0.277519
    31  H   -0.365879   0.506113
    32  H   -0.304966   0.456828
    33  H   -0.117410   0.244355
    34  H   -0.171770   0.315912
    35  H   -0.007080   0.130758
 Sum of Mulliken charges =  -1.00000   1.00000

 Dipole moment (field-independent basis, Debye):
    X=             -1.1701    Y=             -3.3117    Z=             -1.5723  Tot=              3.8482
 Quadrupole moment (field-independent basis, Debye-Ang):
   XX=           -165.0421   YY=           -122.1637   ZZ=           -114.2034
   XY=             -2.9652   XZ=             -0.0219   YZ=             -4.1644

 Summary of Natural Population Analysis:

                                       Natural Population
                Natural  -----------------------------------------------
    Atom  No    Charge         Core      Valence    Rydberg      Total
 -----------------------------------------------------------------------
      C    1   -0.29581      0.99966     2.29080    0.00534     3.29581
      C    2   -0.01152      0.99958     1.99954    0.01240     3.01152
      O    3   -0.31145      0.99986     3.30093    0.01065     4.31145
      C    4    0.13557      0.99953     1.84846    0.01645     2.86443
      C    5   -0.29878      0.99961     2.29200    0.00716     3.29878
      C    6   -0.30760      0.99961     2.30053    0.00746     3.30760
      C    7   -0.09178      0.99954     2.07923    0.01301     3.09178
      N    8   -0.33674      0.99974     2.82612    0.01088     3.83674
      C    9   -0.07873      0.99960     2.06851    0.01062     3.07873
      C   10   -0.12738      0.99961     2.11796    0.00981     3.12738
      C   11   -0.28864      0.99965     2.28180    0.00719     3.28864
      C   12   -0.28239      0.99965     2.27782    0.00492     3.28239
      H   13    0.09998      0.00000     0.39905    0.00097     0.40002
      H   14    0.09498      0.00000     0.40397    0.00105     0.40502
      H   15    0.09923      0.00000     0.39971    0.00105     0.40077
      H   16    0.08246      0.00000     0.41645    0.00109     0.41754
      H   17    0.08100      0.00000     0.41723    0.00177     0.41900
      H   18    0.10025      0.00000     0.39856    0.00119     0.39975
      H   19    0.10361      0.00000     0.39511    0.00128     0.39639
      H   20    0.10141      0.00000     0.39760    0.00099     0.39859
      H   21    0.10655      0.00000     0.39198    0.00147     0.39345
      H   22    0.10552      0.00000     0.39307    0.00142     0.39448
      H   23    0.10132      0.00000     0.39742    0.00127     0.39868
      H   24    0.09833      0.00000     0.40007    0.00161     0.40167
      H   25    0.08503      0.00000     0.41328    0.00169     0.41497
      H   26    0.17220      0.00000     0.32463    0.00316     0.32780
      H   27    0.09008      0.00000     0.40890    0.00102     0.40992
      H   28    0.09121      0.00000     0.40763    0.00116     0.40879
      H   29    0.09304      0.00000     0.40497    0.00200     0.40696
      H   30    0.09474      0.00000     0.40411    0.00115     0.40526
      H   31    0.10133      0.00000     0.39746    0.00121     0.39867
      H   32    0.10066      0.00000     0.39767    0.00166     0.39934
      H   33    0.09741      0.00000     0.40158    0.00101     0.40259
      H   34    0.10013      0.00000     0.39881    0.00106     0.39987
      H   35    0.09478      0.00000     0.40419    0.00104     0.40522
 =======================================================================
   * Total *   -0.00000     11.99565    36.85715    0.14720    49.00000

 Normal termination of Gaussian 16 at Wed Dec  9 18:16:18 2020.
