 Gaussian 16, Revision A.03,

 -----------------------------------------------------------
 # opt freq B3LYP/6-31G(d) empiricaldispersion=gd3bj scf=xqc
 -----------------------------------------------------------

 -------------------------------
 CID_104489570_JID_6551_neutraal
 -------------------------------
 Symbolic Z-matrix:
 Charge =  0 Multiplicity = 1

 SCF Done:  E(RB3LYP) =  -740.302407383     A.U. after   17 cycles
 SCF Done:  E(RB3LYP) =  -740.308006040     A.U. after   13 cycles
 SCF Done:  E(RB3LYP) =  -740.308476658     A.U. after   12 cycles
 SCF Done:  E(RB3LYP) =  -740.308744603     A.U. after   11 cycles
 SCF Done:  E(RB3LYP) =  -740.308760470     A.U. after   11 cycles
 SCF Done:  E(RB3LYP) =  -740.308826321     A.U. after   10 cycles
 SCF Done:  E(RB3LYP) =  -740.308830432     A.U. after   10 cycles
 SCF Done:  E(RB3LYP) =  -740.308835406     A.U. after    9 cycles
 SCF Done:  E(RB3LYP) =  -740.308837608     A.U. after    9 cycles
 SCF Done:  E(RB3LYP) =  -740.308839935     A.U. after    9 cycles
 SCF Done:  E(RB3LYP) =  -740.308848823     A.U. after   10 cycles
 SCF Done:  E(RB3LYP) =  -740.308850551     A.U. after   10 cycles
 SCF Done:  E(RB3LYP) =  -740.308851128     A.U. after    7 cycles
 SCF Done:  E(RB3LYP) =  -740.308852207     A.U. after    9 cycles
 SCF Done:  E(RB3LYP) =  -740.308852434     A.U. after    7 cycles
 Optimization completed.
    -- Stationary point found.
 Normal termination of Gaussian 16 at Thu Dec 10 23:38:41 2020.

 --------------------------------------------------------------------
 #N Geom=AllCheck Guess=TCheck SCRF=Check GenChk RB3LYP/6-31G(d) Freq
 --------------------------------------------------------------------

 Structure from the checkpoint file:  "JID_6551.chk"
 -------------------------------
 CID_104489570_JID_6551_neutraal
 -------------------------------
 Charge =  0 Multiplicity = 1

 SCF Done:  E(RB3LYP) =  -740.308852433     A.U. after    1 cycles

  Exact polarizability: 172.340   0.030 127.090   7.053  -0.314 100.634
 Approx polarizability: 220.515   6.379 222.382  13.940  -1.534 151.196

                      1                      2                      3
                      A                      A                      A
 Frequencies --     17.2175                35.8718                47.5039
 Red. masses --      6.2720                 4.9933                 2.9311
 Frc consts  --      0.0011                 0.0038                 0.0039
 IR Inten    --      2.2422                 0.5535                 1.1242

                      4                      5                      6
                      A                      A                      A
 Frequencies --     70.9000               138.2763               160.2706
 Red. masses --      5.3324                 5.0441                 4.5377
 Frc consts  --      0.0158                 0.0568                 0.0687
 IR Inten    --      4.8558                 2.7350                 0.9798

                      7                      8                      9
                      A                      A                      A
 Frequencies --    196.4169               220.7243               231.3454
 Red. masses --      1.8352                 1.3307                 2.7965
 Frc consts  --      0.0417                 0.0382                 0.0882
 IR Inten    --      1.5262                 0.2508                 5.9659

                     10                     11                     12
                      A                      A                      A
 Frequencies --    247.6260               261.5529               279.3486
 Red. masses --      1.7021                 3.6853                 2.3045
 Frc consts  --      0.0615                 0.1485                 0.1060
 IR Inten    --      1.9831                 0.6743                 3.4708

                     13                     14                     15
                      A                      A                      A
 Frequencies --    281.5758               302.3495               313.8593
 Red. masses --      1.5151                 2.0023                 1.7240
 Frc consts  --      0.0708                 0.1078                 0.1001
 IR Inten    --      0.3135                 2.0979                 0.2781

                     16                     17                     18
                      A                      A                      A
 Frequencies --    357.2590               393.7077               405.1864
 Red. masses --      2.3025                 2.5698                 2.7141
 Frc consts  --      0.1731                 0.2347                 0.2625
 IR Inten    --      0.2217                 0.2160                 0.2350

                     19                     20                     21
                      A                      A                      A
 Frequencies --    417.4007               466.6012               485.4857
 Red. masses --      5.7851                 2.1929                 2.9892
 Frc consts  --      0.5938                 0.2813                 0.4151
 IR Inten    --      4.3937                 0.3907                 3.0834

                     22                     23                     24
                      A                      A                      A
 Frequencies --    594.2006               603.7425               674.1969
 Red. masses --      7.4176                 2.0182                 2.9184
 Frc consts  --      1.5430                 0.4334                 0.7816
 IR Inten    --      3.9005                40.0867                 8.2204

                     25                     26                     27
                      A                      A                      A
 Frequencies --    683.4952               740.2096               744.9190
 Red. masses --      5.5617                 2.4426                 2.6384
 Frc consts  --      1.5308                 0.7885                 0.8626
 IR Inten    --     29.6656                35.4124                 4.2396

                     28                     29                     30
                      A                      A                      A
 Frequencies --    791.6699               803.5152               851.2406
 Red. masses --      5.5717                11.6801                 2.2821
 Frc consts  --      2.0574                 4.4431                 0.9743
 IR Inten    --      6.7183                 0.3097                 0.9464

                     31                     32                     33
                      A                      A                      A
 Frequencies --    867.9169               932.3239               942.4863
 Red. masses --      2.0109                 2.9447                 2.0843
 Frc consts  --      0.8925                 1.5081                 1.0908
 IR Inten    --     19.0223                 5.4053                 6.1018

                     34                     35                     36
                      A                      A                      A
 Frequencies --    948.8766               950.5749               973.5121
 Red. masses --      1.8941                 1.9675                 1.1993
 Frc consts  --      1.0048                 1.0475                 0.6697
 IR Inten    --      3.6968                 1.7013                 0.0452

                     37                     38                     39
                      A                      A                      A
 Frequencies --    994.0176              1010.7952              1041.8716
 Red. masses --      1.9444                 1.6476                 3.2754
 Frc consts  --      1.1320                 0.9918                 2.0948
 IR Inten    --      3.3607                 1.6875                 5.7687

                     40                     41                     42
                      A                      A                      A
 Frequencies --   1050.3653              1060.0386              1066.9785
 Red. masses --      2.7435                 1.4894                 3.6045
 Frc consts  --      1.7833                 0.9861                 2.4177
 IR Inten    --     17.0327                 0.2342                10.1454

                     43                     44                     45
                      A                      A                      A
 Frequencies --   1105.0236              1113.0297              1115.6964
 Red. masses --      2.9351                 2.0284                 2.1447
 Frc consts  --      2.1116                 1.4805                 1.5730
 IR Inten    --      7.9766                 0.8491                 1.3844

                     46                     47                     48
                      A                      A                      A
 Frequencies --   1210.9249              1214.8497              1222.5846
 Red. masses --      2.0030                 1.7740                 1.6978
 Frc consts  --      1.7305                 1.5426                 1.4951
 IR Inten    --     32.1008                 5.7233                 0.0837

                     49                     50                     51
                      A                      A                      A
 Frequencies --   1226.6391              1242.1382              1253.6694
 Red. masses --      3.5956                 1.5502                 1.9254
 Frc consts  --      3.1875                 1.4092                 1.7830
 IR Inten    --     28.7881                 7.1945                44.6718

                     52                     53                     54
                      A                      A                      A
 Frequencies --   1263.7781              1280.8088              1302.4290
 Red. masses --      2.0835                 9.6332                 1.8770
 Frc consts  --      1.9606                 9.3108                 1.8760
 IR Inten    --     11.6064                 3.8889                 2.4827

                     55                     56                     57
                      A                      A                      A
 Frequencies --   1323.6116              1333.9067              1350.7899
 Red. masses --      1.6756                 3.4667                 1.3550
 Frc consts  --      1.7295                 3.6343                 1.4567
 IR Inten    --     10.1992                13.4424                 2.2050

                     58                     59                     60
                      A                      A                      A
 Frequencies --   1378.2200              1388.8862              1396.9178
 Red. masses --      1.9460                 1.5634                 1.5191
 Frc consts  --      2.1779                 1.7769                 1.7466
 IR Inten    --     43.2083                 1.8053                32.7810

                     61                     62                     63
                      A                      A                      A
 Frequencies --   1414.9361              1431.3228              1433.5151
 Red. masses --      2.3239                 1.2369                 1.2489
 Frc consts  --      2.7412                 1.4930                 1.5121
 IR Inten    --    103.8175                 2.6062                 7.8980

                     64                     65                     66
                      A                      A                      A
 Frequencies --   1464.1355              1490.5996              1512.0964
 Red. masses --      1.2291                 2.8637                 1.0544
 Frc consts  --      1.5523                 3.7488                 1.4204
 IR Inten    --     12.2937               127.9154                 0.7464

                     67                     68                     69
                      A                      A                      A
 Frequencies --   1515.7094              1519.7616              1522.4932
 Red. masses --      1.0533                 1.0499                 1.0822
 Frc consts  --      1.4257                 1.4288                 1.4780
 IR Inten    --      3.0664                 1.2508                 3.7963

                     70                     71                     72
                      A                      A                      A
 Frequencies --   1531.4131              1534.5697              1542.1697
 Red. masses --      1.0665                 3.9741                 1.0886
 Frc consts  --      1.4736                 5.5139                 1.5255
 IR Inten    --      4.3571                36.2497                 9.4694

                     73                     74                     75
                      A                      A                      A
 Frequencies --   1547.9519              1552.4433              1556.2343
 Red. masses --      1.0760                 1.0964                 1.0789
 Frc consts  --      1.5190                 1.5569                 1.5395
 IR Inten    --      9.1664                 9.7319                 5.5925

                     76                     77                     78
                      A                      A                      A
 Frequencies --   1746.3212              3042.2834              3043.2214
 Red. masses --     11.9889                 1.0488                 1.0631
 Frc consts  --     21.5416                 5.7191                 5.8007
 IR Inten    --    285.7311                 9.9955                23.3869

                     79                     80                     81
                      A                      A                      A
 Frequencies --   3046.2596              3053.3823              3058.5025
 Red. masses --      1.0372                 1.0456                 1.0694
 Frc consts  --      5.6708                 5.7433                 5.8940
 IR Inten    --     23.8065                27.8889                24.3431

                     82                     83                     84
                      A                      A                      A
 Frequencies --   3075.1787              3088.9686              3105.5353
 Red. masses --      1.0726                 1.0602                 1.1022
 Frc consts  --      5.9761                 5.9602                 6.2628
 IR Inten    --     48.3766                17.6186                 0.1200

                     85                     86                     87
                      A                      A                      A
 Frequencies --   3110.1850              3113.1783              3117.2397
 Red. masses --      1.1017                 1.1011                 1.1011
 Frc consts  --      6.2790                 6.2874                 6.3038
 IR Inten    --     21.2657                45.4264                30.5689

                     88                     89                     90
                      A                      A                      A
 Frequencies --   3121.6003              3124.3384              3127.6945
 Red. masses --      1.1003                 1.1032                 1.1009
 Frc consts  --      6.3168                 6.3446                 6.3454
 IR Inten    --     71.8725                25.3467                12.9065

                     91                     92                     93
                      A                      A                      A
 Frequencies --   3140.6226              3141.2935              3641.4890
 Red. masses --      1.0968                 1.0934                 1.0834
 Frc consts  --      6.3742                 6.3570                 8.4641
 IR Inten    --     40.2702                15.8709               123.7689

 - Thermochemistry -
 -------------------
 Temperature   298.150 Kelvin.  Pressure   1.00000 Atm.
 Atom     1 has atomic number  6 and mass  12.00000

 Molecular mass:   223.14331 amu.
 Principal axes and moments of inertia in atomic units:
                           1         2         3
     Eigenvalues --  1449.899166523.187576989.24310
           X            0.99998   0.00205  -0.00654
           Y           -0.00189   0.99970   0.02442
           Z            0.00659  -0.02440   0.99968
 This molecule is an asymmetric top.
 Rotational symmetry number  1.
 Warning -- assumption of classical behavior for rotation
           may cause significant error
 Rotational temperatures (Kelvin)      0.05974     0.01328     0.01239
 Rotational constants (GHZ):           1.24474     0.27667     0.25822
 Zero-point vibrational energy     740775.4 (Joules/Mol)
                                  177.04957 (Kcal/Mol)
 Warning -- explicit consideration of  23 degrees of freedom as
           vibrations may cause significant error
 Vibrational temperatures:     24.77    51.61    68.35   102.01   198.95
          (Kelvin)            230.59   282.60   317.57   332.85   356.28
                              376.32   401.92   405.12   435.01   451.57
                              514.02   566.46   582.97   600.55   671.34
                              698.51   854.92   868.65   970.02   983.40
                             1065.00  1071.77  1139.04  1156.08  1224.75
                             1248.74  1341.41  1356.03  1365.22  1367.67
                             1400.67  1430.17  1454.31  1499.02  1511.24
                             1525.16  1535.14  1589.88  1601.40  1605.24
                             1742.25  1747.90  1759.03  1764.86  1787.16
                             1803.75  1818.29  1842.80  1873.90  1904.38
                             1919.19  1943.49  1982.95  1998.30  2009.85
                             2035.78  2059.35  2062.51  2106.56  2144.64
                             2175.57  2180.77  2186.60  2190.53  2203.36
                             2207.90  2218.84  2227.16  2233.62  2239.07
                             2512.57  4377.17  4378.52  4382.89  4393.14
                             4400.50  4424.50  4444.34  4468.17  4474.86
                             4479.17  4485.01  4491.29  4495.23  4500.05
                             4518.66  4519.62  5239.29

 Zero-point correction=                           0.282146 (Hartree/Particle)
 Thermal correction to Energy=                    0.297484
 Thermal correction to Enthalpy=                  0.298429
 Thermal correction to Gibbs Free Energy=         0.238189
 Sum of electronic and zero-point Energies=           -740.026706
 Sum of electronic and thermal Energies=              -740.011368
 Sum of electronic and thermal Enthalpies=            -740.010424
 Sum of electronic and thermal Free Energies=         -740.070664

                     E (Thermal)             CV                S
                      KCal/Mol        Cal/Mol-Kelvin    Cal/Mol-Kelvin
 Total                  186.674             58.148            126.786
 Electronic               0.000              0.000              0.000
 Translational            0.889              2.981             42.111
 Rotational               0.889              2.981             32.558
 Vibrational            184.897             52.186             52.117
 Vibration     1          0.593              1.986              6.932
 Vibration     2          0.594              1.982              5.475
 Vibration     3          0.595              1.979              4.919
 Vibration     4          0.598              1.968              4.128
 Vibration     5          0.614              1.915              2.828
 Vibration     6          0.622              1.891              2.547
 Vibration     7          0.636              1.845              2.166
 Vibration     8          0.647              1.810              1.953
 Vibration     9          0.653              1.793              1.868
 Vibration    10          0.661              1.767              1.747
 Vibration    11          0.669              1.743              1.651
 Vibration    12          0.680              1.712              1.538
 Vibration    13          0.681              1.708              1.524
 Vibration    14          0.694              1.669              1.404
 Vibration    15          0.702              1.647              1.342
 Vibration    16          0.732              1.560              1.134
 Vibration    17          0.761              1.484              0.986
 Vibration    18          0.770              1.459              0.944
 Vibration    19          0.780              1.432              0.901
 Vibration    20          0.824              1.324              0.747
 Vibration    21          0.842              1.282              0.695
 Vibration    22          0.952              1.044              0.460
 Vibration    23          0.962              1.024              0.443

 Optimization completed.
    -- Stationary point found.
 Normal termination of Gaussian 16 at Thu Dec 10 23:50:51 2020.

 ----------------------------------------------------------------------
 # B3LYP/6-311++G(d,p) empiricaldispersion=gd3bj scf=xqc pop=npa geom=c
 heck
 ----------------------------------------------------------------------

 ---------------------------------------
 CID_104489570_JID_6551_Energie_neutraal
 ---------------------------------------
 Structure from the checkpoint file:  "JID_6551.chk"
 Charge =  0 Multiplicity = 1

 SCF Done:  E(RB3LYP) =  -740.511971777     A.U. after   16 cycles
 Normal termination of Gaussian 16 at Thu Dec 10 23:57:15 2020.

 ----------------------------------------------------------------------
 # B3LYP/6-311++G(d,p) empiricaldispersion=gd3bj scf=xqc pop=npa geom=c
 heck
 ----------------------------------------------------------------------

 -------------------------------------
 CID_104489570_JID_6551_Energie_kation
 -------------------------------------
 Structure from the checkpoint file:  "JID_6551.chk"
 Charge =  1 Multiplicity = 2

 SCF Done:  E(UB3LYP) =  -740.193468272     A.U. after   30 cycles
 Normal termination of Gaussian 16 at Fri Dec 11 00:14:27 2020.
 Gaussian 16:  ES64L-G16RevA.03 25-Dec-2016

 ----------------------------------------------------------------------
 # B3LYP/6-311++G(d,p) empiricaldispersion=gd3bj scf=xqc pop=npa geom=c
 heck
 ----------------------------------------------------------------------

 ------------------------------------
 CID_104489570_JID_6551_Energie_anion
 ------------------------------------
 Structure from the checkpoint file:  "JID_6551.chk"
 Charge = -1 Multiplicity = 2

                         Standard orientation:
 ---------------------------------------------------------------------
 Center     Atomic      Atomic             Coordinates (Angstroms)
 Number     Number       Type             X           Y           Z
 ---------------------------------------------------------------------
      1          6           0       -3.682069    1.262130    0.780624
      2          6           0       -2.988986   -0.075124    0.452949
      3          6           0       -2.093199   -0.479873    1.636367
      4          6           0       -4.088544   -1.136762    0.264268
      5          6           0       -2.189392    0.082454   -0.875904
      6          6           0       -1.455703   -1.182053   -1.385778
      7          6           0       -0.031910   -1.110553   -0.814417
      8          7           0        0.168933    0.327596   -0.581979
      9          6           0       -1.047320    1.114210   -0.820271
     10          6           0        1.299170    0.995476   -0.236986
     11          8           0        1.341790    2.220009   -0.142803
     12          6           0        2.532752    0.192477    0.049145
     13          7           0        3.719063    0.792892    0.187129
     14          7           0        4.495172   -0.242523    0.454534
     15          7           0        3.877727   -1.422706    0.493915
     16          7           0        2.623231   -1.155642    0.234746
     17          1           0       -4.317579    1.153883    1.666876
     18          1           0       -4.319069    1.590473   -0.049718
     19          1           0       -2.963789    2.061081    0.989896
     20          1           0       -2.681721   -0.514218    2.560439
     21          1           0       -1.656568   -1.473510    1.491368
     22          1           0       -1.274970    0.231385    1.789837
     23          1           0       -4.733824   -0.890754   -0.587939
     24          1           0       -3.674995   -2.136404    0.096295
     25          1           0       -4.721491   -1.192114    1.157262
     26          1           0       -2.918700    0.401092   -1.629897
     27          1           0       -1.411879   -1.149394   -2.479906
     28          1           0       -1.950596   -2.116223   -1.111969
     29          1           0        0.071466   -1.668006    0.119322
     30          1           0        0.716667   -1.505126   -1.506259
     31          1           0       -0.954202    1.661610   -1.767083
     32          1           0       -1.150208    1.863522   -0.034018
     33          1           0        5.489465   -0.148986    0.619514
 ---------------------------------------------------------------------

 SCF Done:  E(UB3LYP) =  -740.508864044     A.U. after   33 cycles
 SCF Done:  E(UB3LYP) =  -740.508864044     a.u. after    1 cycles

 The electronic state is 2-A.
 Alpha  occ. eigenvalues --  -18.95595 -14.29769 -14.25773 -14.22550 -14.22036
 Alpha  occ. eigenvalues --  -14.21572 -10.14591 -10.10370 -10.09145 -10.08861
 Alpha  occ. eigenvalues --  -10.08802 -10.07379 -10.06736 -10.06157 -10.06113
 Alpha  occ. eigenvalues --  -10.05999  -1.02216  -0.91310  -0.82992  -0.82228
 Alpha  occ. eigenvalues --   -0.75709  -0.73131  -0.66825  -0.63067  -0.59153
 Alpha  occ. eigenvalues --   -0.58921  -0.57215  -0.55190  -0.51709  -0.50098
 Alpha  occ. eigenvalues --   -0.45731  -0.43881  -0.43066  -0.39725  -0.38105
 Alpha  occ. eigenvalues --   -0.37619  -0.35173  -0.34324  -0.34142  -0.33082
 Alpha  occ. eigenvalues --   -0.30980  -0.30141  -0.29526  -0.28690  -0.28320
 Alpha  occ. eigenvalues --   -0.27725  -0.27112  -0.26151  -0.25698  -0.25127
 Alpha  occ. eigenvalues --   -0.24732  -0.22438  -0.21745  -0.21091  -0.20627
 Alpha  occ. eigenvalues --   -0.19391  -0.17497  -0.17292  -0.13397  -0.12505
 Alpha  occ. eigenvalues --    0.04530
 Alpha virt. eigenvalues --    0.05990   0.07468   0.07711   0.08337   0.08914
 Alpha virt. eigenvalues --    0.09642   0.10156   0.10307   0.11025   0.11499
 Alpha virt. eigenvalues --    0.11941   0.13408   0.13672   0.14159   0.14513

  Beta  occ. eigenvalues --  -18.95505 -14.29432 -14.25589 -14.22625 -14.22005
  Beta  occ. eigenvalues --  -14.21046 -10.14499 -10.10360 -10.09141 -10.08860
  Beta  occ. eigenvalues --  -10.08802 -10.07363 -10.06721 -10.06141 -10.06088
  Beta  occ. eigenvalues --  -10.05988  -1.01789  -0.91143  -0.82756  -0.81896
  Beta  occ. eigenvalues --   -0.75235  -0.73097  -0.66767  -0.63024  -0.59115
  Beta  occ. eigenvalues --   -0.58885  -0.56873  -0.54977  -0.51596  -0.50049
  Beta  occ. eigenvalues --   -0.45499  -0.43811  -0.42996  -0.39633  -0.37733
  Beta  occ. eigenvalues --   -0.36601  -0.35138  -0.34226  -0.34073  -0.32984
  Beta  occ. eigenvalues --   -0.30909  -0.30044  -0.29476  -0.28594  -0.28235
  Beta  occ. eigenvalues --   -0.27622  -0.27013  -0.26038  -0.25591  -0.24779
  Beta  occ. eigenvalues --   -0.24649  -0.22390  -0.21710  -0.20732  -0.19735
  Beta  occ. eigenvalues --   -0.18860  -0.17342  -0.15895  -0.13276  -0.12191
  Beta virt. eigenvalues --    0.06565   0.07703   0.08023   0.08555   0.09230
  Beta virt. eigenvalues --    0.09731   0.10312   0.10526   0.10640   0.11340
  Beta virt. eigenvalues --    0.11616   0.12034   0.13505   0.13762   0.14214

 Mulliken charges and spin densities:
               1          2
     1  C    0.084341  -0.622375
     2  C   -0.651566   1.051245
     3  C   -0.610545  -0.036613
     4  C    0.560131  -1.079897
     5  C    0.546248  -0.097526
     6  C    0.401868  -1.412511
     7  C   -0.581873   0.327581
     8  N    0.057035   0.007641
     9  C   -0.440384  -0.136858
    10  C   -0.207517   0.084534
    11  O   -0.335805   0.035345
    12  C    0.000456   0.045175
    13  N   -0.125544   0.229246
    14  N   -0.115192   0.123572
    15  N    0.287291   0.080344
    16  N   -0.425865  -0.036685
    17  H   -0.004676   0.139195
    18  H   -0.132338   0.276183
    19  H    0.111213   0.006183
    20  H    0.127499   0.025049
    21  H    0.103579   0.026253
    22  H    0.172287   0.033368
    23  H   -0.268817   0.420048
    24  H   -0.029018   0.146678
    25  H   -0.076019   0.209644
    26  H   -0.278324   0.525652
    27  H   -0.263754   0.443600
    28  H    0.172962  -0.052237
    29  H    0.208833   0.021736
    30  H    0.153474   0.054853
    31  H    0.009165   0.193210
    32  H    0.237610  -0.029373
    33  H    0.313242  -0.002263
 Sum of Mulliken charges =  -1.00000   1.00000

 Dipole moment (field-independent basis, Debye):
    X=              1.5919    Y=             -1.8054    Z=              2.3064  Tot=              3.3336
 Quadrupole moment (field-independent basis, Debye-Ang):
   XX=           -157.6106   YY=           -132.4066   ZZ=           -121.4501
   XY=             -3.7038   XZ=             -6.9879   YZ=              1.4489

 Summary of Natural Population Analysis:

                                       Natural Population
                Natural  -----------------------------------------------
    Atom  No    Charge         Core      Valence    Rydberg      Total
 -----------------------------------------------------------------------
      C    1   -0.28414      0.99962     2.27740    0.00712     3.28414
      C    2   -0.04329      0.99957     2.03279    0.01093     3.04329
      C    3   -0.28867      0.99962     2.28308    0.00597     3.28867
      C    4   -0.28414      0.99962     2.27702    0.00750     3.28414
      C    5   -0.11232      0.99955     2.09875    0.01402     3.11232
      C    6   -0.19500      0.99962     2.18651    0.00887     3.19500
      C    7   -0.08293      0.99963     2.07247    0.01083     3.08293
      N    8   -0.24744      0.99964     2.73920    0.00860     3.74744
      C    9   -0.08394      0.99961     2.07209    0.01225     3.08394
      C   10    0.33136      0.99959     1.64676    0.02229     2.66864
      O   11   -0.31457      0.99988     3.30959    0.00510     4.31457
      C   12    0.09951      0.99964     1.88132    0.01953     2.90049
      N   13   -0.05529      0.99971     2.54339    0.01220     3.55529
      N   14   -0.04106      0.99975     2.52523    0.01609     3.54106
      N   15   -0.03138      0.99980     2.51327    0.01831     3.53138
      N   16   -0.16931      0.99973     2.65608    0.01350     3.66931
      H   17    0.09715      0.00000     0.40212    0.00073     0.40285
      H   18    0.10078      0.00000     0.39832    0.00090     0.39922
      H   19    0.09997      0.00000     0.39918    0.00085     0.40003
      H   20    0.09710      0.00000     0.40217    0.00074     0.40290
      H   21    0.09929      0.00000     0.39984    0.00087     0.40071
      H   22    0.10516      0.00000     0.39389    0.00095     0.39484
      H   23    0.10189      0.00000     0.39694    0.00117     0.39811
      H   24    0.09798      0.00000     0.40112    0.00090     0.40202
      H   25    0.09776      0.00000     0.40141    0.00083     0.40224
      H   26    0.10560      0.00000     0.39247    0.00194     0.39440
      H   27    0.10190      0.00000     0.39682    0.00128     0.39810
      H   28    0.10151      0.00000     0.39761    0.00088     0.39849
      H   29    0.09788      0.00000     0.40013    0.00198     0.40212
      H   30    0.10335      0.00000     0.39521    0.00144     0.39665
      H   31    0.09917      0.00000     0.39973    0.00110     0.40083
      H   32    0.10554      0.00000     0.39334    0.00112     0.39446
      H   33    0.19061      0.00000     0.30803    0.00136     0.30939
 =======================================================================
   * Total *    0.00000     15.99459    43.79329    0.21212    60.00000

 Normal termination of Gaussian 16 at Fri Dec 11 00:33:02 2020.
