 Gaussian 16, Revision A.03,

 -----------------------------------------------------------
 # opt freq B3LYP/6-31G(d) empiricaldispersion=gd3bj scf=xqc
 -----------------------------------------------------------

 ------------------------------
 CID_21503436_JID_7377_neutraal
 ------------------------------
 Symbolic Z-matrix:
 Charge =  0 Multiplicity = 1

 SCF Done:  E(RB3LYP) =  -692.015968809     A.U. after   14 cycles
 SCF Done:  E(RB3LYP) =  -692.023576668     A.U. after   12 cycles
 SCF Done:  E(RB3LYP) =  -692.024101194     A.U. after   11 cycles
 SCF Done:  E(RB3LYP) =  -692.024162997     A.U. after   11 cycles
 SCF Done:  E(RB3LYP) =  -692.024174474     A.U. after   10 cycles
 SCF Done:  E(RB3LYP) =  -692.024179086     A.U. after    9 cycles
 SCF Done:  E(RB3LYP) =  -692.024185657     A.U. after    9 cycles
 SCF Done:  E(RB3LYP) =  -692.024194659     A.U. after   10 cycles
 SCF Done:  E(RB3LYP) =  -692.024210241     A.U. after   10 cycles
 SCF Done:  E(RB3LYP) =  -692.024224003     A.U. after   10 cycles
 SCF Done:  E(RB3LYP) =  -692.024697597     A.U. after   11 cycles
 SCF Done:  E(RB3LYP) =  -692.024743939     A.U. after   10 cycles
 SCF Done:  E(RB3LYP) =  -692.024772498     A.U. after   10 cycles
 SCF Done:  E(RB3LYP) =  -692.024775445     A.U. after    9 cycles
 SCF Done:  E(RB3LYP) =  -692.024775760     A.U. after    8 cycles
 SCF Done:  E(RB3LYP) =  -692.024775988     A.U. after    7 cycles
 Optimization completed.
    -- Stationary point found.
 Normal termination of Gaussian 16 at Fri Dec 11 12:21:34 2020.

 --------------------------------------------------------------------
 #N Geom=AllCheck Guess=TCheck SCRF=Check GenChk RB3LYP/6-31G(d) Freq
 --------------------------------------------------------------------

 Structure from the checkpoint file:  "JID_7377.chk"
 ------------------------------
 CID_21503436_JID_7377_neutraal
 ------------------------------
 Charge =  0 Multiplicity = 1

 SCF Done:  E(RB3LYP) =  -692.024775988     A.U. after    1 cycles

  Exact polarizability: 252.071   3.512 170.761 -16.983   1.983  94.998
 Approx polarizability: 361.350   3.701 287.202 -43.026   5.607 152.654

                      1                      2                      3
                      A                      A                      A
 Frequencies --     46.5679                61.6671               102.6252
 Red. masses --      3.5040                 3.1995                 2.1047
 Frc consts  --      0.0045                 0.0072                 0.0131
 IR Inten    --      0.2221                 0.1445                 0.3883

                      4                      5                      6
                      A                      A                      A
 Frequencies --    141.5142               154.0639               165.5386
 Red. masses --      1.7235                 2.0538                 2.5206
 Frc consts  --      0.0203                 0.0287                 0.0407
 IR Inten    --      0.7693                 1.4396                 0.4296

                      7                      8                      9
                      A                      A                      A
 Frequencies --    209.3196               244.7677               250.1782
 Red. masses --      3.8766                 2.9269                 1.3067
 Frc consts  --      0.1001                 0.1033                 0.0482
 IR Inten    --      1.7631                 0.4964                 0.0046

                     10                     11                     12
                      A                      A                      A
 Frequencies --    309.1334               320.1789               337.1325
 Red. masses --      3.1232                 3.1839                 3.7845
 Frc consts  --      0.1759                 0.1923                 0.2534
 IR Inten    --      1.3497                 1.8028                 1.1613

                     13                     14                     15
                      A                      A                      A
 Frequencies --    346.5403               368.9947               393.4070
 Red. masses --      2.3484                 2.0164                 2.4635
 Frc consts  --      0.1662                 0.1618                 0.2246
 IR Inten    --      3.0364                 1.0923                 0.0236

                     16                     17                     18
                      A                      A                      A
 Frequencies --    446.1610               451.8115               470.8231
 Red. masses --      3.4461                 2.9952                 4.1509
 Frc consts  --      0.4042                 0.3602                 0.5421
 IR Inten    --      2.1893                 0.4981                 0.6554

                     19                     20                     21
                      A                      A                      A
 Frequencies --    501.5623               541.2925               551.3378
 Red. masses --      3.5649                 3.9317                 3.7681
 Frc consts  --      0.5284                 0.6787                 0.6748
 IR Inten    --      2.0509                 0.5794                 1.5986

                     22                     23                     24
                      A                      A                      A
 Frequencies --    561.4788               581.4884               615.0709
 Red. masses --      2.7964                 3.4668                 2.9748
 Frc consts  --      0.5194                 0.6906                 0.6631
 IR Inten    --      0.5026                 0.1420                 0.2362

                     25                     26                     27
                      A                      A                      A
 Frequencies --    655.6878               684.8775               749.5052
 Red. masses --      4.9521                 4.8067                 2.9866
 Frc consts  --      1.2544                 1.3284                 0.9885
 IR Inten    --      5.2385                 1.2623                 4.8440

                     28                     29                     30
                      A                      A                      A
 Frequencies --    755.1415               777.5506               809.7365
 Red. masses --      3.9194                 1.3267                 3.2433
 Frc consts  --      1.3168                 0.4726                 1.2529
 IR Inten    --      1.5076                49.8240                 0.7780

                     31                     32                     33
                      A                      A                      A
 Frequencies --    836.9558               864.0703               885.7098
 Red. masses --      3.1744                 3.2446                 1.6845
 Frc consts  --      1.3101                 1.4273                 0.7786
 IR Inten    --      7.7935                 2.6641                 0.7794

                     34                     35                     36
                      A                      A                      A
 Frequencies --    927.5546               946.5231               959.6967
 Red. masses --      2.9168                 2.4896                 1.3280
 Frc consts  --      1.4786                 1.3141                 0.7206
 IR Inten    --      2.3185                 0.7909                 1.0267

                     37                     38                     39
                      A                      A                      A
 Frequencies --    978.6506               993.9772              1002.9439
 Red. masses --      2.1290                 1.2707                 2.1936
 Frc consts  --      1.2014                 0.7397                 1.3001
 IR Inten    --     35.5575                 0.1225                 5.0099

                     40                     41                     42
                      A                      A                      A
 Frequencies --   1037.7542              1056.0866              1064.2818
 Red. masses --      2.5810                 2.4182                 1.6862
 Frc consts  --      1.6377                 1.5891                 1.1253
 IR Inten    --      4.6785                 3.1180                 2.2564

                     43                     44                     45
                      A                      A                      A
 Frequencies --   1072.4937              1080.0865              1094.4952
 Red. masses --      2.1796                 2.0577                 1.8406
 Frc consts  --      1.4771                 1.4144                 1.2991
 IR Inten    --      4.5084                 5.8230                 0.8166

                     46                     47                     48
                      A                      A                      A
 Frequencies --   1103.9368              1136.3049              1160.2407
 Red. masses --      2.1187                 2.4094                 1.3939
 Frc consts  --      1.5213                 1.8330                 1.1055
 IR Inten    --     10.2231                 0.3246                19.9884

                     49                     50                     51
                      A                      A                      A
 Frequencies --   1168.8829              1179.4008              1207.9038
 Red. masses --      1.8189                 1.7158                 1.4462
 Frc consts  --      1.4642                 1.4062                 1.2432
 IR Inten    --      7.4525                21.1479                 2.5438

                     52                     53                     54
                      A                      A                      A
 Frequencies --   1223.7380              1234.2314              1250.3341
 Red. masses --      1.2248                 1.3788                 1.5466
 Frc consts  --      1.0807                 1.2375                 1.4246
 IR Inten    --      2.4194                16.6503                 3.5866

                     55                     56                     57
                      A                      A                      A
 Frequencies --   1273.5129              1308.0521              1336.0544
 Red. masses --      2.4042                 1.8662                 1.8808
 Frc consts  --      2.2974                 1.8813                 1.9781
 IR Inten    --      3.4307                 1.1140                28.6320

                     58                     59                     60
                      A                      A                      A
 Frequencies --   1347.9173              1366.3755              1376.5935
 Red. masses --      1.4854                 2.1615                 1.4388
 Frc consts  --      1.5900                 2.3776                 1.6064
 IR Inten    --      5.5825                 4.9664                12.4631

                     61                     62                     63
                      A                      A                      A
 Frequencies --   1383.5797              1396.0221              1408.4792
 Red. masses --      2.2355                 2.5680                 1.3790
 Frc consts  --      2.5214                 2.9487                 1.6118
 IR Inten    --      6.4178                10.2830                 1.8311

                     64                     65                     66
                      A                      A                      A
 Frequencies --   1427.7465              1438.0891              1442.7606
 Red. masses --      3.1534                 1.5143                 1.4930
 Frc consts  --      3.7873                 1.8452                 1.8310
 IR Inten    --     35.7015                 4.1959                23.5786

                     67                     68                     69
                      A                      A                      A
 Frequencies --   1454.7537              1487.6079              1494.8325
 Red. masses --      2.7460                 1.2042                 1.1816
 Frc consts  --      3.4239                 1.5701                 1.5556
 IR Inten    --     11.6741                 0.1761                 6.7661

                     70                     71                     72
                      A                      A                      A
 Frequencies --   1509.8371              1512.5466              1516.8558
 Red. masses --      2.1618                 1.1686                 1.0641
 Frc consts  --      2.9035                 1.5752                 1.4425
 IR Inten    --      0.7878                 7.6582                12.5776

                     73                     74                     75
                      A                      A                      A
 Frequencies --   1517.2503              1520.5286              1536.5219
 Red. masses --      1.0660                 1.0528                 1.2324
 Frc consts  --      1.4459                 1.4341                 1.7142
 IR Inten    --     10.4565                 9.1368                10.4049

                     76                     77                     78
                      A                      A                      A
 Frequencies --   1539.0093              1539.7596              1558.6844
 Red. masses --      1.1272                 1.0615                 2.3889
 Frc consts  --      1.5730                 1.4828                 3.4195
 IR Inten    --      9.8169                 3.1503                18.9576

                     79                     80                     81
                      A                      A                      A
 Frequencies --   1621.9718              1646.6967              1674.9443
 Red. masses --      7.5511                 6.7582                 5.6964
 Frc consts  --     11.7044                10.7972                 9.4157
 IR Inten    --     15.7142                33.7560                 2.5948

                     82                     83                     84
                      A                      A                      A
 Frequencies --   2919.3396              2925.5199              2943.1276
 Red. masses --      1.0735                 1.0705                 1.0639
 Frc consts  --      5.3903                 5.3982                 5.4294
 IR Inten    --     28.2182                38.7932               147.0896

                     85                     86                     87
                      A                      A                      A
 Frequencies --   3050.8971              3052.9323              3060.2506
 Red. masses --      1.0666                 1.0441                 1.0707
 Frc consts  --      5.8492                 5.7338                 5.9077
 IR Inten    --      9.0665                18.7800                18.3582

                     88                     89                     90
                      A                      A                      A
 Frequencies --   3069.8978              3074.4118              3079.0592
 Red. masses --      1.0868                 1.0819                 1.0770
 Frc consts  --      6.0348                 6.0252                 6.0157
 IR Inten    --     32.9161                 9.7454               105.9591

                     91                     92                     93
                      A                      A                      A
 Frequencies --   3100.5041              3121.2336              3125.2518
 Red. masses --      1.0999                 1.1038                 1.0964
 Frc consts  --      6.2296                 6.3359                 6.3092
 IR Inten    --     13.5078                28.3119                17.5104

                     94                     95                     96
                      A                      A                      A
 Frequencies --   3135.0168              3178.3138              3186.5976
 Red. masses --      1.0927                 1.0917                 1.0859
 Frc consts  --      6.3273                 6.4973                 6.4969
 IR Inten    --     18.7376                29.6183                 3.4696

                     97                     98                     99
                      A                      A                      A
 Frequencies --   3200.5277              3216.6144              3220.6902
 Red. masses --      1.0899                 1.0925                 1.0956
 Frc consts  --      6.5776                 6.6601                 6.6960
 IR Inten    --     17.3893                22.8582                19.2739

 - Thermochemistry -
 -------------------
 Temperature   298.150 Kelvin.  Pressure   1.00000 Atm.
 Atom     1 has atomic number  6 and mass  12.00000

 Molecular mass:   226.14700 amu.
 Principal axes and moments of inertia in atomic units:
                           1         2         3
     Eigenvalues --  1659.850086259.266647468.50482
           X            0.99997  -0.00572   0.00434
           Y            0.00573   0.99998  -0.00199
           Z           -0.00433   0.00201   0.99999
 This molecule is an asymmetric top.
 Rotational symmetry number  1.
 Warning -- assumption of classical behavior for rotation
           may cause significant error
 Rotational temperatures (Kelvin)      0.05218     0.01384     0.01160
 Rotational constants (GHZ):           1.08729     0.28833     0.24165
 Zero-point vibrational energy     797721.2 (Joules/Mol)
                                  190.65995 (Kcal/Mol)
 Warning -- explicit consideration of  24 degrees of freedom as
           vibrations may cause significant error
 Vibrational temperatures:     67.00    88.73   147.65   203.61   221.66
          (Kelvin)            238.17   301.16   352.17   359.95   444.77
                              460.67   485.06   498.59   530.90   566.02
                              641.93   650.06   677.41   721.64   778.80
                              793.25   807.84   836.63   884.95   943.39
                              985.39  1078.37  1086.48  1118.72  1165.03
                             1204.19  1243.20  1274.34  1334.54  1361.84
                             1380.79  1408.06  1430.11  1443.01  1493.10
                             1519.47  1531.26  1543.08  1554.00  1574.73
                             1588.32  1634.89  1669.33  1681.76  1696.89
                             1737.90  1760.69  1775.78  1798.95  1832.30
                             1882.00  1922.28  1939.35  1965.91  1980.61
                             1990.66  2008.56  2026.49  2054.21  2069.09
                             2075.81  2093.07  2140.34  2150.73  2172.32
                             2176.22  2182.42  2182.98  2187.70  2210.71
                             2214.29  2215.37  2242.60  2333.66  2369.23
                             2409.87  4200.28  4209.17  4234.50  4389.56
                             4392.49  4403.02  4416.90  4423.39  4430.08
                             4460.93  4490.76  4496.54  4510.59  4572.88
                             4584.80  4604.85  4627.99  4633.85

 Zero-point correction=                           0.303836 (Hartree/Particle)
 Thermal correction to Energy=                    0.318112
 Thermal correction to Enthalpy=                  0.319056
 Thermal correction to Gibbs Free Energy=         0.263127
 Sum of electronic and zero-point Energies=           -691.720940
 Sum of electronic and thermal Energies=              -691.706664
 Sum of electronic and thermal Enthalpies=            -691.705720
 Sum of electronic and thermal Free Energies=         -691.761649

                     E (Thermal)             CV                S
                      KCal/Mol        Cal/Mol-Kelvin    Cal/Mol-Kelvin
 Total                  199.618             58.087            117.714
 Electronic               0.000              0.000              0.000
 Translational            0.889              2.981             42.150
 Rotational               0.889              2.981             32.717
 Vibrational            197.841             52.126             42.846
 Vibration     1          0.595              1.979              4.958
 Vibration     2          0.597              1.973              4.403
 Vibration     3          0.605              1.947              3.404
 Vibration     4          0.615              1.912              2.783
 Vibration     5          0.620              1.898              2.621
 Vibration     6          0.624              1.885              2.486
 Vibration     7          0.642              1.827              2.050
 Vibration     8          0.660              1.771              1.768
 Vibration     9          0.663              1.762              1.729
 Vibration    10          0.698              1.656              1.367
 Vibration    11          0.706              1.635              1.309
 Vibration    12          0.718              1.601              1.226
 Vibration    13          0.725              1.582              1.182
 Vibration    14          0.741              1.536              1.084
 Vibration    15          0.761              1.484              0.987
 Vibration    16          0.805              1.369              0.807
 Vibration    17          0.810              1.357              0.790
 Vibration    18          0.828              1.315              0.735
 Vibration    19          0.857              1.247              0.654
 Vibration    20          0.896              1.159              0.563
 Vibration    21          0.907              1.137              0.541
 Vibration    22          0.917              1.115              0.521
 Vibration    23          0.938              1.071              0.483
 Vibration    24          0.975              1.000              0.424

                           ! Non-Optimized Parameters !
 Normal termination of Gaussian 16 at Fri Dec 11 12:36:22 2020.

 ----------------------------------------------------------------------
 # B3LYP/6-311++G(d,p) empiricaldispersion=gd3bj scf=xqc pop=npa geom=c
 heck
 ----------------------------------------------------------------------

 --------------------------------------
 CID_21503436_JID_7377_Energie_neutraal
 --------------------------------------
 Structure from the checkpoint file:  "JID_7377.chk"
 Charge =  0 Multiplicity = 1

 SCF Done:  E(RB3LYP) =  -692.198437000     A.U. after   15 cycles
 Normal termination of Gaussian 16 at Fri Dec 11 12:44:18 2020.

 ----------------------------------------------------------------------
 # B3LYP/6-311++G(d,p) empiricaldispersion=gd3bj scf=xqc pop=npa geom=c
 heck
 ----------------------------------------------------------------------

 ------------------------------------
 CID_21503436_JID_7377_Energie_kation
 ------------------------------------
 Structure from the checkpoint file:  "JID_7377.chk"
 Charge =  1 Multiplicity = 2

 SCF Done:  E(UB3LYP) =  -691.914650524     A.U. after   30 cycles
 Normal termination of Gaussian 16 at Fri Dec 11 13:07:26 2020.
 Gaussian 16:  ES64L-G16RevA.03 25-Dec-2016

 ----------------------------------------------------------------------
 # B3LYP/6-311++G(d,p) empiricaldispersion=gd3bj scf=xqc pop=npa geom=c
 heck
 ----------------------------------------------------------------------

 -----------------------------------
 CID_21503436_JID_7377_Energie_anion
 -----------------------------------
 Structure from the checkpoint file:  "JID_7377.chk"
 Charge = -1 Multiplicity = 2

                         Standard orientation:
 ---------------------------------------------------------------------
 Center     Atomic      Atomic             Coordinates (Angstroms)
 Number     Number       Type             X           Y           Z
 ---------------------------------------------------------------------
      1          6           0       -0.903922    2.774253   -0.093912
      2          6           0       -0.780541    1.273768   -0.208637
      3          6           0        0.402909    0.616443   -0.508208
      4          6           0        1.716205    1.316638   -0.770821
      5          6           0        2.802105    1.069955    0.295077
      6          7           0        3.557630   -0.163396    0.097066
      7          6           0        2.766672   -1.382341    0.252949
      8          6           0        1.680012   -1.573111   -0.819012
      9          6           0        0.398802   -0.817922   -0.556327
     10          7           0       -0.670869   -1.558794   -0.353852
     11          6           0       -1.850623   -0.931426   -0.081474
     12          6           0       -2.997764   -1.738569    0.123137
     13          6           0       -4.216688   -1.165162    0.406508
     14          6           0       -4.331988    0.240657    0.496807
     15          6           0       -3.230667    1.046920    0.303410
     16          6           0       -1.959728    0.487298    0.008038
     17          6           0        4.720013   -0.194518    0.974277
     18          1           0       -1.592477    3.169353   -0.850714
     19          1           0        0.046506    3.293124   -0.209413
     20          1           0       -1.311276    3.052440    0.884901
     21          1           0        1.564109    2.393970   -0.847301
     22          1           0        2.125144    1.000336   -1.738337
     23          1           0        2.341241    1.117535    1.302529
     24          1           0        3.524554    1.892311    0.238790
     25          1           0        3.465584   -2.222545    0.174600
     26          1           0        2.302151   -1.447107    1.257468
     27          1           0        1.409880   -2.631298   -0.859351
     28          1           0        2.109093   -1.300146   -1.791834
     29          1           0       -2.870861   -2.813647    0.046650
     30          1           0       -5.092299   -1.789134    0.561621
     31          1           0       -5.296257    0.688507    0.720036
     32          1           0       -3.340912    2.123424    0.374705
     33          1           0        4.457224   -0.211038    2.050320
     34          1           0        5.319223   -1.085636    0.759673
     35          1           0        5.343261    0.687585    0.792292
 ---------------------------------------------------------------------

 SCF Done:  E(UB3LYP) =  -692.201231146     A.U. after   29 cycles

 The electronic state is 2-A.
 Alpha  occ. eigenvalues --  -14.19981 -14.14243 -10.08760 -10.08370 -10.08156
 Alpha  occ. eigenvalues --  -10.05952 -10.05816 -10.05360 -10.04759 -10.04393
 Alpha  occ. eigenvalues --  -10.04003 -10.03734 -10.03676 -10.03435 -10.03354
 Alpha  occ. eigenvalues --  -10.02746 -10.02079  -0.82136  -0.79504  -0.70840
 Alpha  occ. eigenvalues --   -0.69138  -0.65443  -0.64796  -0.60177  -0.59726
 Alpha  occ. eigenvalues --   -0.57883  -0.54785  -0.53356  -0.48675  -0.46376
 Alpha  occ. eigenvalues --   -0.45324  -0.43889  -0.39822  -0.37168  -0.36927
 Alpha  occ. eigenvalues --   -0.36147  -0.35492  -0.33973  -0.32400  -0.30880
 Alpha  occ. eigenvalues --   -0.30505  -0.30089  -0.29657  -0.29273  -0.28098
 Alpha  occ. eigenvalues --   -0.26988  -0.26057  -0.25542  -0.25036  -0.24205
 Alpha  occ. eigenvalues --   -0.23846  -0.23489  -0.22632  -0.21365  -0.19650
 Alpha  occ. eigenvalues --   -0.19479  -0.15280  -0.11551  -0.10949  -0.10634
 Alpha  occ. eigenvalues --   -0.09570   0.04409
 Alpha virt. eigenvalues --    0.06697   0.07932   0.08558   0.09173   0.09440
 Alpha virt. eigenvalues --    0.10129   0.11050   0.11129   0.11362   0.11621
 Alpha virt. eigenvalues --    0.11966   0.12624   0.13039   0.13414   0.13890

  Beta  occ. eigenvalues --  -14.19979 -14.13924 -10.08738 -10.08353 -10.08136
  Beta  occ. eigenvalues --  -10.06010 -10.05699 -10.05363 -10.04785 -10.04404
  Beta  occ. eigenvalues --  -10.04073 -10.03669 -10.03392 -10.03355 -10.03287
  Beta  occ. eigenvalues --  -10.02550 -10.01862  -0.82117  -0.79082  -0.70541
  Beta  occ. eigenvalues --   -0.68807  -0.65288  -0.64620  -0.59878  -0.59568
  Beta  occ. eigenvalues --   -0.57756  -0.54671  -0.53232  -0.48339  -0.46289
  Beta  occ. eigenvalues --   -0.45151  -0.43605  -0.39707  -0.37040  -0.36703
  Beta  occ. eigenvalues --   -0.36105  -0.35423  -0.33863  -0.32274  -0.30790
  Beta  occ. eigenvalues --   -0.30217  -0.29923  -0.29550  -0.29185  -0.27934
  Beta  occ. eigenvalues --   -0.26758  -0.25987  -0.25413  -0.24732  -0.24127
  Beta  occ. eigenvalues --   -0.23702  -0.23365  -0.22547  -0.21236  -0.19500
  Beta  occ. eigenvalues --   -0.18491  -0.14122  -0.11521  -0.10617  -0.10011
  Beta  occ. eigenvalues --   -0.08022
  Beta virt. eigenvalues --    0.06788   0.07996   0.08627   0.09011   0.09402
  Beta virt. eigenvalues --    0.09567   0.10118   0.11050   0.11104   0.11405
  Beta virt. eigenvalues --    0.11693   0.12010   0.12561   0.13038   0.13434

 Mulliken charges and spin densities:
               1          2
     1  C   -0.464561  -0.011298
     2  C    0.543540   0.085546
     3  C    0.459790   0.167351
     4  C   -0.464638  -0.057449
     5  C   -0.438014  -0.374303
     6  N    0.103372   0.101448
     7  C   -0.264619  -0.113822
     8  C   -0.579690  -0.012601
     9  C   -0.242641   0.139513
    10  N    0.148915   0.151332
    11  C   -0.291069  -0.045935
    12  C   -0.397917   0.155476
    13  C   -0.260887   0.041550
    14  C   -0.480315   0.052619
    15  C   -0.267843   0.109764
    16  C    0.504845  -0.018281
    17  C    0.172591  -0.426289
    18  H    0.145153   0.007109
    19  H    0.023804   0.040113
    20  H    0.075694   0.078171
    21  H    0.092524   0.041428
    22  H    0.149607   0.023980
    23  H    0.141110  -0.025822
    24  H   -0.065225   0.213152
    25  H    0.042788   0.107547
    26  H    0.115843   0.000079
    27  H    0.163319   0.012884
    28  H    0.092028   0.044561
    29  H    0.128098  -0.012607
    30  H    0.107565  -0.003470
    31  H    0.107345  -0.003266
    32  H    0.105418  -0.014420
    33  H    0.003956   0.095114
    34  H   -0.075047   0.197926
    35  H   -0.134840   0.252900
 Sum of Mulliken charges =  -1.00000   1.00000

 Dipole moment (field-independent basis, Debye):
    X=              1.2578    Y=              1.6945    Z=              0.0699  Tot=              2.1114
 Quadrupole moment (field-independent basis, Debye-Ang):
   XX=           -164.0344   YY=           -123.8236   ZZ=           -118.7534
   XY=             -3.9221   XZ=              0.3263   YZ=             -1.4163

 Summary of Natural Population Analysis:

                                       Natural Population
                Natural  -----------------------------------------------
    Atom  No    Charge         Core      Valence    Rydberg      Total
 -----------------------------------------------------------------------
      C    1   -0.29850      0.99965     2.29406    0.00479     3.29850
      C    2    0.04743      0.99950     1.93911    0.01396     2.95257
      C    3   -0.03708      0.99942     2.02875    0.00891     3.03708
      C    4   -0.20501      0.99960     2.19506    0.01034     3.20501
      C    5   -0.07954      0.99961     2.06742    0.01252     3.07954
      N    6   -0.28132      0.99971     2.76880    0.01281     3.78132
      C    7   -0.07958      0.99961     2.06805    0.01192     3.07958
      C    8   -0.21374      0.99959     2.20296    0.01118     3.21374
      C    9    0.13720      0.99951     1.84908    0.01421     2.86280
      N   10   -0.20818      0.99965     2.69745    0.01108     3.70818
      C   11    0.05605      0.99954     1.92663    0.01778     2.94395
      C   12   -0.06001      0.99953     2.05093    0.00954     3.06001
      C   13   -0.10692      0.99957     2.09732    0.01003     3.10692
      C   14   -0.10080      0.99958     2.09152    0.00970     3.10080
      C   15   -0.08560      0.99960     2.07174    0.01426     3.08560
      C   16    0.00649      0.99946     1.98375    0.01029     2.99351
      C   17   -0.17223      0.99965     2.16583    0.00674     3.17223
      H   18    0.10260      0.00000     0.39644    0.00097     0.39740
      H   19    0.09618      0.00000     0.40290    0.00092     0.40382
      H   20    0.10325      0.00000     0.39498    0.00177     0.39675
      H   21    0.09941      0.00000     0.39960    0.00099     0.40059
      H   22    0.10322      0.00000     0.39508    0.00170     0.39678
      H   23    0.08017      0.00000     0.41829    0.00153     0.41983
      H   24    0.09134      0.00000     0.40715    0.00151     0.40866
      H   25    0.09131      0.00000     0.40735    0.00134     0.40869
      H   26    0.08101      0.00000     0.41739    0.00159     0.41899
      H   27    0.10893      0.00000     0.38940    0.00168     0.39107
      H   28    0.10030      0.00000     0.39806    0.00164     0.39970
      H   29    0.09478      0.00000     0.40373    0.00149     0.40522
      H   30    0.08909      0.00000     0.40984    0.00107     0.41091
      H   31    0.08944      0.00000     0.40990    0.00066     0.41056
      H   32    0.09112      0.00000     0.40735    0.00153     0.40888
      H   33    0.07704      0.00000     0.42103    0.00193     0.42296
      H   34    0.09246      0.00000     0.40618    0.00135     0.40754
      H   35    0.09303      0.00000     0.40557    0.00140     0.40697
 =======================================================================
   * Total *    0.00336     16.99279    43.78870    0.21515    60.99664

 Normal termination of Gaussian 16 at Fri Dec 11 13:28:00 2020.
