 Gaussian 16, Revision A.03,

 -----------------------------------------------------------
 # opt freq B3LYP/6-31G(d) empiricaldispersion=gd3bj scf=xqc
 -----------------------------------------------------------

 -------------------------------
 CID_116712089_JID_2030_neutraal
 -------------------------------
 Symbolic Z-matrix:
 Charge =  0 Multiplicity = 1

 SCF Done:  E(RB3LYP) =  -580.665871599     A.U. after   13 cycles
 SCF Done:  E(RB3LYP) =  -580.669553861     A.U. after   11 cycles
 SCF Done:  E(RB3LYP) =  -580.669714210     A.U. after   10 cycles
 SCF Done:  E(RB3LYP) =  -580.670198007     A.U. after   11 cycles
 SCF Done:  E(RB3LYP) =  -580.670452997     A.U. after   10 cycles
 SCF Done:  E(RB3LYP) =  -580.670607218     A.U. after   10 cycles
 SCF Done:  E(RB3LYP) =  -580.670799771     A.U. after    9 cycles
 SCF Done:  E(RB3LYP) =  -580.671125405     A.U. after   11 cycles
 SCF Done:  E(RB3LYP) =  -580.671372263     A.U. after   10 cycles
 SCF Done:  E(RB3LYP) =  -580.671101440     A.U. after   10 cycles
 SCF Done:  E(RB3LYP) =  -580.672314268     A.U. after    9 cycles
 SCF Done:  E(RB3LYP) =  -580.672315793     A.U. after    8 cycles
 SCF Done:  E(RB3LYP) =  -580.672316603     A.U. after    7 cycles
 SCF Done:  E(RB3LYP) =  -580.672316875     A.U. after    7 cycles
 SCF Done:  E(RB3LYP) =  -580.672317003     A.U. after    7 cycles
 SCF Done:  E(RB3LYP) =  -580.672317039     A.U. after    6 cycles
 Optimization completed.
    -- Stationary point found.

 1\1\GINC-NODE357\FOpt\RB3LYP\6-31G(d)\C9H20O3\VSC10255\09-Dec-2020\0\\
 # opt freq B3LYP/6-31G(d) empiricaldispersion=gd3bj scf=xqc\\CID_11671
 2089_JID_2030_neutraal\\0,1\C,0.9575866959,0.079528567,0.2849891439\C,
 1.0015828484,1.3658816089,-0.5358383312\O,1.9928736951,1.3735284892,-1
 .5590182533\C,3.3478699035,1.2822769952,-1.1530403948\C,3.9056126686,2
 .567788465,-0.4957616684\C,3.8587398284,2.5333775287,1.0400027926\C,4.
 8798118905,1.586262213,1.7236240143\C,6.2970353276,2.1554868563,1.8703
 797454\C,4.3354603712,1.1800984781,3.1011101368\O,3.82491453,3.8237037

 Normal termination of Gaussian 16 at Wed Dec  9 16:56:59 2020.

 --------------------------------------------------------------------
 #N Geom=AllCheck Guess=TCheck SCRF=Check GenChk RB3LYP/6-31G(d) Freq
 --------------------------------------------------------------------

 Structure from the checkpoint file:  "JID_2030.chk"
 -------------------------------
 CID_116712089_JID_2030_neutraal
 -------------------------------
 Charge =  0 Multiplicity = 1

 SCF Done:  E(RB3LYP) =  -580.672317039     A.U. after    1 cycles

  Exact polarizability: 115.302  -2.250 105.254   1.629  -0.196  96.567
 Approx polarizability: 143.920  -1.281 141.394   1.865  -2.599 140.628

                      1                      2                      3
                      A                      A                      A
 Frequencies --     24.8607                54.4283                68.1478
 Red. masses --      3.2254                 2.8927                 3.1453
 Frc consts  --      0.0012                 0.0050                 0.0086
 IR Inten    --      0.4777                 0.1165                 0.6753

                      4                      5                      6
                      A                      A                      A
 Frequencies --     93.1974               129.6365               155.7799
 Red. masses --      4.2733                 1.6532                 1.9573
 Frc consts  --      0.0219                 0.0164                 0.0280
 IR Inten    --      0.4364                 2.9260                 1.2968

                      7                      8                      9
                      A                      A                      A
 Frequencies --    177.4526               186.9451               209.1736
 Red. masses --      1.5391                 2.5782                 2.1804
 Frc consts  --      0.0286                 0.0531                 0.0562
 IR Inten    --      2.2027                 0.4035                 2.5509

                     10                     11                     12
                      A                      A                      A
 Frequencies --    236.4919               246.8897               268.7473
 Red. masses --      2.0384                 1.4275                 2.4578
 Frc consts  --      0.0672                 0.0513                 0.1046
 IR Inten    --      6.3749                 1.1452                 5.5722

                     13                     14                     15
                      A                      A                      A
 Frequencies --    277.2702               301.1073               307.8039
 Red. masses --      2.1574                 1.2318                 2.0834
 Frc consts  --      0.0977                 0.0658                 0.1163
 IR Inten    --      5.0834                 4.0068                 8.7340

                     16                     17                     18
                      A                      A                      A
 Frequencies --    315.4923               331.6534               371.6560
 Red. masses --      1.2372                 2.0396                 3.5351
 Frc consts  --      0.0726                 0.1322                 0.2877
 IR Inten    --     71.9267                10.3973                11.7074

                     19                     20                     21
                      A                      A                      A
 Frequencies --    403.4031               457.2472               484.7383
 Red. masses --      2.1365                 3.1419                 2.6719
 Frc consts  --      0.2048                 0.3870                 0.3699
 IR Inten    --      5.1987                 5.0117                 1.2253

                     22                     23                     24
                      A                      A                      A
 Frequencies --    500.0946               589.5479               690.8456
 Red. masses --      3.2831                 3.2692                 3.1356
 Frc consts  --      0.4838                 0.6695                 0.8817
 IR Inten    --     13.9606                 3.1044                11.7968

                     25                     26                     27
                      A                      A                      A
 Frequencies --    812.1350               823.4633               856.8413
 Red. masses --      1.2887                 2.6335                 2.5968
 Frc consts  --      0.5008                 1.0521                 1.1233
 IR Inten    --      7.3690                 9.0028                 7.2142

                     28                     29                     30
                      A                      A                      A
 Frequencies --    895.8419               937.2001               942.6742
 Red. masses --      2.4620                 2.0663                 1.4348
 Frc consts  --      1.1641                 1.0693                 0.7512
 IR Inten    --      8.0905                 6.9448                12.2002

                     31                     32                     33
                      A                      A                      A
 Frequencies --    971.0394               985.5336              1003.0297
 Red. masses --      1.6900                 1.6646                 2.7717
 Frc consts  --      0.9389                 0.9526                 1.6429
 IR Inten    --      2.3106                 1.8574                15.7209

                     34                     35                     36
                      A                      A                      A
 Frequencies --   1033.6649              1063.6970              1094.8803
 Red. masses --      2.5588                 3.8235                 2.4988
 Frc consts  --      1.6108                 2.5489                 1.7649
 IR Inten    --      6.3191                 0.8671               124.4510

                     37                     38                     39
                      A                      A                      A
 Frequencies --   1103.2218              1128.4842              1144.3766
 Red. masses --      2.1189                 2.2739                 1.9936
 Frc consts  --      1.5194                 1.7062                 1.5382
 IR Inten    --     42.3009                80.0610                33.1917

                     40                     41                     42
                      A                      A                      A
 Frequencies --   1169.3021              1178.3325              1193.0515
 Red. masses --      2.4486                 2.7828                 1.4166
 Frc consts  --      1.9725                 2.2765                 1.1880
 IR Inten    --     30.9033                54.3489                13.4983

                     43                     44                     45
                      A                      A                      A
 Frequencies --   1213.7321              1219.6731              1235.2105
 Red. masses --      1.9067                 1.7920                 1.3824
 Frc consts  --      1.6549                 1.5706                 1.2427
 IR Inten    --     40.6551                21.1086                 6.4357

                     46                     47                     48
                      A                      A                      A
 Frequencies --   1252.2614              1293.6296              1339.9129
 Red. masses --      1.3348                 1.2567                 1.2898
 Frc consts  --      1.2333                 1.2391                 1.3644
 IR Inten    --     62.1848                11.1867                16.4121

                     49                     50                     51
                      A                      A                      A
 Frequencies --   1344.2121              1356.9006              1375.2134
 Red. masses --      1.1358                 1.1704                 1.4530
 Frc consts  --      1.2092                 1.2697                 1.6191
 IR Inten    --     10.6318                 0.3457                 2.9412

                     52                     53                     54
                      A                      A                      A
 Frequencies --   1403.2393              1407.7608              1420.6090
 Red. masses --      1.2714                 1.2505                 1.2583
 Frc consts  --      1.4750                 1.4602                 1.4962
 IR Inten    --      9.9424                 3.4503                 2.3976

                     55                     56                     57
                      A                      A                      A
 Frequencies --   1424.5081              1439.2715              1441.8523
 Red. masses --      1.3105                 1.2885                 1.2775
 Frc consts  --      1.5668                 1.5726                 1.5647
 IR Inten    --      0.7621                 9.8101                10.4023

                     58                     59                     60
                      A                      A                      A
 Frequencies --   1446.1877              1458.1145              1507.9231
 Red. masses --      1.3177                 1.3832                 1.1279
 Frc consts  --      1.6238                 1.7327                 1.5111
 IR Inten    --     12.1192                11.3141                 0.2596

                     61                     62                     63
                      A                      A                      A
 Frequencies --   1512.7862              1520.1064              1523.4264
 Red. masses --      1.0602                 1.0555                 1.0523
 Frc consts  --      1.4295                 1.4370                 1.4389
 IR Inten    --      3.5118                 0.2235                 2.2146

                     64                     65                     66
                      A                      A                      A
 Frequencies --   1526.0389              1526.7536              1533.9829
 Red. masses --      1.0493                 1.0533                 1.0604
 Frc consts  --      1.4397                 1.4466                 1.4701
 IR Inten    --      2.5207                 1.2814                 4.7995

                     67                     68                     69
                      A                      A                      A
 Frequencies --   1535.1631              1541.0392              1549.7190
 Red. masses --      1.0607                 1.0473                 1.0860
 Frc consts  --      1.4729                 1.4654                 1.5368
 IR Inten    --      3.3185                 2.4603                 1.0084

                     70                     71                     72
                      A                      A                      A
 Frequencies --   1556.5146              3006.4940              3020.7212
 Red. masses --      1.0555                 1.0824                 1.0714
 Frc consts  --      1.5066                 5.7646                 5.7599
 IR Inten    --     12.4681                17.2148                37.6562

                     73                     74                     75
                      A                      A                      A
 Frequencies --   3025.4648              3033.2080              3040.5157
 Red. masses --      1.0778                 1.0424                 1.0611
 Frc consts  --      5.8126                 5.6504                 5.7794
 IR Inten    --     42.9879                72.2414                39.3629

                     76                     77                     78
                      A                      A                      A
 Frequencies --   3041.5075              3055.3474              3057.5800
 Red. masses --      1.0404                 1.0413                 1.0372
 Frc consts  --      5.6704                 5.7274                 5.7128
 IR Inten    --     23.8923                35.6581                17.4888

                     79                     80                     81
                      A                      A                      A
 Frequencies --   3070.4684              3091.3368              3096.2298
 Red. masses --      1.0810                 1.1018                 1.0950
 Frc consts  --      6.0049                 6.2034                 6.1846
 IR Inten    --     34.7593                42.8103                17.6967

                     82                     83                     84
                      A                      A                      A
 Frequencies --   3102.9127              3105.6984              3112.1539
 Red. masses --      1.0920                 1.1003                 1.0989
 Frc consts  --      6.1948                 6.2527                 6.2710
 IR Inten    --     31.0748                72.0740                29.1817

                     85                     86                     87
                      A                      A                      A
 Frequencies --   3122.5366              3124.6524              3132.9238
 Red. masses --      1.1021                 1.1006                 1.1037
 Frc consts  --      6.3309                 6.3313                 6.3826
 IR Inten    --     45.4466                45.3091                40.1038

                     88                     89                     90
                      A                      A                      A
 Frequencies --   3139.5918              3169.4174              3741.3053
 Red. masses --      1.1061                 1.0989                 1.0663
 Frc consts  --      6.4240                 6.5038                 8.7940
 IR Inten    --     24.6241                10.8018                13.8259

 - Thermochemistry -
 -------------------
 Temperature   298.150 Kelvin.  Pressure   1.00000 Atm.
 Atom     1 has atomic number  6 and mass  12.00000

 Molecular mass:   176.14124 amu.
 Principal axes and moments of inertia in atomic units:
                           1         2         3
     Eigenvalues --  1577.381682995.046143457.16758
           X            0.99976  -0.01993   0.00933
           Y            0.01962   0.99930   0.03174
           Z           -0.00996  -0.03155   0.99945
 This molecule is an asymmetric top.
 Rotational symmetry number  1.
 Warning -- assumption of classical behavior for rotation
           may cause significant error
 Rotational temperatures (Kelvin)      0.05491     0.02892     0.02505
 Rotational constants (GHZ):           1.14414     0.60258     0.52203
 Zero-point vibrational energy     762112.1 (Joules/Mol)
                                  182.14916 (Kcal/Mol)
 Warning -- explicit consideration of  23 degrees of freedom as
           vibrations may cause significant error
 Vibrational temperatures:     35.77    78.31    98.05   134.09   186.52
          (Kelvin)            224.13   255.31   268.97   300.95   340.26
                              355.22   386.67   398.93   433.23   442.86
                              453.92   477.18   534.73   580.41   657.88
                              697.43   719.52   848.23   993.97  1168.48
                             1184.78  1232.80  1288.92  1348.42  1356.30
                             1397.11  1417.96  1443.14  1487.21  1530.42
                             1575.29  1587.29  1623.64  1646.50  1682.36
                             1695.36  1716.54  1746.29  1754.84  1777.19
                             1801.72  1861.24  1927.84  1934.02  1952.28
                             1978.63  2018.95  2025.45  2043.94  2049.55
                             2070.79  2074.50  2080.74  2097.90  2169.57
                             2176.56  2187.09  2191.87  2195.63  2196.66
                             2207.06  2208.76  2217.21  2229.70  2239.48
                             4325.67  4346.14  4352.97  4364.11  4374.62
                             4376.05  4395.96  4399.18  4417.72  4447.74
                             4454.78  4464.40  4468.41  4477.70  4492.63
                             4495.68  4507.58  4517.17  4560.08  5382.90

 Zero-point correction=                           0.290273 (Hartree/Particle)
 Thermal correction to Energy=                    0.305456
 Thermal correction to Enthalpy=                  0.306400
 Thermal correction to Gibbs Free Energy=         0.248084
 Sum of electronic and zero-point Energies=           -580.382044
 Sum of electronic and thermal Energies=              -580.366861
 Sum of electronic and thermal Enthalpies=            -580.365917
 Sum of electronic and thermal Free Energies=         -580.424233

                     E (Thermal)             CV                S
                      KCal/Mol        Cal/Mol-Kelvin    Cal/Mol-Kelvin
 Total                  191.677             55.234            122.738
 Electronic               0.000              0.000              0.000
 Translational            0.889              2.981             41.405
 Rotational               0.889              2.981             31.169
 Vibrational            189.899             49.272             50.163
 Vibration     1          0.593              1.985              6.202
 Vibration     2          0.596              1.976              4.650
 Vibration     3          0.598              1.969              4.206
 Vibration     4          0.602              1.954              3.592
 Vibration     5          0.612              1.924              2.951
 Vibration     6          0.620              1.896              2.600
 Vibration     7          0.628              1.870              2.355
 Vibration     8          0.632              1.858              2.258
 Vibration     9          0.642              1.827              2.051
 Vibration    10          0.655              1.785              1.829
 Vibration    11          0.661              1.768              1.753
 Vibration    12          0.673              1.731              1.604
 Vibration    13          0.678              1.715              1.550
 Vibration    14          0.693              1.672              1.411
 Vibration    15          0.698              1.659              1.374
 Vibration    16          0.703              1.644              1.333
 Vibration    17          0.714              1.612              1.252
 Vibration    18          0.743              1.530              1.073
 Vibration    19          0.769              1.463              0.950
 Vibration    20          0.815              1.345              0.774
 Vibration    21          0.841              1.284              0.697
 Vibration    22          0.856              1.250              0.658
 Vibration    23          0.947              1.054              0.468

 Optimization completed.
    -- Stationary point found.

 1\1\GINC-NODE357\Freq\RB3LYP\6-31G(d)\C9H20O3\VSC10255\09-Dec-2020\0\\
 #N Geom=AllCheck Guess=TCheck SCRF=Check GenChk RB3LYP/6-31G(d) Freq\\
 CID_116712089_JID_2030_neutraal\\0,1\C,0.9575866959,0.079528567,0.2849
 891439\C,1.0015828484,1.3658816089,-0.5358383312\O,1.9928736951,1.3735
 284892,-1.5590182533\C,3.3478699035,1.2822769952,-1.1530403948\C,3.905
 6126686,2.567788465,-0.4957616684\C,3.8587398284,2.5333775287,1.040002
 7926\C,4.8798118905,1.586262213,1.7236240143\C,6.2970353276,2.15548685
 63,1.8703797454\C,4.3354603712,1.1800984781,3.1011101368\O,3.82491453,

 Normal termination of Gaussian 16 at Wed Dec  9 17:05:48 2020.

 ----------------------------------------------------------------------
 # B3LYP/6-311++G(d,p) empiricaldispersion=gd3bj scf=xqc pop=npa geom=c
 heck
 ----------------------------------------------------------------------

 ---------------------------------------
 CID_116712089_JID_2030_Energie_neutraal
 ---------------------------------------
 Structure from the checkpoint file:  "JID_2030.chk"
 Charge =  0 Multiplicity = 1

 SCF Done:  E(RB3LYP) =  -580.855091102     A.U. after   14 cycles
 Normal termination of Gaussian 16 at Wed Dec  9 17:10:08 2020.

 ----------------------------------------------------------------------
 # B3LYP/6-311++G(d,p) empiricaldispersion=gd3bj scf=xqc pop=npa geom=c
 heck
 ----------------------------------------------------------------------

 -------------------------------------
 CID_116712089_JID_2030_Energie_kation
 -------------------------------------
 Structure from the checkpoint file:  "JID_2030.chk"
 Charge =  1 Multiplicity = 2

 SCF Done:  E(UB3LYP) =  -580.535665977     A.U. after   21 cycles
 Normal termination of Gaussian 16 at Wed Dec  9 17:17:35 2020.
 Gaussian 16:  ES64L-G16RevA.03 25-Dec-2016

 ------------------------------------
 CID_116712089_JID_2030_Energie_anion
 ------------------------------------
 Structure from the checkpoint file:  "JID_2030.chk"
 Charge = -1 Multiplicity = 2

                         Standard orientation:
 ---------------------------------------------------------------------
 Center     Atomic      Atomic             Coordinates (Angstroms)
 Number     Number       Type             X           Y           Z
 ---------------------------------------------------------------------
      1          6           0       -3.102596    1.448524   -0.249935
      2          6           0       -2.903701    0.020718   -0.752139
      3          8           0       -2.628719   -0.927786    0.274672
      4          6           0       -1.437346   -0.750829    1.021984
      5          6           0       -0.141471   -1.095976    0.249189
      6          6           0        0.539212    0.133201   -0.373504
      7          6           0        1.237118    1.094134    0.624740
      8          6           0        2.638229    0.659180    1.073938
      9          6           0        1.300791    2.496619    0.002055
     10          8           0        1.364008   -0.162530   -1.503260
     11          6           0        2.162754   -1.335359   -1.483388
     12          8           0        0.790792   -1.749765    1.113794
     13          1           0       -3.448840    2.084988   -1.071912
     14          1           0       -2.177665    1.888399    0.137779
     15          1           0       -3.853570    1.470632    0.546654
     16          1           0       -3.829863   -0.341069   -1.209522
     17          1           0       -2.128517   -0.008646   -1.531952
     18          1           0       -1.380804    0.254582    1.460766
     19          1           0       -1.524377   -1.455319    1.856053
     20          1           0       -0.438709   -1.765362   -0.572932
     21          1           0       -0.277914    0.710607   -0.820200
     22          1           0        0.599155    1.145374    1.518364
     23          1           0        3.327350    0.649513    0.222830
     24          1           0        3.030755    1.376827    1.804035
     25          1           0        2.626638   -0.330666    1.532017
     26          1           0        0.299320    2.888896   -0.214415
     27          1           0        1.802244    3.204070    0.671899
     28          1           0        1.859171    2.462976   -0.940062
     29          1           0        2.846410   -1.375601   -0.630752
     30          1           0        1.555801   -2.250647   -1.478832
     31          1           0        2.741918   -1.309086   -2.410924
     32          1           0        0.404909   -2.601094    1.371826
 ---------------------------------------------------------------------

 SCF Done:  E(UB3LYP) =  -580.840208739     A.U. after   28 cycles

 The electronic state is 2-A.
 Alpha  occ. eigenvalues --  -19.02345 -19.01983 -19.01939 -10.12060 -10.11924
 Alpha  occ. eigenvalues --  -10.11709 -10.11315 -10.10405 -10.07402 -10.06332
 Alpha  occ. eigenvalues --  -10.05731 -10.05082  -0.93841  -0.93052  -0.91599
 Alpha  occ. eigenvalues --   -0.70680  -0.66907  -0.64398  -0.60415  -0.58162
 Alpha  occ. eigenvalues --   -0.56294  -0.51498  -0.49040  -0.45563  -0.42433
 Alpha  occ. eigenvalues --   -0.40498  -0.38768  -0.37690  -0.36941  -0.35667
 Alpha  occ. eigenvalues --   -0.34095  -0.32809  -0.32415  -0.31207  -0.30233
 Alpha  occ. eigenvalues --   -0.29866  -0.28820  -0.27945  -0.27309  -0.26344
 Alpha  occ. eigenvalues --   -0.25958  -0.24601  -0.23758  -0.22802  -0.21111
 Alpha  occ. eigenvalues --   -0.19744  -0.18937  -0.15696  -0.14874   0.04596
 Alpha virt. eigenvalues --    0.06554   0.07198   0.07696   0.09038   0.09168
 Alpha virt. eigenvalues --    0.09739   0.10178   0.10463   0.11574   0.11800
 Alpha virt. eigenvalues --    0.12209   0.12714   0.13270   0.13613   0.14553

  Beta  occ. eigenvalues --  -19.02343 -19.01978 -19.01885 -10.12047 -10.11922
  Beta  occ. eigenvalues --  -10.11692 -10.11291 -10.10383 -10.07394 -10.06291
  Beta  occ. eigenvalues --  -10.05712 -10.05067  -0.93805  -0.93033  -0.91516
  Beta  occ. eigenvalues --   -0.70655  -0.66863  -0.64356  -0.60374  -0.58124
  Beta  occ. eigenvalues --   -0.56230  -0.51448  -0.48972  -0.45505  -0.42355
  Beta  occ. eigenvalues --   -0.40468  -0.38738  -0.37663  -0.36914  -0.35624
  Beta  occ. eigenvalues --   -0.34060  -0.32773  -0.32386  -0.31179  -0.30198
  Beta  occ. eigenvalues --   -0.29820  -0.28772  -0.27927  -0.27275  -0.26309
  Beta  occ. eigenvalues --   -0.25921  -0.24578  -0.23726  -0.22775  -0.21085
  Beta  occ. eigenvalues --   -0.19712  -0.18894  -0.15677  -0.14851
  Beta virt. eigenvalues --    0.06782   0.07615   0.07778   0.08500   0.09367
  Beta virt. eigenvalues --    0.09629   0.10147   0.10574   0.10689   0.11908
  Beta virt. eigenvalues --    0.12187   0.12645   0.12928   0.13486   0.13811

 Mulliken charges and spin densities:
               1          2
     1  C    0.957884  -1.423789
     2  C   -0.346632   0.103399
     3  O   -0.085911   0.021701
     4  C    0.487146  -0.856570
     5  C   -0.324535  -0.194174
     6  C    0.815528  -0.981299
     7  C   -0.662456   1.128207
     8  C    0.051531  -0.848880
     9  C   -0.246910  -0.405370
    10  O   -0.111433   0.060105
    11  C    0.279690  -0.507845
    12  O   -0.300781   0.079681
    13  H   -0.323398   0.466308
    14  H   -0.141775   0.296668
    15  H   -0.148631   0.304338
    16  H   -0.378433   0.568131
    17  H    0.061208   0.067530
    18  H    0.121545   0.014023
    19  H   -0.457755   0.630820
    20  H   -0.079393   0.316402
    21  H    0.413541  -0.152672
    22  H    0.016850   0.149396
    23  H    0.098389   0.049080
    24  H   -0.077164   0.201859
    25  H    0.113207   0.067126
    26  H   -0.135905   0.231716
    27  H   -0.115014   0.253329
    28  H    0.136470   0.034534
    29  H   -0.028074   0.183060
    30  H   -0.179476   0.326147
    31  H   -0.125548   0.262453
    32  H   -0.283765   0.554584
 Sum of Mulliken charges =  -1.00000   1.00000

 Dipole moment (field-independent basis, Debye):
    X=              2.6814    Y=              2.0284    Z=             -0.9664  Tot=              3.4983
 Quadrupole moment (field-independent basis, Debye-Ang):
   XX=           -134.4632   YY=           -128.7102   ZZ=           -113.0771
   XY=              4.7267   XZ=             -3.5850   YZ=              7.2232

 Summary of Natural Population Analysis:

                                       Natural Population
                Natural  -----------------------------------------------
    Atom  No    Charge         Core      Valence    Rydberg      Total
 -----------------------------------------------------------------------
      C    1   -0.30383      0.99966     2.29891    0.00525     3.30383
      C    2   -0.01093      0.99958     1.99904    0.01231     3.01093
      O    3   -0.30063      0.99989     3.29058    0.01016     4.30063
      C    4   -0.01743      0.99954     2.00399    0.01390     3.01743
      C    5    0.03638      0.99952     1.94964    0.01446     2.96362
      C    6    0.06784      0.99947     1.91743    0.01527     2.93216
      C    7   -0.12500      0.99958     2.11361    0.01180     3.12500
      C    8   -0.28866      0.99964     2.28375    0.00528     3.28866
      C    9   -0.28257      0.99965     2.27791    0.00502     3.28257
      O   10   -0.30809      0.99988     3.29817    0.01004     4.30809
      C   11   -0.09803      0.99959     2.08902    0.00942     3.09803
      O   12   -0.37601      0.99989     3.36863    0.00749     4.37601
      H   13    0.10413      0.00000     0.39427    0.00160     0.39587
      H   14    0.09705      0.00000     0.40158    0.00138     0.40295
      H   15    0.10077      0.00000     0.39801    0.00123     0.39923
      H   16    0.08950      0.00000     0.40903    0.00147     0.41050
      H   17    0.07724      0.00000     0.42111    0.00165     0.42276
      H   18    0.08131      0.00000     0.41682    0.00186     0.41869
      H   19    0.09555      0.00000     0.40261    0.00185     0.40445
      H   20    0.08581      0.00000     0.41181    0.00239     0.41419
      H   21    0.09300      0.00000     0.40409    0.00291     0.40700
      H   22    0.09646      0.00000     0.40151    0.00203     0.40354
      H   23    0.09527      0.00000     0.40351    0.00122     0.40473
      H   24    0.09483      0.00000     0.40429    0.00088     0.40517
      H   25    0.11342      0.00000     0.38506    0.00152     0.38658
      H   26    0.09759      0.00000     0.40130    0.00111     0.40241
      H   27    0.09594      0.00000     0.40313    0.00093     0.40406
      H   28    0.10056      0.00000     0.39816    0.00128     0.39944
      H   29    0.08548      0.00000     0.41307    0.00145     0.41452
      H   30    0.08105      0.00000     0.41754    0.00141     0.41895
      H   31    0.08473      0.00000     0.41438    0.00089     0.41527
      H   32    0.23727      0.00000     0.24822    0.01450     0.26273
 =======================================================================
   * Total *   -0.00000     11.99591    36.84014    0.16395    49.00000

 Normal termination of Gaussian 16 at Wed Dec  9 17:28:56 2020.
