 Gaussian 16, Revision A.03,

 -----------------------------------------------------------
 # opt freq B3LYP/6-31G(d) empiricaldispersion=gd3bj scf=xqc
 -----------------------------------------------------------

 ------------------------------
 CID_55211645_JID_7348_neutraal
 ------------------------------
 Symbolic Z-matrix:
 Charge =  0 Multiplicity = 1

 SCF Done:  E(RB3LYP) =  -764.803665025     A.U. after   15 cycles
 SCF Done:  E(RB3LYP) =  -764.811498556     A.U. after   13 cycles
 SCF Done:  E(RB3LYP) =  -764.813654696     A.U. after   12 cycles
 SCF Done:  E(RB3LYP) =  -764.813623878     A.U. after   13 cycles
 SCF Done:  E(RB3LYP) =  -764.814864848     A.U. after   13 cycles
 SCF Done:  E(RB3LYP) =  -764.815199492     A.U. after   12 cycles
 SCF Done:  E(RB3LYP) =  -764.815397114     A.U. after   12 cycles
 SCF Done:  E(RB3LYP) =  -764.815532433     A.U. after   11 cycles
 SCF Done:  E(RB3LYP) =  -764.815647151     A.U. after   12 cycles
 SCF Done:  E(RB3LYP) =  -764.815699958     A.U. after   11 cycles
 SCF Done:  E(RB3LYP) =  -764.816176341     A.U. after    9 cycles
 SCF Done:  E(RB3LYP) =  -764.816177302     A.U. after    8 cycles
 SCF Done:  E(RB3LYP) =  -764.816177730     A.U. after    8 cycles
 SCF Done:  E(RB3LYP) =  -764.816177818     A.U. after    7 cycles
 SCF Done:  E(RB3LYP) =  -764.816177861     A.U. after    7 cycles
 Optimization completed.
    -- Stationary point found.
 Normal termination of Gaussian 16 at Fri Dec 11 12:22:33 2020.

 --------------------------------------------------------------------
 #N Geom=AllCheck Guess=TCheck SCRF=Check GenChk RB3LYP/6-31G(d) Freq
 --------------------------------------------------------------------

 Structure from the checkpoint file:  "JID_7348.chk"
 ------------------------------
 CID_55211645_JID_7348_neutraal
 ------------------------------
 Charge =  0 Multiplicity = 1

 SCF Done:  E(RB3LYP) =  -764.816177861     A.U. after    1 cycles

  Exact polarizability: 198.100  -1.382 141.370  -0.015   8.171 122.623
 Approx polarizability: 250.907  -6.269 214.738   4.831  29.651 200.884

                      1                      2                      3
                      A                      A                      A
 Frequencies --     24.9659                26.7822                41.1691
 Red. masses --      3.1157                 3.7902                 2.8165
 Frc consts  --      0.0011                 0.0016                 0.0028
 IR Inten    --      0.2532                 1.1225                 0.3820

                      4                      5                      6
                      A                      A                      A
 Frequencies --     59.1729                76.6106                85.8649
 Red. masses --      3.7083                 2.3810                 3.3229
 Frc consts  --      0.0077                 0.0082                 0.0144
 IR Inten    --      0.2981                 0.2595                 8.4664

                      7                      8                      9
                      A                      A                      A
 Frequencies --    107.5406               130.9187               141.8579
 Red. masses --      2.4145                 2.4433                 2.5446
 Frc consts  --      0.0165                 0.0247                 0.0302
 IR Inten    --      0.0846                 6.3250                 1.9813

                     10                     11                     12
                      A                      A                      A
 Frequencies --    171.2888               184.3252               194.0163
 Red. masses --      2.9759                 1.6400                 1.4089
 Frc consts  --      0.0514                 0.0328                 0.0312
 IR Inten    --      1.8618                 1.0095                 3.0463

                     13                     14                     15
                      A                      A                      A
 Frequencies --    200.7960               210.1240               220.2957
 Red. masses --      1.5608                 1.7125                 1.1798
 Frc consts  --      0.0371                 0.0445                 0.0337
 IR Inten    --      2.4983                 0.2326                29.8115

                     16                     17                     18
                      A                      A                      A
 Frequencies --    261.2380               271.9338               276.4283
 Red. masses --      2.4037                 1.7093                 1.6667
 Frc consts  --      0.0966                 0.0745                 0.0750
 IR Inten    --      5.1449                 0.8428                 2.0577

                     19                     20                     21
                      A                      A                      A
 Frequencies --    284.9442               292.9094               340.8142
 Red. masses --      2.1782                 2.8398                 5.6086
 Frc consts  --      0.1042                 0.1435                 0.3838
 IR Inten    --      1.4156                 0.9003                 2.9769

                     22                     23                     24
                      A                      A                      A
 Frequencies --    370.3568               404.1332               416.9840
 Red. masses --      2.6681                 4.2930                 4.5284
 Frc consts  --      0.2156                 0.4131                 0.4639
 IR Inten    --      2.8075                 8.1524                 4.6958

                     25                     26                     27
                      A                      A                      A
 Frequencies --    438.4717               471.1284               482.9837
 Red. masses --      2.8472                 1.7190                 2.8094
 Frc consts  --      0.3225                 0.2248                 0.3861
 IR Inten    --      3.2810                38.0631                 3.9582

                     28                     29                     30
                      A                      A                      A
 Frequencies --    542.3624               611.1613               653.1273
 Red. masses --      2.5727                 2.9393                 4.1237
 Frc consts  --      0.4459                 0.6469                 1.0364
 IR Inten    --     19.9567                 3.5435                10.2112

                     31                     32                     33
                      A                      A                      A
 Frequencies --    676.6417               696.8421               701.1440
 Red. masses --      4.8573                 3.2488                 5.0190
 Frc consts  --      1.3103                 0.9295                 1.4537
 IR Inten    --      8.6628                18.5954                10.2209

                     34                     35                     36
                      A                      A                      A
 Frequencies --    754.0157               781.0517               787.2476
 Red. masses --      4.4719                 1.6162                 1.7693
 Frc consts  --      1.4980                 0.5809                 0.6461
 IR Inten    --     28.7567                10.3064                 5.7108

                     37                     38                     39
                      A                      A                      A
 Frequencies --    792.0112               796.3368               826.6761
 Red. masses --      2.1778                 1.3091                 1.5683
 Frc consts  --      0.8049                 0.4891                 0.6315
 IR Inten    --     30.3546                30.0126                89.1478

                     40                     41                     42
                      A                      A                      A
 Frequencies --    852.2973               927.6494               939.0101
 Red. masses --      2.0936                 2.0753                 2.2959
 Frc consts  --      0.8960                 1.0522                 1.1927
 IR Inten    --      2.5087                 5.0303                 2.8709

                     43                     44                     45
                      A                      A                      A
 Frequencies --    967.8796              1014.9425              1045.7382
 Red. masses --      2.6548                 2.7900                 1.3459
 Frc consts  --      1.4653                 1.6933                 0.8672
 IR Inten    --     11.5298                17.2628                 2.9645

                     46                     47                     48
                      A                      A                      A
 Frequencies --   1047.1494              1065.1236              1068.6051
 Red. masses --      1.8292                 2.0030                 1.5516
 Frc consts  --      1.1818                 1.3389                 1.0439
 IR Inten    --      1.8636                 1.5489                 9.3720

                     49                     50                     51
                      A                      A                      A
 Frequencies --   1093.0039              1107.3232              1130.7770
 Red. masses --      1.8110                 1.8043                 2.2583
 Frc consts  --      1.2747                 1.3035                 1.7013
 IR Inten    --      4.9876               156.9845                10.5289

                     52                     53                     54
                      A                      A                      A
 Frequencies --   1153.9181              1165.9478              1184.2469
 Red. masses --      1.9839                 1.3318                 2.4083
 Frc consts  --      1.5564                 1.0667                 1.9899
 IR Inten    --     10.7657                 6.2059                11.9050

                     55                     56                     57
                      A                      A                      A
 Frequencies --   1199.9075              1228.8334              1251.9244
 Red. masses --      2.6677                 3.5801                 1.8734
 Frc consts  --      2.2630                 3.1851                 1.7299
 IR Inten    --     34.2353                22.3464                 2.0282

                     58                     59                     60
                      A                      A                      A
 Frequencies --   1262.0144              1269.3671              1314.7538
 Red. masses --      2.6279                 2.1911                 1.3499
 Frc consts  --      2.4660                 2.0801                 1.3748
 IR Inten    --      9.0486                12.8416                 8.5940

                     61                     62                     63
                      A                      A                      A
 Frequencies --   1327.0005              1339.0455              1354.5789
 Red. masses --      1.1772                 1.4219                 1.6970
 Frc consts  --      1.2214                 1.5021                 1.8346
 IR Inten    --      1.7520                12.9293                19.3074

                     64                     65                     66
                      A                      A                      A
 Frequencies --   1374.9102              1379.8745              1396.9841
 Red. masses --      1.5907                 1.9078                 1.6397
 Frc consts  --      1.7717                 2.1402                 1.8854
 IR Inten    --     80.4507                81.9848                39.5850

                     67                     68                     69
                      A                      A                      A
 Frequencies --   1417.6720              1436.0075              1439.5396
 Red. masses --      1.3718                 1.4459                 1.2653
 Frc consts  --      1.6244                 1.7567                 1.5449
 IR Inten    --      4.3966                 2.6299                 4.5073

                     70                     71                     72
                      A                      A                      A
 Frequencies --   1444.8561              1451.2128              1464.3987
 Red. masses --      1.9658                 1.2935                 1.3417
 Frc consts  --      2.4179                 1.6050                 1.6952
 IR Inten    --      6.7859                 5.7293                12.3192

                     73                     74                     75
                      A                      A                      A
 Frequencies --   1480.6240              1503.8082              1509.2838
 Red. masses --      2.3287                 1.2965                 1.0694
 Frc consts  --      3.0078                 1.7274                 1.4353
 IR Inten    --     11.6369                15.8119                 1.4549

                     76                     77                     78
                      A                      A                      A
 Frequencies --   1511.5420              1513.0082              1520.8730
 Red. masses --      1.0853                 1.1409                 1.1470
 Frc consts  --      1.4610                 1.5389                 1.5632
 IR Inten    --      4.4675                13.2128                29.1249

                     79                     80                     81
                      A                      A                      A
 Frequencies --   1525.2751              1527.6387              1528.7134
 Red. masses --      1.0509                 1.0710                 1.0527
 Frc consts  --      1.4405                 1.4725                 1.4495
 IR Inten    --      7.6838                 9.0648                 8.6459

                     82                     83                     84
                      A                      A                      A
 Frequencies --   1532.3558              1532.7574              1538.1903
 Red. masses --      1.0452                 1.1091                 1.0573
 Frc consts  --      1.4460                 1.5352                 1.4739
 IR Inten    --      1.9815                 2.5260                 8.3947

                     85                     86                     87
                      A                      A                      A
 Frequencies --   1546.7028              1552.9898              1651.5874
 Red. masses --      2.0141                 1.5579                 6.0944
 Frc consts  --      2.8389                 2.2137                 9.7945
 IR Inten    --     24.5997                15.9379                23.9414

                     88                     89                     90
                      A                      A                      A
 Frequencies --   1688.9396              1747.6825              3018.6780
 Red. masses --      1.1498                 9.3520                 1.0644
 Frc consts  --      1.9325                16.8299                 5.7148
 IR Inten    --     49.5119               246.8296                23.1048

                     91                     92                     93
                      A                      A                      A
 Frequencies --   3032.5509              3037.6793              3040.1703
 Red. masses --      1.0724                 1.0540                 1.0612
 Frc consts  --      5.8104                 5.7301                 5.7790
 IR Inten    --     18.7134                23.2223                34.6312

                     94                     95                     96
                      A                      A                      A
 Frequencies --   3041.9578              3049.5884              3050.8431
 Red. masses --      1.0456                 1.0687                 1.0350
 Frc consts  --      5.7006                 5.8560                 5.6759
 IR Inten    --     13.7959                98.7632                26.1951

                     97                     98                     99
                      A                      A                      A
 Frequencies --   3058.1385              3059.9095              3076.5505
 Red. masses --      1.0968                 1.0406                 1.1022
 Frc consts  --      6.0434                 5.7403                 6.1468
 IR Inten    --     56.7171                22.7418                 6.2879

                    100                    101                    102
                      A                      A                      A
 Frequencies --   3091.2910              3104.5592              3119.3061
 Red. masses --      1.1038                 1.0961                 1.1030
 Frc consts  --      6.2146                 6.2247                 6.3231
 IR Inten    --     30.7758                29.8875                52.4618

                    103                    104                    105
                      A                      A                      A
 Frequencies --   3122.3150              3126.4462              3137.6714
 Red. masses --      1.0985                 1.1033                 1.0994
 Frc consts  --      6.3098                 6.3541                 6.3768
 IR Inten    --     44.9104                32.4647                27.0699

                    106                    107                    108
                      A                      A                      A
 Frequencies --   3147.0112              3166.8015              3192.8419
 Red. masses --      1.1013                 1.0907                 1.0952
 Frc consts  --      6.4261                 6.4445                 6.5781
 IR Inten    --     29.0499                12.8022                 7.8245

                    109                    110                    111
                      A                      A                      A
 Frequencies --   3510.7270              3602.1945              3656.5485
 Red. masses --      1.0490                 1.0954                 1.0809
 Frc consts  --      7.6174                 8.3741                 8.5149
 IR Inten    --      5.7927                17.0738                75.0298

 - Thermochemistry -
 -------------------
 Temperature   298.150 Kelvin.  Pressure   1.00000 Atm.
 Atom     1 has atomic number  6 and mass  12.00000

 Molecular mass:   238.17936 amu.
 Principal axes and moments of inertia in atomic units:
                           1         2         3
     Eigenvalues --  1979.965206853.701157487.27022
           X            0.99995   0.00934  -0.00342
           Y           -0.00950   0.99856  -0.05272
           Z            0.00293   0.05275   0.99860
 This molecule is an asymmetric top.
 Rotational symmetry number  1.
 Warning -- assumption of classical behavior for rotation
           may cause significant error
 Rotational temperatures (Kelvin)      0.04375     0.01264     0.01157
 Rotational constants (GHZ):           0.91150     0.26332     0.24104
 Zero-point vibrational energy     901858.2 (Joules/Mol)
                                  215.54928 (Kcal/Mol)
 Warning -- explicit consideration of  29 degrees of freedom as
           vibrations may cause significant error
 Vibrational temperatures:     35.92    38.53    59.23    85.14   110.23
          (Kelvin)            123.54   154.73   188.36   204.10   246.45
                              265.20   279.15   288.90   302.32   316.96
                              375.86   391.25   397.72   409.97   421.43
                              490.36   532.86   581.46   599.95   630.86
                              677.85   694.91   780.34   879.32   939.70
                              973.54  1002.60  1008.79  1084.86  1123.76
                             1132.67  1139.53  1145.75  1189.40  1226.27
                             1334.68  1351.03  1392.56  1460.28  1504.58
                             1506.61  1532.48  1537.48  1572.59  1593.19
                             1626.94  1660.23  1677.54  1703.87  1726.40
                             1768.02  1801.24  1815.76  1826.34  1891.64
                             1909.26  1926.59  1948.94  1978.19  1985.33
                             2009.95  2039.71  2066.09  2071.18  2078.83
                             2087.97  2106.94  2130.29  2163.64  2171.52
                             2174.77  2176.88  2188.20  2194.53  2197.93
                             2199.48  2204.72  2205.30  2213.11  2225.36
                             2234.41  2376.27  2430.01  2514.53  4343.20
                             4363.16  4370.54  4374.13  4376.70  4387.68
                             4389.48  4399.98  4402.53  4426.47  4447.68
                             4466.77  4487.99  4492.31  4498.26  4514.41
                             4527.85  4556.32  4593.79  5051.15  5182.75
                             5260.96

 Zero-point correction=                           0.343500 (Hartree/Particle)
 Thermal correction to Energy=                    0.363126
 Thermal correction to Enthalpy=                  0.364071
 Thermal correction to Gibbs Free Energy=         0.294429
 Sum of electronic and zero-point Energies=           -764.472678
 Sum of electronic and thermal Energies=              -764.453051
 Sum of electronic and thermal Enthalpies=            -764.452107
 Sum of electronic and thermal Free Energies=         -764.521749

                     E (Thermal)             CV                S
                      KCal/Mol        Cal/Mol-Kelvin    Cal/Mol-Kelvin
 Total                  227.865             71.291            146.572
 Electronic               0.000              0.000              0.000
 Translational            0.889              2.981             42.305
 Rotational               0.889              2.981             32.985
 Vibrational            226.088             65.329             71.282
 Vibration     1          0.593              1.985              6.194
 Vibration     2          0.593              1.984              6.055
 Vibration     3          0.594              1.981              5.202
 Vibration     4          0.597              1.974              4.485
 Vibration     5          0.599              1.965              3.976
 Vibration     6          0.601              1.959              3.752
 Vibration     7          0.606              1.943              3.313
 Vibration     8          0.612              1.922              2.933
 Vibration     9          0.615              1.911              2.779
 Vibration    10          0.626              1.878              2.421
 Vibration    11          0.631              1.861              2.284
 Vibration    12          0.635              1.848              2.189
 Vibration    13          0.638              1.839              2.126
 Vibration    14          0.642              1.825              2.043
 Vibration    15          0.647              1.810              1.957
 Vibration    16          0.669              1.744              1.653
 Vibration    17          0.675              1.725              1.584
 Vibration    18          0.678              1.717              1.556
 Vibration    19          0.683              1.702              1.504
 Vibration    20          0.688              1.687              1.457
 Vibration    21          0.720              1.594              1.208
 Vibration    22          0.742              1.533              1.078
 Vibration    23          0.769              1.461              0.948
 Vibration    24          0.780              1.433              0.902
 Vibration    25          0.799              1.386              0.831
 Vibration    26          0.828              1.314              0.734
 Vibration    27          0.839              1.288              0.702
 Vibration    28          0.897              1.156              0.560
 Vibration    29          0.970              1.008              0.431

                           ! Non-Optimized Parameters !
 Normal termination of Gaussian 16 at Fri Dec 11 12:39:37 2020.

 ----------------------------------------------------------------------
 # B3LYP/6-311++G(d,p) empiricaldispersion=gd3bj scf=xqc pop=npa geom=c
 heck
 ----------------------------------------------------------------------

 --------------------------------------
 CID_55211645_JID_7348_Energie_neutraal
 --------------------------------------
 Structure from the checkpoint file:  "JID_7348.chk"
 Charge =  0 Multiplicity = 1

 SCF Done:  E(RB3LYP) =  -765.036649118     A.U. after   17 cycles
 Normal termination of Gaussian 16 at Fri Dec 11 12:49:51 2020.

 ----------------------------------------------------------------------
 # B3LYP/6-311++G(d,p) empiricaldispersion=gd3bj scf=xqc pop=npa geom=c
 heck
 ----------------------------------------------------------------------

 ------------------------------------
 CID_55211645_JID_7348_Energie_kation
 ------------------------------------
 Structure from the checkpoint file:  "JID_7348.chk"
 Charge =  1 Multiplicity = 2

 SCF Done:  E(UB3LYP) =  -764.754398010     A.U. after   32 cycles
 Normal termination of Gaussian 16 at Fri Dec 11 13:16:55 2020.
 Gaussian 16:  ES64L-G16RevA.03 25-Dec-2016

 ----------------------------------------------------------------------
 # B3LYP/6-311++G(d,p) empiricaldispersion=gd3bj scf=xqc pop=npa geom=c
 heck
 ----------------------------------------------------------------------

 -----------------------------------
 CID_55211645_JID_7348_Energie_anion
 -----------------------------------
 Structure from the checkpoint file:  "JID_7348.chk"
 Charge = -1 Multiplicity = 2

                         Standard orientation:
 ---------------------------------------------------------------------
 Center     Atomic      Atomic             Coordinates (Angstroms)
 Number     Number       Type             X           Y           Z
 ---------------------------------------------------------------------
      1          6           0        4.940535    0.994372   -0.617849
      2          6           0        4.320186    0.147569    0.508370
      3          6           0        2.955473   -0.366516    0.181250
      4          6           0        1.706499    0.225562    0.304908
      5          6           0        0.786831   -0.729636   -0.214208
      6          7           0        1.417345   -1.830109   -0.644327
      7          7           0        2.712225   -1.584279   -0.397652
      8          6           0       -0.677842   -0.534360   -0.436824
      9          8           0       -1.166828   -0.692781   -1.551492
     10          7           0       -1.393448   -0.065149    0.645461
     11          6           0       -0.957812   -0.272358    2.025036
     12          6           0       -2.780220    0.443730    0.502990
     13          6           0       -2.787278    1.922873    0.067273
     14          6           0       -2.191375    2.239092   -1.307075
     15          6           0       -3.729600   -0.450322   -0.312746
     16          6           0       -3.725511   -1.907335    0.151200
     17          7           0        1.415230    1.480041    0.876153
     18          1           0        5.042219    0.408284   -1.537315
     19          1           0        5.932260    1.362035   -0.332127
     20          1           0        4.310697    1.860616   -0.849582
     21          1           0        4.985269   -0.693749    0.743680
     22          1           0        4.252067    0.747550    1.424459
     23          1           0        3.391185   -2.297139   -0.619144
     24          1           0       -0.937184    0.673553    2.578122
     25          1           0       -1.645256   -0.959416    2.534312
     26          1           0        0.040920   -0.703553    2.047791
     27          1           0       -3.169416    0.432294    1.528477
     28          1           0       -3.830224    2.266461    0.100508
     29          1           0       -2.253356    2.502840    0.833837
     30          1           0       -2.681028    1.673758   -2.103932
     31          1           0       -2.301682    3.307450   -1.526143
     32          1           0       -1.125868    1.995190   -1.352157
     33          1           0       -4.735396   -0.025346   -0.187833
     34          1           0       -3.479359   -0.405551   -1.372063
     35          1           0       -3.945690   -1.990038    1.223692
     36          1           0       -4.480702   -2.488878   -0.388445
     37          1           0       -2.753339   -2.371646   -0.036781
     38          1           0        0.458418    1.757435    0.679392
     39          1           0        2.041301    2.210536    0.551796
 ---------------------------------------------------------------------

 SCF Done:  E(UB3LYP) =  -765.028953913     A.U. after   33 cycles
 SCF Done:  E(UB3LYP) =  -765.028953913     a.u. after    1 cycles

 The electronic state is 2-A.
 Alpha  occ. eigenvalues --  -18.98944 -14.28802 -14.25129 -14.23432 -14.21899
 Alpha  occ. eigenvalues --  -10.17910 -10.12226 -10.11141 -10.10803 -10.10544
 Alpha  occ. eigenvalues --  -10.09653 -10.08722 -10.08144 -10.07587 -10.07250
 Alpha  occ. eigenvalues --  -10.06768 -10.06563  -0.95499  -0.93917  -0.84509
 Alpha  occ. eigenvalues --   -0.81206  -0.73597  -0.71337  -0.68977  -0.66578
 Alpha  occ. eigenvalues --   -0.64568  -0.61642  -0.60662  -0.55361  -0.54355
 Alpha  occ. eigenvalues --   -0.52712  -0.49560  -0.49221  -0.44442  -0.42393
 Alpha  occ. eigenvalues --   -0.40843  -0.39242  -0.38986  -0.37213  -0.36913
 Alpha  occ. eigenvalues --   -0.36241  -0.35714  -0.34747  -0.33703  -0.33551
 Alpha  occ. eigenvalues --   -0.32890  -0.32576  -0.31512  -0.30615  -0.29255
 Alpha  occ. eigenvalues --   -0.28798  -0.27971  -0.27544  -0.26726  -0.25797
 Alpha  occ. eigenvalues --   -0.25682  -0.25553  -0.24594  -0.23477  -0.23214
 Alpha  occ. eigenvalues --   -0.20051  -0.16951  -0.15349  -0.14663  -0.11190
 Alpha  occ. eigenvalues --    0.03765
 Alpha virt. eigenvalues --    0.05281   0.06413   0.07113   0.07424   0.07871
 Alpha virt. eigenvalues --    0.08155   0.08701   0.09276   0.09702   0.09974
 Alpha virt. eigenvalues --    0.10505   0.11278   0.11694   0.11736   0.11950

  Beta  occ. eigenvalues --  -18.98944 -14.28772 -14.25129 -14.23416 -14.21852
  Beta  occ. eigenvalues --  -10.17908 -10.12220 -10.11123 -10.10803 -10.10535
  Beta  occ. eigenvalues --  -10.09656 -10.08688 -10.08124 -10.07581 -10.07244
  Beta  occ. eigenvalues --  -10.06718 -10.06552  -0.95470  -0.93910  -0.84503
  Beta  occ. eigenvalues --   -0.81145  -0.73563  -0.71314  -0.68922  -0.66556
  Beta  occ. eigenvalues --   -0.64514  -0.61611  -0.60642  -0.55330  -0.54253
  Beta  occ. eigenvalues --   -0.52680  -0.49532  -0.49158  -0.44400  -0.42365
  Beta  occ. eigenvalues --   -0.40813  -0.39220  -0.38915  -0.37188  -0.36864
  Beta  occ. eigenvalues --   -0.36210  -0.35680  -0.34725  -0.33666  -0.33528
  Beta  occ. eigenvalues --   -0.32868  -0.32537  -0.31493  -0.30596  -0.29207
  Beta  occ. eigenvalues --   -0.28774  -0.27929  -0.27522  -0.26680  -0.25781
  Beta  occ. eigenvalues --   -0.25632  -0.25532  -0.24569  -0.23445  -0.23174
  Beta  occ. eigenvalues --   -0.20021  -0.16934  -0.15340  -0.14637  -0.11137
  Beta virt. eigenvalues --    0.05718   0.06472   0.06981   0.07382   0.07894
  Beta virt. eigenvalues --    0.08075   0.08410   0.09074   0.09653   0.09919
  Beta virt. eigenvalues --    0.10264   0.10767   0.11570   0.11919   0.11975

 Mulliken charges and spin densities:
               1          2
     1  C    1.150605  -1.673891
     2  C   -1.996885   1.625902
     3  C   -0.487625   1.016840
     4  C    1.348952  -1.657749
     5  C    1.414306  -1.879229
     6  N   -0.248745   0.319403
     7  N   -0.047278  -0.207962
     8  C   -0.183971  -0.122741
     9  O   -0.178643   0.007981
    10  N    0.133653   0.077338
    11  C    0.103989  -0.511961
    12  C    0.044883   0.035845
    13  C   -0.034237  -0.397759
    14  C   -0.169385  -0.302015
    15  C   -0.283256   0.098812
    16  C   -0.180164  -0.342893
    17  N   -0.365936   0.040822
    18  H   -0.138437   0.280635
    19  H   -0.501886   0.654673
    20  H   -0.139686   0.275292
    21  H   -0.594971   0.741422
    22  H   -0.168317   0.352598
    23  H    0.062636   0.265835
    24  H   -0.086673   0.290319
    25  H    0.113946   0.036877
    26  H    0.091479   0.102739
    27  H   -0.110626   0.293342
    28  H   -0.056374   0.189896
    29  H   -0.192099   0.348579
    30  H    0.135629   0.015348
    31  H   -0.200417   0.350996
    32  H    0.170744  -0.010029
    33  H   -0.063209   0.209499
    34  H    0.172270  -0.004705
    35  H    0.026547   0.089375
    36  H    0.113700   0.021637
    37  H    0.211643  -0.017426
    38  H    0.415206  -0.160720
    39  H   -0.281368   0.547077
 Sum of Mulliken charges =  -1.00000   1.00000

 Dipole moment (field-independent basis, Debye):
    X=             -6.8335    Y=             -2.2789    Z=              0.7121  Tot=              7.2386
 Quadrupole moment (field-independent basis, Debye-Ang):
   XX=           -203.2266   YY=           -149.8580   ZZ=           -139.7785
   XY=             -1.7131   XZ=             -1.4961   YZ=             -6.2744

 Summary of Natural Population Analysis:

                                       Natural Population
                Natural  -----------------------------------------------
    Atom  No    Charge         Core      Valence    Rydberg      Total
 -----------------------------------------------------------------------
      C    1   -0.27694      0.99966     2.27303    0.00424     3.27694
      C    2   -0.20815      0.99962     2.19948    0.00906     3.20815
      C    3    0.05903      0.99948     1.92812    0.01337     2.94097
      C    4    0.03972      0.99937     1.94878    0.01213     2.96028
      C    5    0.00303      0.99947     1.98116    0.01633     2.99697
      N    6   -0.13886      0.99971     2.62689    0.01226     3.63886
      N    7   -0.15769      0.99966     2.64571    0.01233     3.65769
      C    8    0.33284      0.99957     1.64352    0.02406     2.66716
      O    9   -0.31413      0.99988     3.30919    0.00506     4.31413
      N   10   -0.26505      0.99965     2.75345    0.01195     3.76505
      C   11   -0.17541      0.99962     2.16817    0.00762     3.17541
      C   12    0.00262      0.99956     1.98360    0.01422     2.99738
      C   13   -0.18967      0.99961     2.18158    0.00848     3.18967
      C   14   -0.28741      0.99966     2.28173    0.00602     3.28741
      C   15   -0.19833      0.99961     2.19060    0.00812     3.19833
      C   16   -0.28548      0.99966     2.28150    0.00432     3.28548
      N   17   -0.40358      0.99973     2.89345    0.01040     3.90358
      H   18    0.09706      0.00000     0.40141    0.00153     0.40294
      H   19    0.10037      0.00000     0.39761    0.00202     0.39963
      H   20    0.09727      0.00000     0.40102    0.00170     0.40273
      H   21    0.10451      0.00000     0.39299    0.00250     0.39549
      H   22    0.10846      0.00000     0.38993    0.00161     0.39154
      H   23    0.19839      0.00000     0.29908    0.00253     0.30161
      H   24    0.09678      0.00000     0.40223    0.00099     0.40322
      H   25    0.09163      0.00000     0.40743    0.00094     0.40837
      H   26    0.11114      0.00000     0.38776    0.00110     0.38886
      H   27    0.09547      0.00000     0.40282    0.00171     0.40453
      H   28    0.09567      0.00000     0.40323    0.00110     0.40433
      H   29    0.09655      0.00000     0.40192    0.00152     0.40345
      H   30    0.10085      0.00000     0.39833    0.00083     0.39915
      H   31    0.09692      0.00000     0.40232    0.00076     0.40308
      H   32    0.10074      0.00000     0.39809    0.00116     0.39926
      H   33    0.09300      0.00000     0.40601    0.00099     0.40700
      H   34    0.11259      0.00000     0.38624    0.00116     0.38741
      H   35    0.09154      0.00000     0.40755    0.00091     0.40846
      H   36    0.09688      0.00000     0.40244    0.00068     0.40312
      H   37    0.10464      0.00000     0.39442    0.00094     0.39536
      H   38    0.18490      0.00000     0.31240    0.00271     0.31510
      H   39    0.18808      0.00000     0.30953    0.00239     0.31192
 =======================================================================
   * Total *   -0.00000     16.99351    47.79474    0.21175    65.00000

 Normal termination of Gaussian 16 at Fri Dec 11 13:44:18 2020.
