 Gaussian 16, Revision A.03,

 -----------------------------------------------------------
 # opt freq B3LYP/6-31G(d) empiricaldispersion=gd3bj scf=xqc
 -----------------------------------------------------------

 ------------------------------
 CID_69068218_JID_5238_neutraal
 ------------------------------
 Symbolic Z-matrix:
 Charge =  0 Multiplicity = 1

 SCF Done:  E(RB3LYP) =  -989.496192509     A.U. after   15 cycles
 SCF Done:  E(RB3LYP) =  -989.503981251     A.U. after   13 cycles
 SCF Done:  E(RB3LYP) =  -989.500326605     A.U. after   15 cycles
 SCF Done:  E(RB3LYP) =  -989.504483806     A.U. after   13 cycles
 SCF Done:  E(RB3LYP) =  -989.505585425     A.U. after   14 cycles
 SCF Done:  E(RB3LYP) =  -989.506346775     A.U. after   12 cycles
 SCF Done:  E(RB3LYP) =  -989.506659235     A.U. after   12 cycles
 SCF Done:  E(RB3LYP) =  -989.506802562     A.U. after   11 cycles
 SCF Done:  E(RB3LYP) =  -989.506852809     A.U. after   10 cycles
 SCF Done:  E(RB3LYP) =  -989.506877481     A.U. after   10 cycles
 SCF Done:  E(RB3LYP) =  -989.506883168     A.U. after    9 cycles
 SCF Done:  E(RB3LYP) =  -989.506886006     A.U. after    9 cycles
 SCF Done:  E(RB3LYP) =  -989.506887411     A.U. after    8 cycles
 SCF Done:  E(RB3LYP) =  -989.506887724     A.U. after    7 cycles
 Optimization completed.
    -- Stationary point found.
 Normal termination of Gaussian 16 at Thu Dec 10 14:54:01 2020.

 --------------------------------------------------------------------
 #N Geom=AllCheck Guess=TCheck SCRF=Check GenChk RB3LYP/6-31G(d) Freq
 --------------------------------------------------------------------

 Structure from the checkpoint file:  "JID_5238.chk"
 ------------------------------
 CID_69068218_JID_5238_neutraal
 ------------------------------
 Charge =  0 Multiplicity = 1

 SCF Done:  E(RB3LYP) =  -989.506887724     A.U. after    1 cycles

  Exact polarizability: 180.232 -34.473 145.814  23.476  17.853 113.581
 Approx polarizability: 270.553 -69.305 247.935  49.428  43.911 204.689

                      1                      2                      3
                      A                      A                      A
 Frequencies --     32.3582                49.6118                71.5883
 Red. masses --      5.4464                 4.6798                 3.9728
 Frc consts  --      0.0034                 0.0068                 0.0120
 IR Inten    --      0.3271                 0.8234                 1.7979

                      4                      5                      6
                      A                      A                      A
 Frequencies --    114.7889               134.7217               177.5503
 Red. masses --      5.0275                 4.3755                 5.5701
 Frc consts  --      0.0390                 0.0468                 0.1035
 IR Inten    --     10.6277                 0.1681                 3.6496

                      7                      8                      9
                      A                      A                      A
 Frequencies --    201.2837               252.0081               311.2839
 Red. masses --      5.1498                 2.8788                 3.4781
 Frc consts  --      0.1229                 0.1077                 0.1986
 IR Inten    --      0.4908                 6.9196                 7.5892

                     10                     11                     12
                      A                      A                      A
 Frequencies --    328.2762               346.1630               389.0875
 Red. masses --      1.2171                 2.2591                 4.2018
 Frc consts  --      0.0773                 0.1595                 0.3748
 IR Inten    --     15.0214                18.7158                 0.1382

                     13                     14                     15
                      A                      A                      A
 Frequencies --    415.2417               428.1897               442.6037
 Red. masses --      2.1691                 1.4347                 3.3861
 Frc consts  --      0.2204                 0.1550                 0.3908
 IR Inten    --     26.9602                40.0747                 0.9701

                     16                     17                     18
                      A                      A                      A
 Frequencies --    473.9777               479.9032               500.9115
 Red. masses --      4.3553                 1.2438                 8.5437
 Frc consts  --      0.5765                 0.1688                 1.2630
 IR Inten    --      2.5076               186.1258                 1.9499

                     19                     20                     21
                      A                      A                      A
 Frequencies --    512.0631               560.3605               587.2328
 Red. masses --      2.8311                 3.5785                 3.2739
 Frc consts  --      0.4374                 0.6621                 0.6652
 IR Inten    --     13.2446                 1.7728                15.5808

                     22                     23                     24
                      A                      A                      A
 Frequencies --    608.5432               639.0323               654.0378
 Red. masses --      3.0503                 3.7168                 2.5272
 Frc consts  --      0.6655                 0.8943                 0.6369
 IR Inten    --     20.1285                 8.6612                50.0658

                     25                     26                     27
                      A                      A                      A
 Frequencies --    667.1948               721.1164               735.8109
 Red. masses --      5.9076                 6.5957                 3.4332
 Frc consts  --      1.5494                 2.0208                 1.0952
 IR Inten    --      4.5890                 2.3680                 7.8331

                     28                     29                     30
                      A                      A                      A
 Frequencies --    760.1330               788.8768               837.6561
 Red. masses --      1.2903                 1.9878                 1.4014
 Frc consts  --      0.4393                 0.7289                 0.5794
 IR Inten    --     25.6170               312.8500                 4.6261

                     31                     32                     33
                      A                      A                      A
 Frequencies --    858.9729               873.1160               875.6064
 Red. masses --      2.5892                 1.4750                 4.1898
 Frc consts  --      1.1256                 0.6625                 1.8926
 IR Inten    --     12.5489                 4.3486                 0.1866

                     34                     35                     36
                      A                      A                      A
 Frequencies --    937.0889               939.3888               961.6950
 Red. masses --      2.0011                 1.8558                 2.1162
 Frc consts  --      1.0353                 0.9649                 1.1531
 IR Inten    --      0.7203                 3.6962                 0.7260

                     37                     38                     39
                      A                      A                      A
 Frequencies --    979.9874              1046.0735              1056.6626
 Red. masses --      1.2551                 2.4182                 2.1619
 Frc consts  --      0.7102                 1.5591                 1.4222
 IR Inten    --      0.0054                 5.3888                 1.4251

                     40                     41                     42
                      A                      A                      A
 Frequencies --   1070.3554              1080.3497              1103.8388
 Red. masses --      2.3690                 4.3078                 1.3936
 Frc consts  --      1.5991                 2.9624                 1.0005
 IR Inten    --     20.0998                12.2600                 7.1022

                     43                     44                     45
                      A                      A                      A
 Frequencies --   1144.6709              1164.3791              1191.3401
 Red. masses --      2.4087                 1.5328                 1.1871
 Frc consts  --      1.8595                 1.2244                 0.9927
 IR Inten    --     17.4819                 5.0493                 2.9632

                     46                     47                     48
                      A                      A                      A
 Frequencies --   1203.9291              1222.9400              1264.1909
 Red. masses --      1.2581                 1.4508                 1.7147
 Frc consts  --      1.0744                 1.2784                 1.6146
 IR Inten    --      2.6133                 2.3491                 8.3310

                     49                     50                     51
                      A                      A                      A
 Frequencies --   1293.3863              1304.6761              1348.3595
 Red. masses --      1.6200                 1.4294                 2.2038
 Frc consts  --      1.5967                 1.4335                 2.3606
 IR Inten    --      1.6410                 3.6826                 9.1097

                     52                     53                     54
                      A                      A                      A
 Frequencies --   1356.5284              1385.3592              1394.4470
 Red. masses --      1.6404                 2.8447                 1.3960
 Frc consts  --      1.7785                 3.2167                 1.5993
 IR Inten    --      7.3680                 2.2151                21.7445

                     55                     56                     57
                      A                      A                      A
 Frequencies --   1427.8100              1485.0085              1504.8641
 Red. masses --      3.4137                 2.3570                 1.1573
 Frc consts  --      4.1003                 3.0624                 1.5441
 IR Inten    --    115.1113                19.2997                 8.6025

                     58                     59                     60
                      A                      A                      A
 Frequencies --   1507.9343              1542.6040              1601.1770
 Red. masses --      2.4732                 1.1104                 5.3342
 Frc consts  --      3.3134                 1.5569                 8.0575
 IR Inten    --      9.5527                11.6632                 2.6300

                     61                     62                     63
                      A                      A                      A
 Frequencies --   1633.8128              1654.3828              1660.2551
 Red. masses --      6.5557                 5.8960                 1.2318
 Frc consts  --     10.3104                 9.5078                 2.0005
 IR Inten    --      4.4110                 0.1785                82.6103

                     64                     65                     66
                      A                      A                      A
 Frequencies --   1682.0849              1755.4303              2989.7359
 Red. masses --      1.1851                 4.7948                 1.0672
 Frc consts  --      1.9755                 8.7053                 5.6201
 IR Inten    --     36.5382               330.3942                49.0538

                     67                     68                     69
                      A                      A                      A
 Frequencies --   3049.8894              3060.8709              3106.1836
 Red. masses --      1.0772                 1.0784                 1.1027
 Frc consts  --      5.9038                 5.9529                 6.2683
 IR Inten    --     10.1134                95.0093                15.1380

                     70                     71                     72
                      A                      A                      A
 Frequencies --   3185.1479              3193.8501              3203.6570
 Red. masses --      1.0856                 1.0885                 1.0933
 Frc consts  --      6.4893                 6.5417                 6.6114
 IR Inten    --      1.5344                 4.0193                24.2623

                     73                     74                     75
                      A                      A                      A
 Frequencies --   3214.0127              3223.1916              3521.8336
 Red. masses --      1.0972                 1.0930                 1.0493
 Frc consts  --      6.6780                 6.6901                 7.6682
 IR Inten    --     26.1841                 4.7643                 6.9602

                     76                     77                     78
                      A                      A                      A
 Frequencies --   3580.6822              3630.8012              3686.5715
 Red. masses --      1.0472                 1.0951                 1.1012
 Frc consts  --      7.9109                 8.5057                 8.8182
 IR Inten    --     56.9023                15.3788                59.9474

 - Thermochemistry -
 -------------------
 Temperature   298.150 Kelvin.  Pressure   1.00000 Atm.
 Atom     1 has atomic number  6 and mass  12.00000

 Molecular mass:   219.08302 amu.
 Principal axes and moments of inertia in atomic units:
                           1         2         3
     Eigenvalues --  1990.234434610.572895466.58592
           X            0.99982  -0.01816   0.00582
           Y            0.01815   0.99983   0.00214
           Z           -0.00585  -0.00203   0.99998
 This molecule is an asymmetric top.
 Rotational symmetry number  1.
 Warning -- assumption of classical behavior for rotation
           may cause significant error
 Rotational temperatures (Kelvin)      0.04352     0.01879     0.01584
 Rotational constants (GHZ):           0.90680     0.39144     0.33014
 Zero-point vibrational energy     600410.2 (Joules/Mol)
                                  143.50147 (Kcal/Mol)
 Warning -- explicit consideration of  22 degrees of freedom as
           vibrations may cause significant error
 Vibrational temperatures:     46.56    71.38   103.00   165.16   193.83
          (Kelvin)            255.46   289.60   362.58   447.87   472.32
                              498.05   559.81   597.44   616.07   636.81
                              681.95   690.47   720.70   736.74   806.23
                              844.90   875.56   919.42   941.01   959.94
                             1037.53  1058.67  1093.66  1135.02  1205.20
                             1235.87  1256.22  1259.80  1348.26  1351.57
                             1383.66  1409.98  1505.07  1520.30  1540.00
                             1554.38  1588.18  1646.93  1675.28  1714.07
                             1732.19  1759.54  1818.89  1860.89  1877.14
                             1939.99  1951.74  1993.22  2006.30  2054.30
                             2136.60  2165.16  2169.58  2219.46  2303.74
                             2350.69  2380.29  2388.74  2420.14  2525.67
                             4301.56  4388.11  4403.91  4469.11  4582.72
                             4595.24  4609.35  4624.25  4637.45  5067.13
                             5151.80  5223.91  5304.15

 Zero-point correction=                           0.228684 (Hartree/Particle)
 Thermal correction to Energy=                    0.242325
 Thermal correction to Enthalpy=                  0.243269
 Thermal correction to Gibbs Free Energy=         0.187765
 Sum of electronic and zero-point Energies=           -989.278204
 Sum of electronic and thermal Energies=              -989.264563
 Sum of electronic and thermal Enthalpies=            -989.263619
 Sum of electronic and thermal Free Energies=         -989.319123

                     E (Thermal)             CV                S
                      KCal/Mol        Cal/Mol-Kelvin    Cal/Mol-Kelvin
 Total                  152.061             53.870            116.818
 Electronic               0.000              0.000              0.000
 Translational            0.889              2.981             42.056
 Rotational               0.889              2.981             32.284
 Vibrational            150.284             47.908             42.478
 Vibration     1          0.594              1.983              5.679
 Vibration     2          0.595              1.978              4.833
 Vibration     3          0.598              1.968              4.109
 Vibration     4          0.608              1.937              3.186
 Vibration     5          0.613              1.919              2.878
 Vibration     6          0.628              1.870              2.354
 Vibration     7          0.638              1.838              2.121
 Vibration     8          0.664              1.759              1.716
 Vibration     9          0.700              1.652              1.355
 Vibration    10          0.711              1.619              1.269
 Vibration    11          0.724              1.583              1.184
 Vibration    12          0.757              1.493              1.004
 Vibration    13          0.779              1.437              0.908
 Vibration    14          0.790              1.409              0.865
 Vibration    15          0.802              1.377              0.818
 Vibration    16          0.831              1.308              0.726
 Vibration    17          0.836              1.295              0.710
 Vibration    18          0.856              1.248              0.656
 Vibration    19          0.867              1.223              0.629
 Vibration    20          0.916              1.117              0.523
 Vibration    21          0.944              1.059              0.472
 Vibration    22          0.967              1.014              0.435

                           ! Non-Optimized Parameters !
 Normal termination of Gaussian 16 at Thu Dec 10 15:03:43 2020.

 ----------------------------------------------------------------------
 # B3LYP/6-311++G(d,p) empiricaldispersion=gd3bj scf=xqc pop=npa geom=c
 heck
 ----------------------------------------------------------------------

 --------------------------------------
 CID_69068218_JID_5238_Energie_neutraal
 --------------------------------------
 Structure from the checkpoint file:  "JID_5238.chk"
 Charge =  0 Multiplicity = 1

 SCF Done:  E(RB3LYP) =  -989.705027244     A.U. after   16 cycles
 Normal termination of Gaussian 16 at Thu Dec 10 15:08:36 2020.

 ----------------------------------------------------------------------
 # B3LYP/6-311++G(d,p) empiricaldispersion=gd3bj scf=xqc pop=npa geom=c
 heck
 ----------------------------------------------------------------------

 ------------------------------------
 CID_69068218_JID_5238_Energie_kation
 ------------------------------------
 Structure from the checkpoint file:  "JID_5238.chk"
 Charge =  1 Multiplicity = 2

 SCF Done:  E(UB3LYP) =  -989.418010588     A.U. after   31 cycles
 Normal termination of Gaussian 16 at Thu Dec 10 15:21:45 2020.
 Gaussian 16:  ES64L-G16RevA.03 25-Dec-2016

 ----------------------------------------------------------------------
 # B3LYP/6-311++G(d,p) empiricaldispersion=gd3bj scf=xqc pop=npa geom=c
 heck
 ----------------------------------------------------------------------

 -----------------------------------
 CID_69068218_JID_5238_Energie_anion
 -----------------------------------
 Structure from the checkpoint file:  "JID_5238.chk"
 Charge = -1 Multiplicity = 2

                         Standard orientation:
 ---------------------------------------------------------------------
 Center     Atomic      Atomic             Coordinates (Angstroms)
 Number     Number       Type             X           Y           Z
 ---------------------------------------------------------------------
      1          6           0       -3.456545    1.397938    0.502114
      2          6           0       -3.796176    0.557681   -0.572042
      3          6           0       -2.940659   -0.463650   -0.973883
      4          6           0       -1.736191   -0.628440   -0.287643
      5          6           0       -1.377020    0.204400    0.802045
      6          6           0       -2.261046    1.226839    1.187734
      7          6           0       -0.093982   -0.150107    1.350809
      8          6           0        0.506724   -1.198394    0.726859
      9         16           0       -0.486742   -1.828096   -0.598610
     10          6           0        1.894625   -1.715297    0.933499
     11          6           0        2.926048   -1.018268    0.006230
     12          7           0        3.027279    0.392660    0.300382
     13          6           0        2.419607    1.236785   -0.453343
     14          7           0        1.615672    0.965904   -1.551026
     15          7           0        2.648624    2.604968   -0.260646
     16          1           0       -4.139856    2.187848    0.800159
     17          1           0       -4.736577    0.704895   -1.094906
     18          1           0       -3.202751   -1.114339   -1.802762
     19          1           0       -2.003961    1.875359    2.020970
     20          1           0        0.377977    0.382594    2.168925
     21          1           0        2.186101   -1.520939    1.971067
     22          1           0        1.938538   -2.799498    0.773284
     23          1           0        3.901095   -1.483627    0.200081
     24          1           0        2.673727   -1.237325   -1.044424
     25          1           0        1.184743    1.757216   -2.006834
     26          1           0        1.028489    0.144779   -1.504281
     27          1           0        3.223917    2.745209    0.562589
     28          1           0        1.803100    3.165726   -0.221355
 ---------------------------------------------------------------------

 SCF Done:  E(UB3LYP) =  -989.695641424     A.U. after   33 cycles
 SCF Done:  E(UB3LYP) =  -989.695641424     a.u. after    1 cycles

 The electronic state is 2-A.
 Alpha  occ. eigenvalues --  -88.76109 -14.21557 -14.20895 -14.16356 -10.15911
 Alpha  occ. eigenvalues --  -10.09537 -10.08848 -10.08754 -10.07530 -10.06870
 Alpha  occ. eigenvalues --  -10.06776 -10.06304 -10.06001 -10.05955 -10.05819
 Alpha  occ. eigenvalues --   -7.84761  -5.81063  -5.80719  -5.80309  -0.86876
 Alpha  occ. eigenvalues --   -0.78115  -0.76351  -0.76188  -0.72019  -0.66127
 Alpha  occ. eigenvalues --   -0.65545  -0.60446  -0.59761  -0.54035  -0.49276
 Alpha  occ. eigenvalues --   -0.47825  -0.47420  -0.43993  -0.42711  -0.41644
 Alpha  occ. eigenvalues --   -0.39099  -0.37098  -0.36075  -0.35875  -0.34518
 Alpha  occ. eigenvalues --   -0.32993  -0.32268  -0.31178  -0.29637  -0.28625
 Alpha  occ. eigenvalues --   -0.28354  -0.26074  -0.25493  -0.24304  -0.23889
 Alpha  occ. eigenvalues --   -0.22489  -0.21660  -0.17707  -0.17246  -0.14482
 Alpha  occ. eigenvalues --   -0.13017  -0.12088  -0.11142   0.04581
 Alpha virt. eigenvalues --    0.06641   0.07206   0.07727   0.08211   0.08836
 Alpha virt. eigenvalues --    0.09406   0.09526   0.10174   0.10360   0.11081
 Alpha virt. eigenvalues --    0.11334   0.12712   0.12997   0.13212   0.13816

  Beta  occ. eigenvalues --  -88.76099 -14.21533 -14.20851 -14.16349 -10.15911
  Beta  occ. eigenvalues --  -10.09556 -10.08730 -10.08676 -10.07540 -10.06805
  Beta  occ. eigenvalues --  -10.06707 -10.06329 -10.05887 -10.05848 -10.05806
  Beta  occ. eigenvalues --   -7.84751  -5.81057  -5.80715  -5.80276  -0.86846
  Beta  occ. eigenvalues --   -0.77984  -0.76286  -0.76151  -0.71845  -0.66028
  Beta  occ. eigenvalues --   -0.65361  -0.60334  -0.59621  -0.53936  -0.49111
  Beta  occ. eigenvalues --   -0.47764  -0.47335  -0.43850  -0.42660  -0.41571
  Beta  occ. eigenvalues --   -0.39021  -0.37027  -0.36003  -0.35770  -0.34427
  Beta  occ. eigenvalues --   -0.32874  -0.32185  -0.31101  -0.29590  -0.28447
  Beta  occ. eigenvalues --   -0.28220  -0.25998  -0.25410  -0.24228  -0.23822
  Beta  occ. eigenvalues --   -0.22418  -0.21291  -0.17362  -0.17109  -0.14450
  Beta  occ. eigenvalues --   -0.12743  -0.11985  -0.10540
  Beta virt. eigenvalues --    0.06994   0.07272   0.07970   0.08427   0.08642
  Beta virt. eigenvalues --    0.09057   0.09656   0.09767   0.10226   0.10690
  Beta virt. eigenvalues --    0.11331   0.11702   0.12810   0.13117   0.13436

 Mulliken charges and spin densities:
               1          2
     1  C    0.682268  -1.089952
     2  C    0.633401  -0.768239
     3  C   -0.963429   1.005385
     4  C    0.006980   0.043541
     5  C    0.070747  -0.042301
     6  C   -0.864427   0.726644
     7  C    0.194617  -0.537968
     8  C    0.155321   0.415404
     9  S   -0.117564  -0.080757
    10  C    0.537057  -0.975872
    11  C   -0.192963  -0.188573
    12  N   -0.110309   0.032319
    13  C    0.400508  -0.741444
    14  N   -0.307191   0.003013
    15  N   -0.421848   0.171891
    16  H   -0.263894   0.411708
    17  H   -0.092017   0.223989
    18  H   -0.100364   0.241662
    19  H   -0.430613   0.576972
    20  H   -0.101542   0.272163
    21  H    0.044298   0.126714
    22  H    0.040744   0.104262
    23  H   -0.070709   0.235155
    24  H    0.130715   0.005821
    25  H    0.028378   0.229032
    26  H    0.289728  -0.077627
    27  H    0.061283   0.197095
    28  H   -0.239176   0.479962
 Sum of Mulliken charges =  -1.00000   1.00000

 Dipole moment (field-independent basis, Debye):
    X=             -0.1219    Y=             -4.5320    Z=             -1.2490  Tot=              4.7026
 Quadrupole moment (field-independent basis, Debye-Ang):
   XX=           -157.9058   YY=           -137.9182   ZZ=           -120.4133
   XY=             -0.8626   XZ=              1.9729   YZ=              0.3759

 Summary of Natural Population Analysis:

                                       Natural Population
                Natural  -----------------------------------------------
    Atom  No    Charge         Core      Valence    Rydberg      Total
 -----------------------------------------------------------------------
      C    1   -0.11362      0.99957     2.10315    0.01091     3.11362
      C    2   -0.08746      0.99957     2.07816    0.00973     3.08746
      C    3   -0.10191      0.99949     2.09203    0.01039     3.10191
      C    4   -0.09457      0.99940     2.08226    0.01291     3.09457
      C    5   -0.03661      0.99946     2.02577    0.01138     3.03661
      C    6   -0.07273      0.99952     2.06332    0.00989     3.07273
      C    7   -0.12170      0.99941     2.11126    0.01104     3.12170
      C    8   -0.05111      0.99947     2.03899    0.01265     3.05111
      S    9    0.16694      4.99941     2.81437    0.01928     7.83306
      C   10   -0.21008      0.99956     2.20081    0.00972     3.21008
      C   11   -0.08909      0.99961     2.07789    0.01159     3.08909
      N   12   -0.31212      0.99964     2.80088    0.01160     3.81212
      C   13    0.30388      0.99963     1.67949    0.01700     2.69612
      N   14   -0.41847      0.99970     2.90930    0.00948     3.91847
      N   15   -0.41008      0.99972     2.90031    0.01006     3.91008
      H   16    0.09830      0.00000     0.40073    0.00097     0.40170
      H   17    0.09574      0.00000     0.40341    0.00085     0.40426
      H   18    0.09879      0.00000     0.40023    0.00099     0.40121
      H   19    0.10001      0.00000     0.39828    0.00171     0.39999
      H   20    0.10864      0.00000     0.38949    0.00187     0.39136
      H   21    0.10827      0.00000     0.39018    0.00155     0.39173
      H   22    0.10097      0.00000     0.39764    0.00139     0.39903
      H   23    0.09084      0.00000     0.40751    0.00165     0.40916
      H   24    0.08135      0.00000     0.41666    0.00199     0.41865
      H   25    0.19188      0.00000     0.30635    0.00177     0.30812
      H   26    0.19712      0.00000     0.30012    0.00276     0.30288
      H   27    0.19012      0.00000     0.30720    0.00268     0.30988
      H   28    0.18674      0.00000     0.30849    0.00477     0.31326
 =======================================================================
   * Total *   -0.00000     18.99316    38.80427    0.20258    58.00000

 Normal termination of Gaussian 16 at Thu Dec 10 15:36:22 2020.
