 Gaussian 16, Revision A.03,

 -----------------------------------------------------------
 # opt freq B3LYP/6-31G(d) empiricaldispersion=gd3bj scf=xqc
 -----------------------------------------------------------

 -------------------------------
 CID_107588970_JID_8342_neutraal
 -------------------------------
 Symbolic Z-matrix:
 Charge =  0 Multiplicity = 1

 SCF Done:  E(RB3LYP) =  -831.622863111     A.U. after   15 cycles
 SCF Done:  E(RB3LYP) =  -831.635444331     A.U. after   13 cycles
 SCF Done:  E(RB3LYP) =  -831.636810858     A.U. after   12 cycles
 SCF Done:  E(RB3LYP) =  -831.637084750     A.U. after   12 cycles
 SCF Done:  E(RB3LYP) =  -831.637192656     A.U. after   12 cycles
 SCF Done:  E(RB3LYP) =  -831.637368246     A.U. after   11 cycles
 SCF Done:  E(RB3LYP) =  -831.637709106     A.U. after   13 cycles
 SCF Done:  E(RB3LYP) =  -831.637803830     A.U. after   15 cycles
 SCF Done:  E(RB3LYP) =  -831.638305598     A.U. after   12 cycles
 SCF Done:  E(RB3LYP) =  -831.639014219     A.U. after   14 cycles
 SCF Done:  E(RB3LYP) =  -831.639325857     A.U. after   10 cycles
 SCF Done:  E(RB3LYP) =  -831.639328847     A.U. after    8 cycles
 SCF Done:  E(RB3LYP) =  -831.639330579     A.U. after    9 cycles
 SCF Done:  E(RB3LYP) =  -831.639330764     A.U. after    7 cycles
 SCF Done:  E(RB3LYP) =  -831.639330988     A.U. after    8 cycles
 SCF Done:  E(RB3LYP) =  -831.639331050     A.U. after    7 cycles
 Optimization completed.
    -- Stationary point found.
 Normal termination of Gaussian 16 at Fri Dec 11 20:08:13 2020.

 --------------------------------------------------------------------
 #N Geom=AllCheck Guess=TCheck SCRF=Check GenChk RB3LYP/6-31G(d) Freq
 --------------------------------------------------------------------

 Structure from the checkpoint file:  "JID_8342.chk"
 -------------------------------
 CID_107588970_JID_8342_neutraal
 -------------------------------
 Charge =  0 Multiplicity = 1

 SCF Done:  E(RB3LYP) =  -831.639331050     A.U. after    1 cycles

  Exact polarizability: 241.644  -0.842 163.038  -1.698  -4.046  63.097
 Approx polarizability: 346.286   2.174 327.342  -3.320 -10.198 107.507

                      1                      2                      3
                      A                      A                      A
 Frequencies --     46.2423                51.8239                89.3745
 Red. masses --      6.9466                 5.6854                 6.1712
 Frc consts  --      0.0088                 0.0090                 0.0290
 IR Inten    --      0.8983                 0.7696                 0.5698

                      4                      5                      6
                      A                      A                      A
 Frequencies --    114.1922               163.3724               171.7059
 Red. masses --      8.5813                 8.9718                 4.9478
 Frc consts  --      0.0659                 0.1411                 0.0859
 IR Inten    --      0.6545                 2.4965                 6.6466

                      7                      8                      9
                      A                      A                      A
 Frequencies --    217.0889               236.7154               264.9422
 Red. masses --      4.7946                 4.4024                 4.5364
 Frc consts  --      0.1331                 0.1453                 0.1876
 IR Inten    --      0.9420                 1.7741                 7.8485

                     10                     11                     12
                      A                      A                      A
 Frequencies --    281.8353               312.9939               345.1327
 Red. masses --      7.5443                 1.3099                 5.3825
 Frc consts  --      0.3531                 0.0756                 0.3778
 IR Inten    --      7.0112               243.4544                31.6740

                     13                     14                     15
                      A                      A                      A
 Frequencies --    369.7409               414.8256               415.7839
 Red. masses --      7.2912                 4.9595                 4.1655
 Frc consts  --      0.5873                 0.5028                 0.4243
 IR Inten    --      1.7429                 2.4519                 0.9475

                     16                     17                     18
                      A                      A                      A
 Frequencies --    456.3527               502.4826               513.1257
 Red. masses --      4.9669                 5.3864                 5.0394
 Frc consts  --      0.6094                 0.8013                 0.7818
 IR Inten    --      1.1821                 2.2599                 7.4144

                     19                     20                     21
                      A                      A                      A
 Frequencies --    542.9431               564.7591               575.7288
 Red. masses --      1.8265                 5.6022                 1.8212
 Frc consts  --      0.3172                 1.0528                 0.3557
 IR Inten    --     40.5419                 4.6960                17.3079

                     22                     23                     24
                      A                      A                      A
 Frequencies --    637.1144               643.9067               682.5456
 Red. masses --      8.8970                10.4492                 4.6180
 Frc consts  --      2.1278                 2.5526                 1.2676
 IR Inten    --     12.8986                20.1205                 5.8933

                     25                     26                     27
                      A                      A                      A
 Frequencies --    694.2354               733.5414               741.9443
 Red. masses --      7.6267                 4.7908                 2.7249
 Frc consts  --      2.1657                 1.5188                 0.8838
 IR Inten    --     17.2374                 3.2031                 6.6861

                     28                     29                     30
                      A                      A                      A
 Frequencies --    747.5799               764.7301               811.5920
 Red. masses --      4.2030                 4.6539                 1.9189
 Frc consts  --      1.3840                 1.6036                 0.7447
 IR Inten    --     54.3634                 1.5132                23.6823

                     31                     32                     33
                      A                      A                      A
 Frequencies --    851.2537               888.0844               892.8828
 Red. masses --      9.6336                 5.5942                 1.4096
 Frc consts  --      4.1130                 2.5995                 0.6621
 IR Inten    --     37.3128                20.9503                 0.1662

                     34                     35                     36
                      A                      A                      A
 Frequencies --    917.2262               971.8556               980.2512
 Red. masses --      1.9567                 1.3782                 1.2924
 Frc consts  --      0.9699                 0.7669                 0.7317
 IR Inten    --      6.7673                 0.6644                 0.2513

                     37                     38                     39
                      A                      A                      A
 Frequencies --    994.5559               996.0762              1055.6807
 Red. masses --      3.8746                 1.5037                 2.4888
 Frc consts  --      2.2581                 0.8790                 1.6342
 IR Inten    --     20.6799                 1.0232                33.2634

                     40                     41                     42
                      A                      A                      A
 Frequencies --   1062.2632              1097.3242              1121.1327
 Red. masses --      3.9381                 8.3099                 2.1150
 Frc consts  --      2.6182                 5.8954                 1.5663
 IR Inten    --      3.3661                75.4958                11.4214

                     43                     44                     45
                      A                      A                      A
 Frequencies --   1148.2653              1184.0416              1203.9032
 Red. masses --      2.8780                 2.7062                 1.1801
 Frc consts  --      2.2358                 2.2354                 1.0078
 IR Inten    --      7.1407                 4.7890                 5.9180

                     46                     47                     48
                      A                      A                      A
 Frequencies --   1231.2012              1260.4548              1268.0681
 Red. masses --      1.8710                 9.7385                 3.4457
 Frc consts  --      1.6710                 9.1159                 3.2645
 IR Inten    --     26.0584                 6.8068               153.0475

                     49                     50                     51
                      A                      A                      A
 Frequencies --   1299.9902              1379.6353              1394.9065
 Red. masses --      2.2001                 2.6322                 1.2077
 Frc consts  --      2.1906                 2.9519                 1.3845
 IR Inten    --      6.2254                56.1445                 3.9370

                     52                     53                     54
                      A                      A                      A
 Frequencies --   1397.7423              1442.4276              1482.0800
 Red. masses --      3.6869                 7.5636                 3.8459
 Frc consts  --      4.2439                 9.2718                 4.9773
 IR Inten    --    356.8747                55.3151               438.6999

                     55                     56                     57
                      A                      A                      A
 Frequencies --   1483.7844              1501.7202              1536.8643
 Red. masses --      2.1465                 3.1487                 2.8694
 Frc consts  --      2.7843                 4.1837                 3.9931
 IR Inten    --     11.2169                13.1239                50.5293

                     58                     59                     60
                      A                      A                      A
 Frequencies --   1609.0808              1637.4745              1640.1796
 Red. masses --      5.7010                 4.5927                 3.3637
 Frc consts  --      8.6967                 7.2555                 5.3315
 IR Inten    --     41.8004                12.2649                42.2262

                     61                     62                     63
                      A                      A                      A
 Frequencies --   1667.0319              1699.7992              1786.6009
 Red. masses --      2.3749                 2.9948                10.4488
 Frc consts  --      3.8886                 5.0981                19.6503
 IR Inten    --     29.7493               272.0860               419.0407

                     64                     65                     66
                      A                      A                      A
 Frequencies --   1845.3790              3188.0945              3198.3251
 Red. masses --     12.7241                 1.0878                 1.0906
 Frc consts  --     25.5299                 6.5143                 6.5731
 IR Inten    --    123.8262                 8.4111                33.5163

                     67                     68                     69
                      A                      A                      A
 Frequencies --   3206.7570              3228.6647              3229.3374
 Red. masses --      1.0927                 1.0923                 1.0928
 Frc consts  --      6.6203                 6.7087                 6.7147
 IR Inten    --     18.1760                 3.7370                 4.1665

                     70                     71                     72
                      A                      A                      A
 Frequencies --   3235.1215              3565.5231              3698.3641
 Red. masses --      1.0938                 1.0486                 1.1013
 Frc consts  --      6.7447                 7.8542                 8.8753
 IR Inten    --      3.3880                62.1573                53.0700

 - Thermochemistry -
 -------------------
 Temperature   298.150 Kelvin.  Pressure   1.00000 Atm.
 Atom     1 has atomic number  6 and mass  12.00000

 Molecular mass:   240.06473 amu.
 Principal axes and moments of inertia in atomic units:
                           1         2         3
     Eigenvalues --  1727.435506613.490958147.70330
           X            1.00000   0.00162  -0.00064
           Y           -0.00162   0.99999  -0.00436
           Z            0.00063   0.00436   0.99999
 This molecule is an asymmetric top.
 Rotational symmetry number  1.
 Warning -- assumption of classical behavior for rotation
           may cause significant error
 Rotational temperatures (Kelvin)      0.05014     0.01310     0.01063
 Rotational constants (GHZ):           1.04475     0.27289     0.22150
 Zero-point vibrational energy     499965.8 (Joules/Mol)
                                  119.49470 (Kcal/Mol)
 Warning -- explicit consideration of  21 degrees of freedom as
           vibrations may cause significant error
 Vibrational temperatures:     66.53    74.56   128.59   164.30   235.06
          (Kelvin)            247.05   312.34   340.58   381.19   405.50
                              450.33   496.57   531.97   596.84   598.22
                              656.59   722.96   738.27   781.17   812.56
                              828.35   916.67   926.44   982.03   998.85
                             1055.40  1067.49  1075.60  1100.28  1167.70
                             1224.76  1277.76  1284.66  1319.68  1398.28
                             1410.36  1430.94  1433.13  1518.89  1528.36
                             1578.80  1613.06  1652.10  1703.57  1732.15
                             1771.42  1813.51  1824.47  1870.40  1984.99
                             2006.96  2011.04  2075.33  2132.38  2134.83
                             2160.64  2211.20  2315.11  2355.96  2359.85
                             2398.49  2445.63  2570.52  2655.09  4586.96
                             4601.68  4613.81  4645.33  4646.30  4654.62
                             5129.99  5321.12

 Zero-point correction=                           0.190427 (Hartree/Particle)
 Thermal correction to Energy=                    0.204147
 Thermal correction to Enthalpy=                  0.205091
 Thermal correction to Gibbs Free Energy=         0.149472
 Sum of electronic and zero-point Energies=           -831.448904
 Sum of electronic and thermal Energies=              -831.435184
 Sum of electronic and thermal Enthalpies=            -831.434240
 Sum of electronic and thermal Free Energies=         -831.489859

                     E (Thermal)             CV                S
                      KCal/Mol        Cal/Mol-Kelvin    Cal/Mol-Kelvin
 Total                  128.104             53.758            117.060
 Electronic               0.000              0.000              0.000
 Translational            0.889              2.981             42.328
 Rotational               0.889              2.981             32.898
 Vibrational            126.327             47.797             41.834
 Vibration     1          0.595              1.979              4.972
 Vibration     2          0.596              1.977              4.747
 Vibration     3          0.602              1.957              3.674
 Vibration     4          0.607              1.938              3.196
 Vibration     5          0.623              1.887              2.510
 Vibration     6          0.626              1.877              2.417
 Vibration     7          0.646              1.815              1.983
 Vibration     8          0.656              1.785              1.827
 Vibration     9          0.671              1.737              1.629
 Vibration    10          0.681              1.707              1.523
 Vibration    11          0.701              1.649              1.346
 Vibration    12          0.724              1.585              1.188
 Vibration    13          0.742              1.534              1.081
 Vibration    14          0.778              1.438              0.910
 Vibration    15          0.779              1.436              0.906
 Vibration    16          0.815              1.347              0.777
 Vibration    17          0.858              1.245              0.652
 Vibration    18          0.868              1.221              0.626
 Vibration    19          0.898              1.155              0.559
 Vibration    20          0.921              1.108              0.514
 Vibration    21          0.932              1.084              0.493

                           ! Non-Optimized Parameters !
 Normal termination of Gaussian 16 at Fri Dec 11 20:17:10 2020.

 ----------------------------------------------------------------------
 # B3LYP/6-311++G(d,p) empiricaldispersion=gd3bj scf=xqc pop=npa geom=c
 heck
 ----------------------------------------------------------------------

 ---------------------------------------
 CID_107588970_JID_8342_Energie_neutraal
 ---------------------------------------
 Structure from the checkpoint file:  "JID_8342.chk"
 Charge =  0 Multiplicity = 1

 SCF Done:  E(RB3LYP) =  -831.863500059     A.U. after   15 cycles
 Normal termination of Gaussian 16 at Fri Dec 11 20:20:20 2020.

 ----------------------------------------------------------------------
 # B3LYP/6-311++G(d,p) empiricaldispersion=gd3bj scf=xqc pop=npa geom=c
 heck
 ----------------------------------------------------------------------

 -------------------------------------
 CID_107588970_JID_8342_Energie_kation
 -------------------------------------
 Structure from the checkpoint file:  "JID_8342.chk"
 Charge =  1 Multiplicity = 2

 SCF Done:  E(UB3LYP) =  -831.558558255     A.U. after   25 cycles
 Normal termination of Gaussian 16 at Fri Dec 11 20:27:36 2020.
 Gaussian 16:  ES64L-G16RevA.03 25-Dec-2016

 ----------------------------------------------------------------------
 # B3LYP/6-311++G(d,p) empiricaldispersion=gd3bj scf=xqc pop=npa geom=c
 heck
 ----------------------------------------------------------------------

 ------------------------------------
 CID_107588970_JID_8342_Energie_anion
 ------------------------------------
 Structure from the checkpoint file:  "JID_8342.chk"
 Charge = -1 Multiplicity = 2

                         Standard orientation:
 ---------------------------------------------------------------------
 Center     Atomic      Atomic             Coordinates (Angstroms)
 Number     Number       Type             X           Y           Z
 ---------------------------------------------------------------------
      1          6           0        3.946957   -1.238102   -0.139829
      2          6           0        2.689733   -1.871563   -0.185954
      3          6           0        1.585962   -1.047952   -0.086655
      4          6           0        1.699908    0.337314    0.054475
      5          6           0        2.943415    0.982153    0.111840
      6          6           0        4.078782    0.138543    0.003617
      7          7           0        3.031267    2.330756    0.297683
      8          6           0        0.363317    0.933164    0.095431
      9          8           0        0.060574    2.112968    0.187584
     10          7           0       -0.552459   -0.147864   -0.006265
     11          6           0        0.136854   -1.388699   -0.119204
     12          8           0       -0.388268   -2.475847   -0.221344
     13          6           0       -1.958034   -0.011969   -0.003689
     14          6           0       -2.591928    1.065784   -0.631452
     15          7           0       -3.920561    1.201073   -0.625770
     16          6           0       -4.611050    0.244668    0.002541
     17          7           0       -4.113551   -0.826752    0.627504
     18          6           0       -2.783682   -0.949405    0.626748
     19          1           0        4.848040   -1.839621   -0.217096
     20          1           0        2.589560   -2.945046   -0.297175
     21          1           0        5.069517    0.583736    0.040029
     22          1           0        3.898764    2.805394    0.100065
     23          1           0        2.174201    2.865760    0.227432
     24          1           0       -2.015612    1.835139   -1.133819
     25          1           0       -5.693511    0.349467    0.005422
     26          1           0       -2.363685   -1.815900    1.125944
 ---------------------------------------------------------------------

 SCF Done:  E(UB3LYP) =  -831.908706072     A.U. after   21 cycles

 The electronic state is 2-A.
 Alpha  occ. eigenvalues --  -18.95925 -18.95347 -14.23096 -14.21760 -14.21741
 Alpha  occ. eigenvalues --  -14.20773 -10.13323 -10.12904 -10.12461 -10.12285
 Alpha  occ. eigenvalues --  -10.11380 -10.11350 -10.09831 -10.04651 -10.03925
 Alpha  occ. eigenvalues --  -10.03856 -10.03244 -10.03051  -0.92280  -0.90148
 Alpha  occ. eigenvalues --   -0.88601  -0.82146  -0.81037  -0.78890  -0.72460
 Alpha  occ. eigenvalues --   -0.68627  -0.63099  -0.60847  -0.56074  -0.55976
 Alpha  occ. eigenvalues --   -0.52212  -0.50073  -0.47661  -0.44816  -0.42566
 Alpha  occ. eigenvalues --   -0.42092  -0.40185  -0.38296  -0.37607  -0.34351
 Alpha  occ. eigenvalues --   -0.33613  -0.32976  -0.31720  -0.31614  -0.31252
 Alpha  occ. eigenvalues --   -0.30286  -0.29079  -0.28890  -0.26513  -0.25457
 Alpha  occ. eigenvalues --   -0.24391  -0.23841  -0.21662  -0.20950  -0.20530
 Alpha  occ. eigenvalues --   -0.19437  -0.15965  -0.14550  -0.14429  -0.12374
 Alpha  occ. eigenvalues --   -0.11904  -0.09208   0.01506
 Alpha virt. eigenvalues --    0.06030   0.06788   0.07687   0.08707   0.09171
 Alpha virt. eigenvalues --    0.10630   0.11233   0.11508   0.11752   0.12833
 Alpha virt. eigenvalues --    0.13902   0.14423   0.14827   0.15173   0.15500

  Beta  occ. eigenvalues --  -18.95501 -18.94885 -14.23187 -14.21756 -14.21738
  Beta  occ. eigenvalues --  -14.20778 -10.13329 -10.12647 -10.12279 -10.12216
  Beta  occ. eigenvalues --  -10.11387 -10.11356 -10.09871 -10.04523 -10.03872
  Beta  occ. eigenvalues --  -10.03746 -10.03013 -10.02916  -0.91695  -0.89363
  Beta  occ. eigenvalues --   -0.88567  -0.81866  -0.81019  -0.78890  -0.72159
  Beta  occ. eigenvalues --   -0.68465  -0.62772  -0.60563  -0.55992  -0.55952
  Beta  occ. eigenvalues --   -0.51345  -0.49980  -0.47389  -0.44733  -0.42547
  Beta  occ. eigenvalues --   -0.41992  -0.40051  -0.38188  -0.37329  -0.34073
  Beta  occ. eigenvalues --   -0.33163  -0.32643  -0.31616  -0.31217  -0.30902
  Beta  occ. eigenvalues --   -0.30126  -0.28771  -0.28389  -0.25951  -0.24247
  Beta  occ. eigenvalues --   -0.23635  -0.23366  -0.21662  -0.20944  -0.20030
  Beta  occ. eigenvalues --   -0.18587  -0.15859  -0.14127  -0.12879  -0.11792
  Beta  occ. eigenvalues --   -0.11313  -0.08410
  Beta virt. eigenvalues --    0.06015   0.07025   0.07658   0.07938   0.08708
  Beta virt. eigenvalues --    0.09150   0.10632   0.11493   0.11653   0.11776
  Beta virt. eigenvalues --    0.12822   0.13913   0.14454   0.15150   0.15308

 Mulliken charges and spin densities:
               1          2
     1  C   -0.359459   0.103057
     2  C   -0.857781   0.027331
     3  C    0.715073   0.160271
     4  C    0.691137   0.121910
     5  C   -0.136845  -0.010869
     6  C   -0.308052   0.127709
     7  N   -0.357685   0.003061
     8  C   -0.100507   0.119398
     9  O   -0.431078   0.146530
    10  N    0.181758  -0.058024
    11  C   -0.639992   0.117141
    12  O   -0.400067   0.164273
    13  C   -0.539229  -0.001796
    14  C    0.147794  -0.001944
    15  N   -0.106764   0.002191
    16  C   -0.067391  -0.004279
    17  N   -0.103861   0.001764
    18  C    0.129632   0.000583
    19  H    0.115815  -0.008205
    20  H    0.137691   0.001032
    21  H    0.091220  -0.012539
    22  H    0.227263   0.000070
    23  H    0.282548  -0.001592
    24  H    0.249693   0.001528
    25  H    0.191739   0.000247
    26  H    0.247348   0.001151
 Sum of Mulliken charges =  -1.00000   1.00000

 Dipole moment (field-independent basis, Debye):
    X=              1.5789    Y=              2.3867    Z=             -0.2491  Tot=              2.8725
 Quadrupole moment (field-independent basis, Debye-Ang):
   XX=           -140.7576   YY=           -127.5078   ZZ=           -111.4423
   XY=              5.6238   XZ=             -1.3558   YZ=             -2.0844

 Summary of Natural Population Analysis:

                                       Natural Population
                Natural  -----------------------------------------------
    Atom  No    Charge         Core      Valence    Rydberg      Total
 -----------------------------------------------------------------------
      C    1   -0.07434      0.99962     2.06476    0.00996     3.07434
      C    2   -0.11579      0.99953     2.10662    0.00964     3.11579
      C    3    0.00090      0.99944     1.99112    0.00854     2.99910
      C    4   -0.06833      0.99942     2.05938    0.00954     3.06833
      C    5    0.10039      0.99934     1.88839    0.01187     2.89961
      C    6   -0.09617      0.99944     2.08788    0.00885     3.09617
      N    7   -0.39817      0.99967     2.88945    0.00904     3.89817
      C    8    0.37916      0.99961     1.60033    0.02090     2.62084
      O    9   -0.28349      0.99987     3.27752    0.00610     4.28349
      N   10   -0.28140      0.99960     2.77088    0.01092     3.78140
      C   11    0.37746      0.99964     1.60125    0.02165     2.62254
      O   12   -0.25772      0.99987     3.25208    0.00577     4.25772
      C   13    0.05900      0.99949     1.93195    0.00956     2.94100
      C   14    0.03672      0.99956     1.94964    0.01409     2.96328
      N   15   -0.24536      0.99972     2.73432    0.01132     3.74536
      C   16    0.11935      0.99967     1.86074    0.02023     2.88065
      N   17   -0.24502      0.99972     2.73401    0.01129     3.74502
      C   18    0.03763      0.99956     1.94870    0.01411     2.96237
      H   19    0.08878      0.00000     0.41005    0.00117     0.41122
      H   20    0.10126      0.00000     0.39751    0.00123     0.39874
      H   21    0.08513      0.00000     0.41206    0.00281     0.41487
      H   22    0.18095      0.00000     0.31748    0.00158     0.31905
      H   23    0.20536      0.00000     0.29293    0.00172     0.29464
      H   24    0.10693      0.00000     0.39185    0.00122     0.39307
      H   25    0.07915      0.00000     0.41963    0.00122     0.42085
      H   26    0.10768      0.00000     0.39110    0.00122     0.39232
 =======================================================================
   * Total *    0.00004     17.99279    43.78163    0.22554    61.99996

 Normal termination of Gaussian 16 at Fri Dec 11 20:33:41 2020.
