 Gaussian 16, Revision A.03,

 -----------------------------------------------------------
 # opt freq B3LYP/6-31G(d) empiricaldispersion=gd3bj scf=xqc
 -----------------------------------------------------------

 ------------------------------
 CID_11276642_JID_9555_neutraal
 ------------------------------
 Symbolic Z-matrix:
 Charge =  0 Multiplicity = 1

 SCF Done:  E(RB3LYP) =  -804.385733694     A.U. after   16 cycles
 SCF Done:  E(RB3LYP) =  -804.393339516     A.U. after   13 cycles
 SCF Done:  E(RB3LYP) =  -804.393892685     A.U. after   11 cycles
 SCF Done:  E(RB3LYP) =  -804.393955319     A.U. after   10 cycles
 SCF Done:  E(RB3LYP) =  -804.393961500     A.U. after    9 cycles
 Optimization completed.
    -- Stationary point found.
 Normal termination of Gaussian 16 at Mon Dec 14 13:14:28 2020.

 --------------------------------------------------------------------
 #N Geom=AllCheck Guess=TCheck SCRF=Check GenChk RB3LYP/6-31G(d) Freq
 --------------------------------------------------------------------

 Structure from the checkpoint file:  "JID_9555.chk"
 ------------------------------
 CID_11276642_JID_9555_neutraal
 ------------------------------
 Charge =  0 Multiplicity = 1

 SCF Done:  E(RB3LYP) =  -804.393961500     A.U. after    1 cycles

  Exact polarizability: 319.695 -10.278 198.010   0.001   0.000  56.023
 Approx polarizability: 484.622 -20.681 384.339   0.002   0.002  91.490

                      1                      2                      3
                      A                      A                      A
 Frequencies --     47.9081                73.2209               123.0393
 Red. masses --      5.5712                 5.1342                 5.0219
 Frc consts  --      0.0075                 0.0162                 0.0448
 IR Inten    --      1.4517                 0.0007                 0.8305

                      4                      5                      6
                      A                      A                      A
 Frequencies --    158.1653               165.6597               185.0510
 Red. masses --      4.9156                 5.4417                 5.4529
 Frc consts  --      0.0725                 0.0880                 0.1100
 IR Inten    --      0.2814                 0.6421                 0.4634

                      7                      8                      9
                      A                      A                      A
 Frequencies --    250.1862               274.5059               327.6894
 Red. masses --      4.9087                 6.5788                 4.9079
 Frc consts  --      0.1810                 0.2921                 0.3105
 IR Inten    --      0.3964                 1.0214                 0.2074

                     10                     11                     12
                      A                      A                      A
 Frequencies --    343.8758               397.2734               427.5843
 Red. masses --      7.8601                 6.5360                 3.3148
 Frc consts  --      0.5476                 0.6078                 0.3571
 IR Inten    --      5.6636                 0.0732                 1.1198

                     13                     14                     15
                      A                      A                      A
 Frequencies --    436.0490               460.1643               481.9935
 Red. masses --      3.5237                 6.3359                 4.0012
 Frc consts  --      0.3948                 0.7905                 0.5477
 IR Inten    --      0.5327                 6.5823                 1.6851

                     16                     17                     18
                      A                      A                      A
 Frequencies --    499.7566               549.3693               556.2372
 Red. masses --      7.9853                 7.4456                 3.5626
 Frc consts  --      1.1751                 1.3240                 0.6494
 IR Inten    --      0.7627                 1.0416                 1.8670

                     19                     20                     21
                      A                      A                      A
 Frequencies --    573.3332               580.5581               642.8347
 Red. masses --      7.8601                 3.4984                 7.5586
 Frc consts  --      1.5223                 0.6947                 1.8403
 IR Inten    --      0.9144                 9.6248                 8.7625

                     22                     23                     24
                      A                      A                      A
 Frequencies --    671.1436               673.6738               693.0247
 Red. masses --      6.6241                 4.4882                 3.4020
 Frc consts  --      1.7580                 1.2001                 0.9627
 IR Inten    --      5.0709                 4.2226                15.2974

                     25                     26                     27
                      A                      A                      A
 Frequencies --    694.0045               755.3873               765.1321
 Red. masses --      6.2444                 1.5962                 6.7013
 Frc consts  --      1.7720                 0.5366                 2.3115
 IR Inten    --      1.3141                 2.6487                 1.5922

                     28                     29                     30
                      A                      A                      A
 Frequencies --    779.0716               789.2081               793.8462
 Red. masses --      1.7652                 2.8678                 2.3882
 Frc consts  --      0.6312                 1.0524                 0.8867
 IR Inten    --     65.1018                 0.1954                 7.6433

                     31                     32                     33
                      A                      A                      A
 Frequencies --    819.0386               823.7246               884.8608
 Red. masses --      6.9640                 1.6368                 1.4569
 Frc consts  --      2.7524                 0.6544                 0.6721
 IR Inten    --      3.3226                35.0233                 0.0677

                     34                     35                     36
                      A                      A                      A
 Frequencies --    889.5966               895.0826               917.0688
 Red. masses --      1.5378                 6.1093                 5.3547
 Frc consts  --      0.7170                 2.8838                 2.6533
 IR Inten    --      1.6243                 0.2587                 1.9803

                     37                     38                     39
                      A                      A                      A
 Frequencies --    944.9140               966.9502               972.0661
 Red. masses --      1.2742                 1.3422                 1.3432
 Frc consts  --      0.6703                 0.7394                 0.7478
 IR Inten    --      0.2055                 2.2577                 0.2934

                     40                     41                     42
                      A                      A                      A
 Frequencies --    998.7641              1000.4365              1050.8409
 Red. masses --      1.2802                 1.2911                 5.2209
 Frc consts  --      0.7524                 0.7614                 3.3968
 IR Inten    --      0.0424                 0.0541                32.2033

                     43                     44                     45
                      A                      A                      A
 Frequencies --   1057.0793              1082.7298              1088.1619
 Red. masses --      2.7170                 2.1599                 4.0236
 Frc consts  --      1.7888                 1.4918                 2.8070
 IR Inten    --     47.8877                 0.6086                38.4494

                     46                     47                     48
                      A                      A                      A
 Frequencies --   1132.9771              1158.8940              1186.8365
 Red. masses --      2.9042                 1.6168                 1.3111
 Frc consts  --      2.1964                 1.2794                 1.0881
 IR Inten    --    110.7927                 3.5929                 8.3289

                     49                     50                     51
                      A                      A                      A
 Frequencies --   1193.5154              1202.7264              1235.5277
 Red. masses --      1.1565                 1.1611                 2.0307
 Frc consts  --      0.9706                 0.9896                 1.8264
 IR Inten    --      0.2573                 6.4947                25.2156

                     52                     53                     54
                      A                      A                      A
 Frequencies --   1259.1493              1272.1302              1293.3863
 Red. masses --      2.1935                 2.3539                 1.8543
 Frc consts  --      2.0490                 2.2444                 1.8277
 IR Inten    --      3.0233                23.4386                14.0632

                     55                     56                     57
                      A                      A                      A
 Frequencies --   1302.3177              1347.1452              1371.7606
 Red. masses --      2.2215                 2.3877                 7.4494
 Frc consts  --      2.2198                 2.5531                 8.2590
 IR Inten    --     38.4364                28.1675                48.6511

                     58                     59                     60
                      A                      A                      A
 Frequencies --   1400.5797              1422.5085              1440.3365
 Red. masses --      4.3925                 3.8440                 4.1609
 Frc consts  --      5.0767                 4.5829                 5.0859
 IR Inten    --     19.3613                30.9444                 2.3722

                     61                     62                     63
                      A                      A                      A
 Frequencies --   1475.4657              1498.3746              1520.5437
 Red. masses --      2.4434                 2.1823                 2.6971
 Frc consts  --      3.1341                 2.8867                 3.6740
 IR Inten    --      1.8023                 1.0003                 5.4089

                     64                     65                     66
                      A                      A                      A
 Frequencies --   1536.0971              1570.3853              1615.0747
 Red. masses --      2.8440                 3.3810                 6.3258
 Frc consts  --      3.9539                 4.9126                 9.7219
 IR Inten    --     71.7935                13.9697                 6.6031

                     67                     68                     69
                      A                      A                      A
 Frequencies --   1638.3231              1662.5316              1667.3756
 Red. masses --      7.5300                 5.6491                 5.7892
 Frc consts  --     11.9081                 9.1996                 9.4828
 IR Inten    --     13.3544                 1.5186                59.0019

                     70                     71                     72
                      A                      A                      A
 Frequencies --   1686.8802              1832.8394              3184.1691
 Red. masses --      6.6488                12.9680                 1.0867
 Frc consts  --     11.1471                25.6669                 6.4913
 IR Inten    --     11.4274               458.4367                 1.1737

                     73                     74                     75
                      A                      A                      A
 Frequencies --   3191.8165              3193.6534              3197.4011
 Red. masses --      1.0877                 1.0875                 1.0900
 Frc consts  --      6.5285                 6.5354                 6.5658
 IR Inten    --      4.7713                 7.8772                20.5322

                     76                     77                     78
                      A                      A                      A
 Frequencies --   3210.2251              3210.9151              3217.0900
 Red. masses --      1.0912                 1.0949                 1.0947
 Frc consts  --      6.6254                 6.6509                 6.6755
 IR Inten    --     26.7265                21.8545                 2.2626

                     79                     80                     81
                      A                      A                      A
 Frequencies --   3229.4006              3232.8231              3235.2907
 Red. masses --      1.0907                 1.0941                 1.0933
 Frc consts  --      6.7020                 6.7373                 6.7427
 IR Inten    --     21.8201                 9.0956                 5.0658

 - Thermochemistry -
 -------------------
 Temperature   298.150 Kelvin.  Pressure   1.00000 Atm.
 Atom     1 has atomic number  6 and mass  12.00000

 Molecular mass:   246.06808 amu.
 Principal axes and moments of inertia in atomic units:
                           1         2         3
     Eigenvalues --  1958.197846882.363758840.56158
           X            0.99997  -0.00780   0.00000
           Y            0.00780   0.99997  -0.00000
           Z           -0.00000   0.00000   1.00000
 This molecule is an asymmetric top.
 Rotational symmetry number  1.
 Warning -- assumption of classical behavior for rotation
           may cause significant error
 Rotational temperatures (Kelvin)      0.04423     0.01258     0.00980
 Rotational constants (GHZ):           0.92163     0.26223     0.20414
 Zero-point vibrational energy     583698.3 (Joules/Mol)
                                  139.50723 (Kcal/Mol)
 Warning -- explicit consideration of  20 degrees of freedom as
           vibrations may cause significant error
 Vibrational temperatures:     68.93   105.35   177.03   227.56   238.35
          (Kelvin)            266.25   359.96   394.95   471.47   494.76
                              571.59   615.20   627.38   662.07   693.48
                              719.04   790.42   800.30   824.90   835.29
                              924.90   965.63   969.27   997.11   998.52
                             1086.83  1100.85  1120.91  1135.49  1142.17
                             1178.41  1185.16  1273.12  1279.93  1287.82
                             1319.46  1359.52  1391.23  1398.59  1437.00
                             1439.41  1511.93  1520.90  1557.81  1565.62
                             1630.10  1667.39  1707.59  1717.20  1730.46
                             1777.65  1811.64  1830.31  1860.89  1873.74
                             1938.24  1973.66  2015.12  2046.67  2072.32
                             2122.87  2155.83  2187.72  2210.10  2259.43
                             2323.73  2357.18  2392.01  2398.98  2427.04
                             2637.05  4581.31  4592.31  4594.95  4600.35
                             4618.80  4619.79  4628.68  4646.39  4651.31
                             4654.86

 Zero-point correction=                           0.222319 (Hartree/Particle)
 Thermal correction to Energy=                    0.235259
 Thermal correction to Enthalpy=                  0.236203
 Thermal correction to Gibbs Free Energy=         0.182672
 Sum of electronic and zero-point Energies=           -804.171643
 Sum of electronic and thermal Energies=              -804.158703
 Sum of electronic and thermal Enthalpies=            -804.157759
 Sum of electronic and thermal Free Energies=         -804.211289

                     E (Thermal)             CV                S
                      KCal/Mol        Cal/Mol-Kelvin    Cal/Mol-Kelvin
 Total                  147.627             54.152            112.665
 Electronic               0.000              0.000              0.000
 Translational            0.889              2.981             42.402
 Rotational               0.889              2.981             33.143
 Vibrational            145.850             48.191             37.120
 Vibration     1          0.595              1.978              4.902
 Vibration     2          0.599              1.967              4.065
 Vibration     3          0.610              1.930              3.052
 Vibration     4          0.621              1.893              2.572
 Vibration     5          0.624              1.885              2.484
 Vibration     6          0.631              1.860              2.277
 Vibration     7          0.663              1.762              1.729
 Vibration     8          0.677              1.720              1.568
 Vibration     9          0.711              1.620              1.271
 Vibration    10          0.723              1.588              1.194
 Vibration    11          0.764              1.476              0.973
 Vibration    12          0.789              1.410              0.867
 Vibration    13          0.797              1.392              0.839
 Vibration    14          0.818              1.338              0.766
 Vibration    15          0.838              1.290              0.705
 Vibration    16          0.855              1.251              0.659
 Vibration    17          0.905              1.141              0.545
 Vibration    18          0.912              1.126              0.531
 Vibration    19          0.930              1.089              0.498
 Vibration    20          0.937              1.073              0.484

 Optimization completed.
    -- Stationary point found.
 Normal termination of Gaussian 16 at Mon Dec 14 13:28:46 2020.

 ----------------------------------------------------------------------
 # B3LYP/6-311++G(d,p) empiricaldispersion=gd3bj scf=xqc pop=npa geom=c
 heck
 ----------------------------------------------------------------------

 --------------------------------------
 CID_11276642_JID_9555_Energie_neutraal
 --------------------------------------
 Structure from the checkpoint file:  "JID_9555.chk"
 Charge =  0 Multiplicity = 1

 SCF Done:  E(RB3LYP) =  -804.593912792     A.U. after   16 cycles
 Normal termination of Gaussian 16 at Mon Dec 14 13:35:02 2020.

 ----------------------------------------------------------------------
 # B3LYP/6-311++G(d,p) empiricaldispersion=gd3bj scf=xqc pop=npa geom=c
 heck
 ----------------------------------------------------------------------

 ------------------------------------
 CID_11276642_JID_9555_Energie_kation
 ------------------------------------
 Structure from the checkpoint file:  "JID_9555.chk"
 Charge =  1 Multiplicity = 2

 SCF Done:  E(UB3LYP) =  -804.312647067     A.U. after   21 cycles
 Normal termination of Gaussian 16 at Mon Dec 14 13:46:54 2020.
 Gaussian 16:  ES64L-G16RevA.03 25-Dec-2016

 ----------------------------------------------------------------------
 # B3LYP/6-311++G(d,p) empiricaldispersion=gd3bj scf=xqc pop=npa geom=c
 heck
 ----------------------------------------------------------------------

 -----------------------------------
 CID_11276642_JID_9555_Energie_anion
 -----------------------------------
 Structure from the checkpoint file:  "JID_9555.chk"
 Charge = -1 Multiplicity = 2

                         Standard orientation:
 ---------------------------------------------------------------------
 Center     Atomic      Atomic             Coordinates (Angstroms)
 Number     Number       Type             X           Y           Z
 ---------------------------------------------------------------------
      1          6           0       -4.718775    0.068508    0.000038
      2          6           0       -4.087949    1.334073    0.000018
      3          6           0       -2.713793    1.430097   -0.000005
      4          6           0       -1.918270    0.257052   -0.000010
      5          6           0       -2.548933   -1.024465    0.000010
      6          6           0       -3.964241   -1.084100    0.000035
      7          6           0       -1.738053   -2.193981    0.000012
      8          6           0       -0.372518   -2.104181   -0.000010
      9          6           0        0.290549   -0.841633   -0.000046
     10          6           0       -0.495076    0.302347   -0.000040
     11          8           0        0.045134    1.560633   -0.000074
     12          6           0        1.404285    1.803215   -0.000173
     13          8           0        1.771320    2.954927    0.000162
     14          6           0        2.278351    0.620820   -0.000060
     15          6           0        3.664071    0.832135    0.000004
     16          6           0        4.532709   -0.248413    0.000054
     17          6           0        4.012417   -1.549821    0.000046
     18          6           0        2.641263   -1.767157   -0.000002
     19          6           0        1.741775   -0.685601   -0.000044
     20          1           0       -5.803270    0.008526    0.000056
     21          1           0       -4.692995    2.235887    0.000022
     22          1           0       -2.221478    2.395550   -0.000021
     23          1           0       -4.444042   -2.059368    0.000051
     24          1           0       -2.223002   -3.166095    0.000039
     25          1           0        0.219713   -3.012104    0.000009
     26          1           0        4.025328    1.854609   -0.000008
     27          1           0        5.606397   -0.088683    0.000092
     28          1           0        4.686978   -2.401373    0.000083
     29          1           0        2.267865   -2.784792    0.000003
 ---------------------------------------------------------------------

 SCF Done:  E(UB3LYP) =  -804.616735969     A.U. after   25 cycles

 The electronic state is 2-A.
 Alpha  occ. eigenvalues --  -19.03909 -18.96770 -10.16273 -10.10117 -10.06210
 Alpha  occ. eigenvalues --  -10.06110 -10.05733 -10.05631 -10.05590 -10.05495
 Alpha  occ. eigenvalues --  -10.05463 -10.05410 -10.05383 -10.05337 -10.05303
 Alpha  occ. eigenvalues --  -10.05050 -10.04631 -10.04558 -10.04464  -0.97852
 Alpha  occ. eigenvalues --   -0.89540  -0.75539  -0.74096  -0.70459  -0.65639
 Alpha  occ. eigenvalues --   -0.65245  -0.63617  -0.61223  -0.59946  -0.53400
 Alpha  occ. eigenvalues --   -0.52074  -0.50710  -0.49030  -0.47027  -0.43336
 Alpha  occ. eigenvalues --   -0.42216  -0.39951  -0.38785  -0.36447  -0.35354
 Alpha  occ. eigenvalues --   -0.34328  -0.34143  -0.32302  -0.31676  -0.31376
 Alpha  occ. eigenvalues --   -0.30531  -0.29770  -0.28780  -0.27634  -0.27540
 Alpha  occ. eigenvalues --   -0.25919  -0.25583  -0.23929  -0.23299  -0.22949
 Alpha  occ. eigenvalues --   -0.21852  -0.20539  -0.20500  -0.16648  -0.15025
 Alpha  occ. eigenvalues --   -0.14835  -0.14011  -0.11766  -0.09037   0.02911
 Alpha virt. eigenvalues --    0.07072   0.07732   0.08049   0.08130   0.08870
 Alpha virt. eigenvalues --    0.09741   0.10341   0.11481   0.12006   0.12067
 Alpha virt. eigenvalues --    0.12833   0.13633   0.14080   0.14846   0.15011

  Beta  occ. eigenvalues --  -19.03719 -18.96680 -10.16229 -10.09830 -10.06147
  Beta  occ. eigenvalues --  -10.06107 -10.05753 -10.05709 -10.05562 -10.05459
  Beta  occ. eigenvalues --  -10.05429 -10.05412 -10.05353 -10.05313 -10.05157
  Beta  occ. eigenvalues --  -10.04855 -10.04484 -10.04363 -10.04243  -0.97537
  Beta  occ. eigenvalues --   -0.89315  -0.75328  -0.73790  -0.70262  -0.65355
  Beta  occ. eigenvalues --   -0.64850  -0.63330  -0.61069  -0.59638  -0.53247
  Beta  occ. eigenvalues --   -0.51636  -0.50562  -0.48823  -0.46860  -0.43186
  Beta  occ. eigenvalues --   -0.42067  -0.39842  -0.38528  -0.36328  -0.35247
  Beta  occ. eigenvalues --   -0.34176  -0.33226  -0.32181  -0.31596  -0.31266
  Beta  occ. eigenvalues --   -0.30423  -0.29643  -0.28690  -0.27533  -0.26974
  Beta  occ. eigenvalues --   -0.25804  -0.24715  -0.23821  -0.22862  -0.22503
  Beta  occ. eigenvalues --   -0.21721  -0.20372  -0.20037  -0.15746  -0.14686
  Beta  occ. eigenvalues --   -0.14055  -0.13177  -0.11232  -0.07952
  Beta virt. eigenvalues --    0.07639   0.07713   0.08023   0.08038   0.08257
  Beta virt. eigenvalues --    0.08848   0.09714   0.10320   0.11457   0.11993
  Beta virt. eigenvalues --    0.13063   0.13236   0.13607   0.14054   0.15019

 Mulliken charges and spin densities:
               1          2
     1  C   -0.335569   0.159177
     2  C   -0.402715  -0.057816
     3  C   -0.393952   0.155292
     4  C    0.456288  -0.027815
     5  C    0.352475   0.052973
     6  C   -0.362384   0.002226
     7  C   -0.857304   0.005435
     8  C   -0.884321   0.007865
     9  C    1.165742  -0.006330
    10  C   -0.683952   0.184409
    11  O   -0.104629   0.050109
    12  C    0.370795   0.009437
    13  O   -0.357436   0.032423
    14  C    0.381672   0.172563
    15  C   -0.461290  -0.033209
    16  C   -0.485042   0.112970
    17  C   -0.357776   0.125462
    18  C   -0.448430  -0.043414
    19  C    1.330571   0.133191
    20  H    0.111620  -0.012206
    21  H    0.129974   0.004144
    22  H    0.155585  -0.011721
    23  H    0.081553  -0.002830
    24  H    0.127552   0.000373
    25  H    0.037175   0.000681
    26  H    0.155767   0.002872
    27  H    0.111800  -0.010046
    28  H    0.135665  -0.010525
    29  H    0.030566   0.004309
 Sum of Mulliken charges =  -1.00000   1.00000

 Dipole moment (field-independent basis, Debye):
    X=             -1.2234    Y=             -4.0314    Z=             -0.0004  Tot=              4.2129
 Quadrupole moment (field-independent basis, Debye-Ang):
   XX=           -151.4586   YY=           -130.3314   ZZ=           -120.5535
   XY=             -5.2202   XZ=             -0.0007   YZ=             -0.0018

 Summary of Natural Population Analysis:

                                       Natural Population
                Natural  -----------------------------------------------
    Atom  No    Charge         Core      Valence    Rydberg      Total
 -----------------------------------------------------------------------
      C    1   -0.07463      0.99959     2.06501    0.01003     3.07463
      C    2   -0.12951      0.99958     2.12057    0.00936     3.12951
      C    3   -0.05132      0.99956     2.04222    0.00955     3.05132
      C    4   -0.04567      0.99939     2.03731    0.00897     3.04567
      C    5   -0.00953      0.99939     2.00119    0.00895     3.00953
      C    6   -0.09367      0.99943     2.08520    0.00904     3.09367
      C    7   -0.11709      0.99959     2.10751    0.00999     3.11709
      C    8   -0.07826      0.99946     2.07048    0.00832     3.07826
      C    9   -0.06117      0.99940     2.05365    0.00812     3.06117
      C   10    0.23608      0.99926     1.75255    0.01211     2.76392
      O   11   -0.24932      0.99983     3.23841    0.01108     4.24932
      C   12    0.40546      0.99959     1.57205    0.02291     2.59454
      O   13   -0.30458      0.99987     3.29808    0.00663     4.30458
      C   14   -0.05336      0.99946     2.04483    0.00907     3.05336
      C   15   -0.07614      0.99944     2.06745    0.00924     3.07614
      C   16   -0.09633      0.99960     2.08641    0.01032     3.09633
      C   17   -0.07331      0.99960     2.06417    0.00954     3.07331
      C   18   -0.10774      0.99945     2.10001    0.00829     3.10774
      C   19    0.03454      0.99939     1.95686    0.00921     2.96546
      H   20    0.08957      0.00000     0.40932    0.00111     0.41043
      H   21    0.09462      0.00000     0.40471    0.00067     0.40538
      H   22    0.10636      0.00000     0.39262    0.00101     0.39364
      H   23    0.09076      0.00000     0.40733    0.00191     0.40924
      H   24    0.09199      0.00000     0.40634    0.00167     0.40801
      H   25    0.09325      0.00000     0.40471    0.00203     0.40675
      H   26    0.10612      0.00000     0.39260    0.00128     0.39388
      H   27    0.09082      0.00000     0.40808    0.00110     0.40918
      H   28    0.08945      0.00000     0.40942    0.00113     0.41055
      H   29    0.09267      0.00000     0.40541    0.00192     0.40733
 =======================================================================
   * Total *    0.00007     18.99088    44.80450    0.20455    63.99993

 Normal termination of Gaussian 16 at Mon Dec 14 14:00:34 2020.
