 Gaussian 16, Revision A.03,

 -----------------------------------------------------------
 # opt freq B3LYP/6-31G(d) empiricaldispersion=gd3bj scf=xqc
 -----------------------------------------------------------

 -------------------------------
 CID_130543783_JID_5346_neutraal
 -------------------------------
 Symbolic Z-matrix:
 Charge =  0 Multiplicity = 1

 SCF Done:  E(RB3LYP) =  -740.759395273     A.U. after   15 cycles
 SCF Done:  E(RB3LYP) =  -740.765069615     A.U. after   12 cycles
 SCF Done:  E(RB3LYP) =  -740.765502931     A.U. after   12 cycles
 SCF Done:  E(RB3LYP) =  -740.766240199     A.U. after   12 cycles
 SCF Done:  E(RB3LYP) =  -740.766145093     A.U. after   11 cycles
 SCF Done:  E(RB3LYP) =  -740.766741719     A.U. after   12 cycles
 SCF Done:  E(RB3LYP) =  -740.767422067     A.U. after   13 cycles
 SCF Done:  E(RB3LYP) =  -740.768482619     A.U. after   13 cycles
 SCF Done:  E(RB3LYP) =  -740.769595029     A.U. after   14 cycles
 SCF Done:  E(RB3LYP) =  -740.770221422     A.U. after   12 cycles
 SCF Done:  E(RB3LYP) =  -740.770623460     A.U. after    9 cycles
 SCF Done:  E(RB3LYP) =  -740.770623741     A.U. after    8 cycles
 SCF Done:  E(RB3LYP) =  -740.770623964     A.U. after    7 cycles
 SCF Done:  E(RB3LYP) =  -740.770624195     A.U. after    8 cycles
 SCF Done:  E(RB3LYP) =  -740.770624300     A.U. after    7 cycles
 Optimization completed.
    -- Stationary point found.
 Normal termination of Gaussian 16 at Thu Dec 10 15:41:16 2020.

 --------------------------------------------------------------------
 #N Geom=AllCheck Guess=TCheck SCRF=Check GenChk RB3LYP/6-31G(d) Freq
 --------------------------------------------------------------------

 Structure from the checkpoint file:  "JID_5346.chk"
 -------------------------------
 CID_130543783_JID_5346_neutraal
 -------------------------------
 Charge =  0 Multiplicity = 1

 SCF Done:  E(RB3LYP) =  -740.770624300     A.U. after    1 cycles

  Exact polarizability: 153.384   3.079 113.473 -12.841  -2.315  89.627
 Approx polarizability: 215.573  13.142 187.109 -28.978  -9.087 133.331

                      1                      2                      3
                      A                      A                      A
 Frequencies --     39.0655                48.8285                53.9391
 Red. masses --      5.4285                 6.6506                 6.8177
 Frc consts  --      0.0049                 0.0093                 0.0117
 IR Inten    --      3.2560                 2.6492                 1.3776

                      4                      5                      6
                      A                      A                      A
 Frequencies --     73.3795               126.2272               144.2557
 Red. masses --      4.5084                 3.3760                 1.7149
 Frc consts  --      0.0143                 0.0317                 0.0210
 IR Inten    --      0.0694                 2.3252                 1.3365

                      7                      8                      9
                      A                      A                      A
 Frequencies --    146.9388               161.3233               187.3829
 Red. masses --      1.5560                 1.3538                 3.4943
 Frc consts  --      0.0198                 0.0208                 0.0723
 IR Inten    --      1.2410                 0.5463                 3.2715

                     10                     11                     12
                      A                      A                      A
 Frequencies --    213.3442               217.9011               235.4341
 Red. masses --      3.5733                 2.0058                 2.8912
 Frc consts  --      0.0958                 0.0561                 0.0944
 IR Inten    --      0.8246                 5.4344                 1.7673

                     13                     14                     15
                      A                      A                      A
 Frequencies --    249.3159               293.2817               311.8726
 Red. masses --      1.2800                 3.3320                 3.8174
 Frc consts  --      0.0469                 0.1689                 0.2188
 IR Inten    --      0.0377                 0.7658                 1.0392

                     16                     17                     18
                      A                      A                      A
 Frequencies --    345.8511               392.2699               433.3509
 Red. masses --      5.7281                 4.5991                 4.5185
 Frc consts  --      0.4037                 0.4170                 0.4999
 IR Inten    --      1.3987                 9.0228                 1.6576

                     19                     20                     21
                      A                      A                      A
 Frequencies --    456.9065               559.6993               583.6268
 Red. masses --      7.5653                 2.5593                 1.5289
 Frc consts  --      0.9305                 0.4724                 0.3068
 IR Inten    --     10.2244                14.5000                66.2334

                     22                     23                     24
                      A                      A                      A
 Frequencies --    586.4600               609.4780               647.4836
 Red. masses --      1.4805                 4.8890                 4.1809
 Frc consts  --      0.3000                 1.0700                 1.0327
 IR Inten    --     40.4123                 9.2914                12.3674

                     25                     26                     27
                      A                      A                      A
 Frequencies --    673.2524               685.6918               716.6618
 Red. masses --      4.1774                 3.0298                 3.7381
 Frc consts  --      1.1156                 0.8393                 1.1312
 IR Inten    --     44.9732                74.3066                13.3828

                     28                     29                     30
                      A                      A                      A
 Frequencies --    748.8849               763.2021               788.3967
 Red. masses --      5.3312                 2.9955                 2.4399
 Frc consts  --      1.7616                 1.0280                 0.8935
 IR Inten    --     20.8261                11.9106                 0.4396

                     31                     32                     33
                      A                      A                      A
 Frequencies --    796.5604               826.0222               989.8888
 Red. masses --      2.3177                 3.2878                 2.1891
 Frc consts  --      0.8664                 1.3217                 1.2638
 IR Inten    --     26.8037                 7.2257                16.9093

                     34                     35                     36
                      A                      A                      A
 Frequencies --   1024.2828              1039.4864              1080.7695
 Red. masses --      1.6176                 2.0397                 2.3543
 Frc consts  --      0.9999                 1.2985                 1.6202
 IR Inten    --     19.9691                25.7158                15.9630

                     37                     38                     39
                      A                      A                      A
 Frequencies --   1081.7431              1121.8616              1124.1839
 Red. masses --      1.5127                 2.3524                 2.1898
 Frc consts  --      1.0429                 1.7444                 1.6306
 IR Inten    --      4.0677                 1.6779               142.5958

                     40                     41                     42
                      A                      A                      A
 Frequencies --   1139.2520              1156.1937              1195.2133
 Red. masses --      3.6441                 1.2731                 1.6232
 Frc consts  --      2.7866                 1.0027                 1.3662
 IR Inten    --     95.9710                 2.7002                98.3652

                     43                     44                     45
                      A                      A                      A
 Frequencies --   1208.5564              1216.5756              1313.8077
 Red. masses --      2.0491                 2.3970                 2.3890
 Frc consts  --      1.7634                 2.0902                 2.4296
 IR Inten    --      5.6331               124.5270                20.4510

                     46                     47                     48
                      A                      A                      A
 Frequencies --   1338.1275              1354.7551              1391.8291
 Red. masses --      1.5120                 2.5652                 2.7568
 Frc consts  --      1.5952                 2.7739                 3.1465
 IR Inten    --     25.8541                29.1602                32.8104

                     49                     50                     51
                      A                      A                      A
 Frequencies --   1396.7679              1421.9996              1430.2377
 Red. masses --      2.5877                 3.6535                 2.5124
 Frc consts  --      2.9745                 4.3526                 3.0280
 IR Inten    --     68.7887                45.8771                 7.7601

                     52                     53                     54
                      A                      A                      A
 Frequencies --   1443.0053              1452.7532              1487.5678
 Red. masses --      1.2782                 1.3738                 1.6744
 Frc consts  --      1.5682                 1.7083                 2.1831
 IR Inten    --     12.5396                 6.0625                14.1230

                     55                     56                     57
                      A                      A                      A
 Frequencies --   1502.9919              1505.9008              1510.5712
 Red. masses --      3.7797                 1.2445                 1.0441
 Frc consts  --      5.0306                 1.6628                 1.4037
 IR Inten    --     78.2420                 3.0984                 5.5878

                     58                     59                     60
                      A                      A                      A
 Frequencies --   1518.9703              1521.8441              1525.1934
 Red. masses --      1.0763                 1.0912                 1.0945
 Frc consts  --      1.4631                 1.4891                 1.5000
 IR Inten    --      9.1284                 7.2648                14.1955

                     61                     62                     63
                      A                      A                      A
 Frequencies --   1525.6611              1552.3595              1609.6730
 Red. masses --      1.1787                 1.1168                 5.3868
 Frc consts  --      1.6165                 1.5856                 8.2235
 IR Inten    --     17.9694                42.8893                 4.6067

                     64                     65                     66
                      A                      A                      A
 Frequencies --   1785.5873              1839.6006              3057.0686
 Red. masses --      7.7040                 9.8299                 1.0440
 Frc consts  --     14.4720                19.5995                 5.7487
 IR Inten    --    349.2122               311.9621                32.7224

                     67                     68                     69
                      A                      A                      A
 Frequencies --   3061.8300              3083.8503              3101.1316
 Red. masses --      1.0354                 1.0346                 1.0857
 Frc consts  --      5.7189                 5.7973                 6.1519
 IR Inten    --     25.5100                 7.7078                 7.3493

                     70                     71                     72
                      A                      A                      A
 Frequencies --   3123.0053              3129.5670              3133.6387
 Red. masses --      1.1011                 1.0954                 1.1036
 Frc consts  --      6.3271                 6.3212                 6.3850
 IR Inten    --     11.5879                24.1065                18.8475

                     73                     74                     75
                      A                      A                      A
 Frequencies --   3160.4480              3167.9008              3175.4465
 Red. masses --      1.1038                 1.1034                 1.1021
 Frc consts  --      6.4958                 6.5240                 6.5473
 IR Inten    --     12.4998                15.1635                 4.9597

                     76                     77                     78
                      A                      A                      A
 Frequencies --   3269.1499              3600.6635              3695.2140
 Red. masses --      1.0981                 1.0759                 1.0640
 Frc consts  --      6.9145                 8.2185                 8.5602
 IR Inten    --      0.1388                27.2314                71.8426

 - Thermochemistry -
 -------------------
 Temperature   298.150 Kelvin.  Pressure   1.00000 Atm.
 Atom     1 has atomic number  6 and mass  12.00000

 Molecular mass:   211.09569 amu.
 Principal axes and moments of inertia in atomic units:
                           1         2         3
     Eigenvalues --  1613.487814909.548555395.87532
           X            0.99953  -0.03053   0.00094
           Y            0.03051   0.99939   0.01693
           Z           -0.00146  -0.01689   0.99986
 This molecule is an asymmetric top.
 Rotational symmetry number  1.
 Warning -- assumption of classical behavior for rotation
           may cause significant error
 Rotational temperatures (Kelvin)      0.05368     0.01764     0.01605
 Rotational constants (GHZ):           1.11853     0.36760     0.33447
 Zero-point vibrational energy     596233.2 (Joules/Mol)
                                  142.50317 (Kcal/Mol)
 Warning -- explicit consideration of  23 degrees of freedom as
           vibrations may cause significant error
 Vibrational temperatures:     56.21    70.25    77.61   105.58   181.61
          (Kelvin)            207.55   211.41   232.11   269.60   306.95
                              313.51   338.74   358.71   421.97   448.72
                              497.60   564.39   623.50   657.39   805.28
                              839.71   843.79   876.90   931.58   968.66
                              986.56  1031.12  1077.48  1098.08  1134.33
                             1146.07  1188.46  1424.23  1473.71  1495.59
                             1554.99  1556.39  1614.11  1617.45  1639.13
                             1663.50  1719.65  1738.84  1750.38  1890.28
                             1925.27  1949.19  2002.53  2009.64  2045.94
                             2057.79  2076.16  2090.19  2140.28  2162.47
                             2166.66  2173.38  2185.46  2189.59  2194.41
                             2195.09  2233.50  2315.96  2569.06  2646.77
                             4398.44  4405.29  4436.97  4461.84  4493.31
                             4502.75  4508.61  4547.18  4557.90  4568.76
                             4703.58  5180.55  5316.59

 Zero-point correction=                           0.227093 (Hartree/Particle)
 Thermal correction to Energy=                    0.242534
 Thermal correction to Enthalpy=                  0.243478
 Thermal correction to Gibbs Free Energy=         0.183733
 Sum of electronic and zero-point Energies=           -740.543531
 Sum of electronic and thermal Energies=              -740.528090
 Sum of electronic and thermal Enthalpies=            -740.527146
 Sum of electronic and thermal Free Energies=         -740.586891

                     E (Thermal)             CV                S
                      KCal/Mol        Cal/Mol-Kelvin    Cal/Mol-Kelvin
 Total                  152.192             55.799            125.744
 Electronic               0.000              0.000              0.000
 Translational            0.889              2.981             41.945
 Rotational               0.889              2.981             32.125
 Vibrational            150.415             49.837             51.674
 Vibration     1          0.594              1.981              5.306
 Vibration     2          0.595              1.978              4.864
 Vibration     3          0.596              1.976              4.667
 Vibration     4          0.599              1.967              4.061
 Vibration     5          0.611              1.927              3.003
 Vibration     6          0.616              1.909              2.747
 Vibration     7          0.617              1.906              2.711
 Vibration     8          0.622              1.890              2.534
 Vibration     9          0.632              1.857              2.254
 Vibration    10          0.644              1.821              2.015
 Vibration    11          0.646              1.814              1.976
 Vibration    12          0.655              1.787              1.837
 Vibration    13          0.662              1.764              1.735
 Vibration    14          0.688              1.686              1.455
 Vibration    15          0.700              1.651              1.352
 Vibration    16          0.724              1.584              1.185
 Vibration    17          0.760              1.487              0.992
 Vibration    18          0.794              1.398              0.848
 Vibration    19          0.815              1.346              0.775
 Vibration    20          0.915              1.119              0.524
 Vibration    21          0.941              1.067              0.479
 Vibration    22          0.944              1.061              0.474
 Vibration    23          0.968              1.012              0.434

 Optimization completed.
    -- Stationary point found.
 Normal termination of Gaussian 16 at Thu Dec 10 15:49:28 2020.

 ----------------------------------------------------------------------
 # B3LYP/6-311++G(d,p) empiricaldispersion=gd3bj scf=xqc pop=npa geom=c
 heck
 ----------------------------------------------------------------------

 ---------------------------------------
 CID_130543783_JID_5346_Energie_neutraal
 ---------------------------------------
 Structure from the checkpoint file:  "JID_5346.chk"
 Charge =  0 Multiplicity = 1

 SCF Done:  E(RB3LYP) =  -740.993011742     A.U. after   16 cycles
 Normal termination of Gaussian 16 at Thu Dec 10 15:53:01 2020.

 ----------------------------------------------------------------------
 # B3LYP/6-311++G(d,p) empiricaldispersion=gd3bj scf=xqc pop=npa geom=c
 heck
 ----------------------------------------------------------------------

 -------------------------------------
 CID_130543783_JID_5346_Energie_kation
 -------------------------------------
 Structure from the checkpoint file:  "JID_5346.chk"
 Charge =  1 Multiplicity = 2

 SCF Done:  E(UB3LYP) =  -740.669658338     A.U. after   31 cycles
 Normal termination of Gaussian 16 at Thu Dec 10 16:01:10 2020.
 Gaussian 16:  ES64L-G16RevA.03 25-Dec-2016

 ----------------------------------------------------------------------
 # B3LYP/6-311++G(d,p) empiricaldispersion=gd3bj scf=xqc pop=npa geom=c
 heck
 ----------------------------------------------------------------------

 ------------------------------------
 CID_130543783_JID_5346_Energie_anion
 ------------------------------------
 Structure from the checkpoint file:  "JID_5346.chk"
 Charge = -1 Multiplicity = 2

                         Standard orientation:
 ---------------------------------------------------------------------
 Center     Atomic      Atomic             Coordinates (Angstroms)
 Number     Number       Type             X           Y           Z
 ---------------------------------------------------------------------
      1          6           0        2.292758   -2.407517    0.200753
      2          6           0        1.335373   -1.264630    0.345848
      3          6           0       -0.006466   -1.342038    0.663735
      4          7           0       -0.492207   -0.065025    0.699740
      5          7           0        0.444197    0.846057    0.423930
      6          6           0        1.562969    0.137188    0.206876
      7          6           0        2.797475    0.865214   -0.133132
      8          8           0        2.907940    2.064579   -0.264054
      9          8           0        3.851175    0.015333   -0.298856
     10          6           0       -1.886244    0.310189    0.946722
     11          6           0       -2.063808    1.823844    1.065573
     12          6           0       -2.866211   -0.283625   -0.085439
     13          8           0       -3.932449   -0.739079    0.312732
     14          7           0       -2.554966   -0.239603   -1.410552
     15          6           0       -1.346765    0.226067   -2.080893
     16          1           0        1.780675   -3.360804    0.363387
     17          1           0        3.115565   -2.330573    0.918535
     18          1           0        2.746488   -2.423814   -0.795122
     19          1           0       -0.644002   -2.191794    0.864429
     20          1           0        4.608836    0.588261   -0.519514
     21          1           0       -2.183775   -0.158917    1.888266
     22          1           0       -1.810262    2.337427    0.136301
     23          1           0       -3.110672    2.023687    1.309446
     24          1           0       -1.424807    2.222931    1.856294
     25          1           0       -3.272453   -0.667873   -1.981891
     26          1           0       -0.538107   -0.513366   -2.038700
     27          1           0       -1.594425    0.415028   -3.128128
     28          1           0       -0.980040    1.154981   -1.643965
 ---------------------------------------------------------------------

 SCF Done:  E(UB3LYP) =  -740.987686627     A.U. after   33 cycles
 SCF Done:  E(UB3LYP) =  -740.987686627     a.u. after    1 cycles

 The electronic state is 2-A.
 Alpha  occ. eigenvalues --  -19.04255 -18.98497 -18.97002 -14.26882 -14.23250
 Alpha  occ. eigenvalues --  -14.19781 -10.16901 -10.15775 -10.12501 -10.08929
 Alpha  occ. eigenvalues --  -10.08712 -10.07203 -10.06894 -10.06652 -10.06540
 Alpha  occ. eigenvalues --   -0.97813  -0.94260  -0.93213  -0.88367  -0.81493
 Alpha  occ. eigenvalues --   -0.74180  -0.68905  -0.66021  -0.60109  -0.59386
 Alpha  occ. eigenvalues --   -0.57350  -0.52986  -0.47914  -0.47221  -0.43804
 Alpha  occ. eigenvalues --   -0.42603  -0.38820  -0.37115  -0.36053  -0.35540
 Alpha  occ. eigenvalues --   -0.34587  -0.33966  -0.32795  -0.32314  -0.31296
 Alpha  occ. eigenvalues --   -0.30834  -0.30179  -0.29875  -0.29355  -0.29060
 Alpha  occ. eigenvalues --   -0.28068  -0.26425  -0.25823  -0.25318  -0.20151
 Alpha  occ. eigenvalues --   -0.17376  -0.16349  -0.15106  -0.15105  -0.13874
 Alpha  occ. eigenvalues --   -0.13153   0.04814
 Alpha virt. eigenvalues --    0.06793   0.07404   0.08445   0.08682   0.09906
 Alpha virt. eigenvalues --    0.10424   0.10753   0.11078   0.11530   0.12253
 Alpha virt. eigenvalues --    0.12996   0.13298   0.13558   0.14458   0.15440

  Beta  occ. eigenvalues --  -19.04189 -18.98491 -18.96827 -14.26694 -14.23221
  Beta  occ. eigenvalues --  -14.19347 -10.16875 -10.15538 -10.12508 -10.08887
  Beta  occ. eigenvalues --  -10.08737 -10.07194 -10.06871 -10.06656 -10.06534
  Beta  occ. eigenvalues --   -0.97568  -0.94048  -0.92971  -0.88087  -0.81440
  Beta  occ. eigenvalues --   -0.73935  -0.68675  -0.65905  -0.60024  -0.59274
  Beta  occ. eigenvalues --   -0.57117  -0.52734  -0.47812  -0.47125  -0.43625
  Beta  occ. eigenvalues --   -0.42509  -0.38713  -0.36886  -0.35846  -0.35287
  Beta  occ. eigenvalues --   -0.34423  -0.33677  -0.32591  -0.32139  -0.31238
  Beta  occ. eigenvalues --   -0.30356  -0.29964  -0.29717  -0.29241  -0.28905
  Beta  occ. eigenvalues --   -0.28002  -0.26342  -0.25713  -0.25133  -0.19356
  Beta  occ. eigenvalues --   -0.16870  -0.16181  -0.15043  -0.14940  -0.12772
  Beta  occ. eigenvalues --   -0.12598
  Beta virt. eigenvalues --    0.07191   0.08092   0.08567   0.08784   0.09773
  Beta virt. eigenvalues --    0.10071   0.10736   0.11023   0.11437   0.11529
  Beta virt. eigenvalues --    0.12420   0.13099   0.13548   0.13751   0.14532

 Mulliken charges and spin densities:
               1          2
     1  C   -0.256168  -0.104733
     2  C   -0.066348   1.081052
     3  C    0.046598  -0.819309
     4  N    0.433870  -0.025835
     5  N   -0.317877   0.352627
     6  C   -0.569740  -0.245875
     7  C    0.480368  -0.244364
     8  O   -0.362226   0.067283
     9  O   -0.234597   0.017605
    10  C    0.242721  -0.345743
    11  C   -0.403633  -0.161957
    12  C   -0.161822   0.138504
    13  O   -0.351995   0.021063
    14  N   -0.258405  -0.021506
    15  C    0.462862  -0.889393
    16  H    0.006335   0.123229
    17  H    0.113658   0.056077
    18  H    0.118864   0.059080
    19  H    0.079129   0.068701
    20  H    0.251895   0.023999
    21  H    0.238985  -0.006830
    22  H    0.095043   0.068295
    23  H    0.125713   0.021225
    24  H    0.178941  -0.001995
    25  H   -0.243593   0.582414
    26  H    0.196041  -0.008902
    27  H   -1.111650   1.280283
    28  H    0.267033  -0.084996
 Sum of Mulliken charges =  -1.00000   1.00000

 Dipole moment (field-independent basis, Debye):
    X=              3.1086    Y=             -1.4067    Z=              5.0805  Tot=              6.1199
 Quadrupole moment (field-independent basis, Debye-Ang):
   XX=           -144.3911   YY=           -116.1528   ZZ=           -121.6144
   XY=            -13.2331   XZ=            -13.0788   YZ=             -0.1230

 Summary of Natural Population Analysis:

                                       Natural Population
                Natural  -----------------------------------------------
    Atom  No    Charge         Core      Valence    Rydberg      Total
 -----------------------------------------------------------------------
      C    1   -0.28990      0.99964     2.28558    0.00468     3.28990
      C    2   -0.05089      0.99950     2.04164    0.00975     3.05089
      C    3   -0.03128      0.99950     2.02138    0.01039     3.03128
      N    4   -0.08657      0.99965     2.57394    0.01298     3.58657
      N    5   -0.06468      0.99970     2.55397    0.01101     3.56468
      C    6    0.00033      0.99948     1.98420    0.01600     2.99967
      C    7    0.41578      0.99966     1.55995    0.02461     2.58422
      O    8   -0.29927      0.99987     3.29351    0.00588     4.29927
      O    9   -0.35334      0.99988     3.34704    0.00641     4.35334
      C   10   -0.03852      0.99956     2.02679    0.01217     3.03852
      C   11   -0.28454      0.99964     2.27984    0.00505     3.28454
      C   12    0.34087      0.99963     1.63511    0.02439     2.65913
      O   13   -0.33137      0.99988     3.32541    0.00608     4.33137
      N   14   -0.31183      0.99967     2.80040    0.01177     3.81183
      C   15   -0.18541      0.99963     2.17678    0.00899     3.18541
      H   16    0.09636      0.00000     0.40280    0.00084     0.40364
      H   17    0.10463      0.00000     0.39417    0.00120     0.39537
      H   18    0.10640      0.00000     0.39231    0.00129     0.39360
      H   19    0.10232      0.00000     0.39669    0.00099     0.39768
      H   20    0.23188      0.00000     0.26415    0.00397     0.26812
      H   21    0.10725      0.00000     0.39159    0.00115     0.39275
      H   22    0.10873      0.00000     0.39025    0.00102     0.39127
      H   23    0.10163      0.00000     0.39763    0.00074     0.39837
      H   24    0.10815      0.00000     0.39096    0.00089     0.39185
      H   25    0.19686      0.00000     0.29778    0.00536     0.30314
      H   26    0.09844      0.00000     0.39996    0.00160     0.40156
      H   27    0.10085      0.00000     0.39652    0.00262     0.39915
      H   28    0.10710      0.00000     0.39151    0.00139     0.39290
 =======================================================================
   * Total *   -0.00000     14.99490    40.81187    0.19323    56.00000

 Normal termination of Gaussian 16 at Thu Dec 10 16:10:04 2020.
