 Gaussian 16, Revision A.03,

 -----------------------------------------------------------
 # opt freq B3LYP/6-31G(d) empiricaldispersion=gd3bj scf=xqc
 -----------------------------------------------------------

 --------------------------------
 CID_114811760_JID_10855_neutraal
 --------------------------------
 Symbolic Z-matrix:
 Charge =  0 Multiplicity = 1

 SCF Done:  E(RB3LYP) =  -1278.82571534     A.U. after   15 cycles
 SCF Done:  E(RB3LYP) =  -1278.83482425     A.U. after   13 cycles
 SCF Done:  E(RB3LYP) =  -1278.83649193     A.U. after   13 cycles
 SCF Done:  E(RB3LYP) =  -1278.83768299     A.U. after   14 cycles
 SCF Done:  E(RB3LYP) =  -1278.84035601     A.U. after   13 cycles
 SCF Done:  E(RB3LYP) =  -1278.84031253     A.U. after   13 cycles
 SCF Done:  E(RB3LYP) =  -1278.84241832     A.U. after   12 cycles
 SCF Done:  E(RB3LYP) =  -1278.84369504     A.U. after   12 cycles
 SCF Done:  E(RB3LYP) =  -1278.84472982     A.U. after   14 cycles
 SCF Done:  E(RB3LYP) =  -1278.84512574     A.U. after   12 cycles
 SCF Done:  E(RB3LYP) =  -1278.84985607     A.U. after    8 cycles
 SCF Done:  E(RB3LYP) =  -1278.84985632     A.U. after    8 cycles
 SCF Done:  E(RB3LYP) =  -1278.84985660     A.U. after    8 cycles
 SCF Done:  E(RB3LYP) =  -1278.84985682     A.U. after    8 cycles
 SCF Done:  E(RB3LYP) =  -1278.84985690     A.U. after    7 cycles
 Optimization completed.
    -- Stationary point found.
 Normal termination of Gaussian 16 at Sat Dec 12 17:05:05 2020.

 --------------------------------------------------------------------
 #N Geom=AllCheck Guess=TCheck SCRF=Check GenChk RB3LYP/6-31G(d) Freq
 --------------------------------------------------------------------

 Structure from the checkpoint file:  "JID_10855.chk"
 --------------------------------
 CID_114811760_JID_10855_neutraal
 --------------------------------
 Charge =  0 Multiplicity = 1

 SCF Done:  E(RB3LYP) =  -1278.84985690     A.U. after    1 cycles

  Exact polarizability: 266.876  11.788 193.983   5.584 -12.364 115.782
 Approx polarizability: 387.162  12.086 275.247   9.002 -32.567 191.913

                      1                      2                      3
                      A                      A                      A
 Frequencies --     15.0312                25.6203                41.3660
 Red. masses --      3.7718                 4.8235                 4.5059
 Frc consts  --      0.0005                 0.0019                 0.0045
 IR Inten    --      0.5894                 1.2114                 0.1622

                      4                      5                      6
                      A                      A                      A
 Frequencies --     54.8466                71.5731                80.3560
 Red. masses --      4.6569                 3.6297                 5.2359
 Frc consts  --      0.0083                 0.0110                 0.0199
 IR Inten    --      0.2989                 1.5521                 0.6147

                      7                      8                      9
                      A                      A                      A
 Frequencies --     86.7249                95.8852               111.8179
 Red. masses --      3.2781                 4.5176                 3.3119
 Frc consts  --      0.0145                 0.0245                 0.0244
 IR Inten    --      0.5217                 1.7099                 0.3398

                     10                     11                     12
                      A                      A                      A
 Frequencies --    119.6091               139.1827               169.9008
 Red. masses --      4.1947                 2.7840                 3.0593
 Frc consts  --      0.0354                 0.0318                 0.0520
 IR Inten    --      2.8175                 0.6014                 1.1642

                     13                     14                     15
                      A                      A                      A
 Frequencies --    178.2703               203.5094               241.7480
 Red. masses --      1.0735                 3.5389                 2.4556
 Frc consts  --      0.0201                 0.0864                 0.0846
 IR Inten    --      0.3572                 1.1222                 1.3674

                     16                     17                     18
                      A                      A                      A
 Frequencies --    259.0192               266.5825               279.5345
 Red. masses --      3.9127                 2.2782                 5.6181
 Frc consts  --      0.1547                 0.0954                 0.2587
 IR Inten    --      0.9741                 3.2182                 1.5727

                     19                     20                     21
                      A                      A                      A
 Frequencies --    293.9214               323.1915               355.0746
 Red. masses --      1.5357                 4.0925                 4.1860
 Frc consts  --      0.0782                 0.2519                 0.3109
 IR Inten    --      0.8412                 2.4880                 2.0038

                     22                     23                     24
                      A                      A                      A
 Frequencies --    361.2282               372.1365               408.5197
 Red. masses --      3.7627                 3.3428                 3.2752
 Frc consts  --      0.2893                 0.2727                 0.3220
 IR Inten    --      2.6240                13.4039                 8.9685

                     25                     26                     27
                      A                      A                      A
 Frequencies --    422.6049               432.5638               439.2575
 Red. masses --      2.1391                 3.3319                 1.7994
 Frc consts  --      0.2251                 0.3673                 0.2046
 IR Inten    --     20.8064                 8.3004                97.3897

                     28                     29                     30
                      A                      A                      A
 Frequencies --    462.6135               473.0057               512.5038
 Red. masses --      4.2992                 3.3520                 3.1740
 Frc consts  --      0.5421                 0.4419                 0.4912
 IR Inten    --      6.1822                 7.5071                 6.0448

                     31                     32                     33
                      A                      A                      A
 Frequencies --    538.0282               542.8058               554.0335
 Red. masses --      2.8929                 3.6984                 3.0638
 Frc consts  --      0.4934                 0.6420                 0.5541
 IR Inten    --     79.2246                28.5974                33.4364

                     34                     35                     36
                      A                      A                      A
 Frequencies --    569.2172               600.8579               631.6141
 Red. masses --      2.9354                 4.0503                 2.8350
 Frc consts  --      0.5604                 0.8616                 0.6664
 IR Inten    --     23.4419                21.3904                94.9810

                     37                     38                     39
                      A                      A                      A
 Frequencies --    661.5191               668.7843               726.6213
 Red. masses --      6.0523                 4.7552                 3.3101
 Frc consts  --      1.5605                 1.2531                 1.0297
 IR Inten    --     11.3165                 7.0720                 1.0334

                     40                     41                     42
                      A                      A                      A
 Frequencies --    748.5157               796.5866               827.9591
 Red. masses --      1.4073                 4.5858                 1.7948
 Frc consts  --      0.4646                 1.7145                 0.7249
 IR Inten    --     30.0420                16.0459                17.9504

                     43                     44                     45
                      A                      A                      A
 Frequencies --    839.1293               862.5555               870.6184
 Red. masses --      1.3668                 2.8552                 2.0411
 Frc consts  --      0.5670                 1.2516                 0.9115
 IR Inten    --     11.0315                 7.4721                 8.7632

                     46                     47                     48
                      A                      A                      A
 Frequencies --    882.7971               892.0318               917.7342
 Red. masses --      1.7871                 2.6006                 1.5660
 Frc consts  --      0.8206                 1.2192                 0.7771
 IR Inten    --     45.4812                 1.3746                21.0230

                     49                     50                     51
                      A                      A                      A
 Frequencies --    951.2735               956.8126               959.5045
 Red. masses --      1.9132                 2.5501                 1.3318
 Frc consts  --      1.0201                 1.3755                 0.7224
 IR Inten    --     92.4320                48.7060                 6.8903

                     52                     53                     54
                      A                      A                      A
 Frequencies --   1020.2163              1023.4886              1053.2463
 Red. masses --      1.9418                 1.6213                 2.3942
 Frc consts  --      1.1908                 1.0006                 1.5649
 IR Inten    --     49.2189                 6.8970                 3.1034

                     55                     56                     57
                      A                      A                      A
 Frequencies --   1072.5883              1076.0287              1095.4278
 Red. masses --      2.1386                 1.5123                 2.9846
 Frc consts  --      1.4496                 1.0316                 2.1101
 IR Inten    --     48.8747                 3.5780                46.5851

                     58                     59                     60
                      A                      A                      A
 Frequencies --   1100.0868              1122.4478              1143.5202
 Red. masses --      2.7678                 8.6999                 2.1490
 Frc consts  --      1.9735                 6.4580                 1.6557
 IR Inten    --     38.9141               200.7242                 9.9862

                     61                     62                     63
                      A                      A                      A
 Frequencies --   1152.6748              1164.9374              1204.7599
 Red. masses --      2.1792                 1.6799                 1.7717
 Frc consts  --      1.7059                 1.3432                 1.5151
 IR Inten    --     13.8335                 4.6515                 1.0893

                     64                     65                     66
                      A                      A                      A
 Frequencies --   1216.0945              1246.0388              1248.5608
 Red. masses --      1.1782                 1.6890                 1.2840
 Frc consts  --      1.0266                 1.5450                 1.1793
 IR Inten    --     16.5722                 6.7477                 4.0242

                     67                     68                     69
                      A                      A                      A
 Frequencies --   1280.9761              1296.6205              1315.2905
 Red. masses --      1.3564                 1.9465                 1.3858
 Frc consts  --      1.3114                 1.9281                 1.4125
 IR Inten    --     27.6817                 9.2076                 9.4168

                     70                     71                     72
                      A                      A                      A
 Frequencies --   1322.1143              1332.3387              1340.6114
 Red. masses --      2.4699                 2.4155                 5.5316
 Frc consts  --      2.5437                 2.5263                 5.8574
 IR Inten    --     14.9548               101.9030                31.1615

                     73                     74                     75
                      A                      A                      A
 Frequencies --   1368.8455              1389.7515              1398.9136
 Red. masses --      1.5902                 1.4341                 1.3716
 Frc consts  --      1.7555                 1.6319                 1.5814
 IR Inten    --     20.5945                20.0728                26.8208

                     76                     77                     78
                      A                      A                      A
 Frequencies --   1404.2524              1411.3222              1440.8730
 Red. masses --      1.3888                 1.3701                 1.2725
 Frc consts  --      1.6136                 1.6078                 1.5565
 IR Inten    --     14.6510                13.6003                16.0919

                     79                     80                     81
                      A                      A                      A
 Frequencies --   1442.7387              1448.0227              1459.3474
 Red. masses --      1.2448                 1.2560                 1.3634
 Frc consts  --      1.5267                 1.5517                 1.7107
 IR Inten    --     49.7375                 8.1186                41.6651

                     82                     83                     84
                      A                      A                      A
 Frequencies --   1467.4001              1492.9832              1507.9052
 Red. masses --      2.2579                 1.0984                 1.0815
 Frc consts  --      2.8645                 1.4425                 1.4488
 IR Inten    --      9.6659                 9.1076                 4.8485

                     85                     86                     87
                      A                      A                      A
 Frequencies --   1520.1468              1521.7576              1528.2329
 Red. masses --      1.0563                 1.0762                 1.1120
 Frc consts  --      1.4382                 1.4684                 1.5301
 IR Inten    --      4.9455                 8.3769                 7.5292

                     88                     89                     90
                      A                      A                      A
 Frequencies --   1533.4418              1537.7168              1550.2000
 Red. masses --      1.0617                 1.0898                 1.0879
 Frc consts  --      1.4710                 1.5183                 1.5404
 IR Inten    --      4.9926                 0.5270                 3.5969

                     91                     92                     93
                      A                      A                      A
 Frequencies --   1551.7599              1612.4881              1674.4915
 Red. masses --      2.6299                 5.4692                 6.2687
 Frc consts  --      3.7312                 8.3785                10.3561
 IR Inten    --     54.5622                10.7315                 3.2032

                     94                     95                     96
                      A                      A                      A
 Frequencies --   2342.7924              3015.0436              3035.8465
 Red. masses --     11.8947                 1.0706                 1.0460
 Frc consts  --     38.4656                 5.7340                 5.6799
 IR Inten    --      0.6613                51.8014                31.1299

                     97                     98                     99
                      A                      A                      A
 Frequencies --   3039.8709              3042.0253              3044.5234
 Red. masses --      1.0585                 1.0705                 1.0425
 Frc consts  --      5.7631                 5.8364                 5.6931
 IR Inten    --     30.0017                21.5805                 6.8266

                    100                    101                    102
                      A                      A                      A
 Frequencies --   3050.5887              3078.2988              3081.3450
 Red. masses --      1.0563                 1.1027                 1.1007
 Frc consts  --      5.7916                 6.1562                 6.1576
 IR Inten    --     49.9913                20.0131                22.5273

                    103                    104                    105
                      A                      A                      A
 Frequencies --   3101.3067              3109.7613              3115.3280
 Red. masses --      1.0907                 1.1027                 1.0960
 Frc consts  --      6.1810                 6.2828                 6.2671
 IR Inten    --      9.5712                74.4773                57.0958

                    106                    107                    108
                      A                      A                      A
 Frequencies --   3132.2375              3138.4930              3140.3355
 Red. masses --      1.0958                 1.0998                 1.1017
 Frc consts  --      6.3341                 6.3829                 6.4011
 IR Inten    --     11.8461                 8.2102                12.8936

                    109                    110                    111
                      A                      A                      A
 Frequencies --   3189.9040              3217.2909              3262.9982
 Red. masses --      1.0887                 1.0938                 1.0903
 Frc consts  --      6.5271                 6.6707                 6.8398
 IR Inten    --     15.1094                11.1140                 1.2051

                    112                    113                    114
                      A                      A                      A
 Frequencies --   3536.2218              3572.9396              3705.3785
 Red. masses --      1.0745                 1.0755                 1.0653
 Frc consts  --      7.9164                 8.0890                 8.6177
 IR Inten    --     26.7239                32.3721                31.6223

 - Thermochemistry -
 -------------------
 Temperature   298.150 Kelvin.  Pressure   1.00000 Atm.
 Atom     1 has atomic number  6 and mass  12.00000

 Molecular mass:   296.11946 amu.
 Principal axes and moments of inertia in atomic units:
                           1         2         3
     Eigenvalues --  4641.964948137.49454**********
           X            0.99913   0.04112   0.00645
           Y           -0.04110   0.99915  -0.00213
           Z           -0.00653   0.00186   0.99998
 This molecule is an asymmetric top.
 Rotational symmetry number  1.
 Warning -- assumption of classical behavior for rotation
           may cause significant error
 Rotational temperatures (Kelvin)      0.01866     0.01064     0.00721
 Rotational constants (GHZ):           0.38879     0.22178     0.15015
 Zero-point vibrational energy     869322.6 (Joules/Mol)
                                  207.77309 (Kcal/Mol)
 Warning -- explicit consideration of  35 degrees of freedom as
           vibrations may cause significant error
 Vibrational temperatures:     21.63    36.86    59.52    78.91   102.98
          (Kelvin)            115.61   124.78   137.96   160.88   172.09
                              200.25   244.45   256.49   292.80   347.82
                              372.67   383.55   402.19   422.89   465.00
                              510.87   519.73   535.42   587.77   608.03
                              622.36   631.99   665.60   680.55   737.38
                              774.10   780.98   797.13   818.98   864.50
                              908.75   951.78   962.23  1045.45  1076.95
                             1146.11  1191.25  1207.32  1241.03  1252.63
                             1270.15  1283.43  1320.41  1368.67  1376.64
                             1380.51  1467.86  1472.57  1515.39  1543.22
                             1548.17  1576.08  1582.78  1614.95  1645.27
                             1658.44  1676.09  1733.38  1749.69  1792.77
                             1796.40  1843.04  1865.55  1892.41  1902.23
                             1916.94  1928.84  1969.46  1999.54  2012.72
                             2020.41  2030.58  2073.09  2075.78  2083.38
                             2099.68  2111.26  2148.07  2169.54  2187.15
                             2189.47  2198.79  2206.28  2212.43  2230.39
                             2232.64  2320.01  2409.22  3370.76  4337.98
                             4367.91  4373.70  4376.80  4380.39  4389.12
                             4428.99  4433.37  4462.09  4474.25  4482.26
                             4506.59  4515.59  4518.24  4589.56  4628.96
                             4694.73  5087.83  5140.66  5331.21

 Zero-point correction=                           0.331107 (Hartree/Particle)
 Thermal correction to Energy=                    0.352582
 Thermal correction to Enthalpy=                  0.353527
 Thermal correction to Gibbs Free Energy=         0.278745
 Sum of electronic and zero-point Energies=          -1278.518749
 Sum of electronic and thermal Energies=             -1278.497275
 Sum of electronic and thermal Enthalpies=           -1278.496330
 Sum of electronic and thermal Free Energies=        -1278.571112

                     E (Thermal)             CV                S
                      KCal/Mol        Cal/Mol-Kelvin    Cal/Mol-Kelvin
 Total                  221.249             79.613            157.391
 Electronic               0.000              0.000              0.000
 Translational            0.889              2.981             42.954
 Rotational               0.889              2.981             34.473
 Vibrational            219.471             73.651             79.965
 Vibration     1          0.593              1.986              7.201
 Vibration     2          0.593              1.985              6.143
 Vibration     3          0.594              1.981              5.193
 Vibration     4          0.596              1.976              4.635
 Vibration     5          0.598              1.968              4.110
 Vibration     6          0.600              1.962              3.882
 Vibration     7          0.601              1.958              3.733
 Vibration     8          0.603              1.952              3.536
 Vibration     9          0.607              1.940              3.237
 Vibration    10          0.609              1.933              3.107
 Vibration    11          0.615              1.914              2.815
 Vibration    12          0.625              1.880              2.437
 Vibration    13          0.629              1.869              2.346
 Vibration    14          0.639              1.835              2.101
 Vibration    15          0.658              1.776              1.790
 Vibration    16          0.668              1.748              1.668
 Vibration    17          0.672              1.734              1.618
 Vibration    18          0.680              1.711              1.537
 Vibration    19          0.689              1.685              1.451
 Vibration    20          0.708              1.629              1.294
 Vibration    21          0.731              1.565              1.144
 Vibration    22          0.735              1.552              1.117
 Vibration    23          0.744              1.529              1.071
 Vibration    24          0.773              1.452              0.932
 Vibration    25          0.785              1.421              0.883
 Vibration    26          0.793              1.399              0.850
 Vibration    27          0.799              1.385              0.829
 Vibration    28          0.820              1.333              0.759
 Vibration    29          0.830              1.310              0.729
 Vibration    30          0.868              1.222              0.628
 Vibration    31          0.893              1.166              0.570
 Vibration    32          0.898              1.155              0.559
 Vibration    33          0.909              1.131              0.536
 Vibration    34          0.925              1.098              0.506
 Vibration    35          0.959              1.030              0.448

 Optimization completed.
    -- Stationary point found.
 Normal termination of Gaussian 16 at Sat Dec 12 17:27:24 2020.

 ----------------------------------------------------------------------
 # B3LYP/6-311++G(d,p) empiricaldispersion=gd3bj scf=xqc pop=npa geom=c
 heck
 ----------------------------------------------------------------------

 ----------------------------------------
 CID_114811760_JID_10855_Energie_neutraal
 ----------------------------------------
 Structure from the checkpoint file:  "JID_10855.chk"
 Charge =  0 Multiplicity = 1

 SCF Done:  E(RB3LYP) =  -1279.13582700     A.U. after   16 cycles
 Normal termination of Gaussian 16 at Sat Dec 12 17:38:48 2020.

 ----------------------------------------------------------------------
 # B3LYP/6-311++G(d,p) empiricaldispersion=gd3bj scf=xqc pop=npa geom=c
 heck
 ----------------------------------------------------------------------

 --------------------------------------
 CID_114811760_JID_10855_Energie_kation
 --------------------------------------
 Structure from the checkpoint file:  "JID_10855.chk"
 Charge =  1 Multiplicity = 2

 SCF Done:  E(UB3LYP) =  -1278.83728366     A.U. after   26 cycles
 Normal termination of Gaussian 16 at Sat Dec 12 18:05:21 2020.
 Gaussian 16:  ES64L-G16RevA.03 25-Dec-2016

 ----------------------------------------------------------------------
 # B3LYP/6-311++G(d,p) empiricaldispersion=gd3bj scf=xqc pop=npa geom=c
 heck
 ----------------------------------------------------------------------

 -------------------------------------
 CID_114811760_JID_10855_Energie_anion
 -------------------------------------
 Structure from the checkpoint file:  "JID_10855.chk"
 Charge = -1 Multiplicity = 2

                         Standard orientation:
 ---------------------------------------------------------------------
 Center     Atomic      Atomic             Coordinates (Angstroms)
 Number     Number       Type             X           Y           Z
 ---------------------------------------------------------------------
      1          6           0       -1.671508   -3.055574   -0.710616
      2          6           0       -0.946067   -2.857747    0.622476
      3          6           0        0.580991   -2.863975    0.513916
      4          7           0        1.041000   -1.845246   -0.443495
      5         16           0        2.537761   -1.147748   -0.239167
      6          8           0        3.502910   -2.022442    0.426682
      7          8           0        2.847850   -0.538130   -1.534039
      8          7           0        2.150981    0.006615    0.949096
      9          6           0        1.367748    1.137041    0.541029
     10          6           0        1.966074    2.342418    0.131714
     11          6           0        1.118013    3.389366   -0.248248
     12          6           0       -0.266030    3.244587   -0.268284
     13          6           0       -0.852622    2.029097    0.121940
     14          6           0       -0.014087    0.988321    0.547231
     15          6           0       -2.263389    1.815953    0.083856
     16          6           0       -3.456179    1.597520    0.044820
     17          6           0       -4.855969    1.180983   -0.016621
     18          6           0       -4.954882   -0.297458   -0.447666
     19          8           0       -4.251156   -1.155124    0.433681
     20          6           0        3.464601    2.487895    0.080401
     21          1           0       -1.419707   -2.256911   -1.418745
     22          1           0       -2.755092   -3.028403   -0.564514
     23          1           0       -1.406282   -4.015380   -1.170822
     24          1           0       -1.262304   -1.910215    1.076508
     25          1           0       -1.236186   -3.648555    1.325502
     26          1           0        1.026941   -2.621540    1.481529
     27          1           0        0.947424   -3.858290    0.225768
     28          1           0        0.919924   -2.072029   -1.425685
     29          1           0        3.019026    0.239225    1.426848
     30          1           0        1.558640    4.332377   -0.560171
     31          1           0       -0.899162    4.064472   -0.590998
     32          1           0       -0.436167    0.048393    0.873974
     33          1           0       -5.326553    1.296158    0.968564
     34          1           0       -5.418118    1.808504   -0.720979
     35          1           0       -6.000148   -0.618779   -0.421144
     36          1           0       -4.590174   -0.396776   -1.481278
     37          1           0       -3.342428   -0.812041    0.481267
     38          1           0        3.902863    1.729742   -0.577918
     39          1           0        3.746452    3.474143   -0.297699
     40          1           0        3.926010    2.375294    1.071199
 ---------------------------------------------------------------------

 SCF Done:  E(UB3LYP) =  -1279.13283196     A.U. after   33 cycles
 SCF Done:  E(UB3LYP) =  -1279.13283196     a.u. after    1 cycles

 The electronic state is 2-A.
 Alpha  occ. eigenvalues --  -88.98470 -19.02901 -19.02577 -19.02189 -14.25693
 Alpha  occ. eigenvalues --  -14.24941 -10.12940 -10.11636 -10.09181 -10.09091
 Alpha  occ. eigenvalues --  -10.08569 -10.07522 -10.06610 -10.05912 -10.05588
 Alpha  occ. eigenvalues --  -10.05548 -10.05280 -10.04832 -10.04416 -10.04009
 Alpha  occ. eigenvalues --   -8.04456  -6.00717  -6.00684  -6.00641  -1.03831
 Alpha  occ. eigenvalues --   -0.92473  -0.92163  -0.84990  -0.83098  -0.73787
 Alpha  occ. eigenvalues --   -0.70192  -0.68549  -0.66878  -0.63027  -0.61630
 Alpha  occ. eigenvalues --   -0.61194  -0.57783  -0.55747  -0.53186  -0.51223
 Alpha  occ. eigenvalues --   -0.49247  -0.48980  -0.44823  -0.43616  -0.42921
 Alpha  occ. eigenvalues --   -0.40958  -0.40694  -0.37775  -0.37381  -0.36841
 Alpha  occ. eigenvalues --   -0.36018  -0.35405  -0.35073  -0.34697  -0.33694
 Alpha  occ. eigenvalues --   -0.33128  -0.31861  -0.31116  -0.30047  -0.29704
 Alpha  occ. eigenvalues --   -0.28910  -0.27677  -0.27166  -0.26869  -0.26477
 Alpha  occ. eigenvalues --   -0.26095  -0.25752  -0.24925  -0.23841  -0.23550
 Alpha  occ. eigenvalues --   -0.23418  -0.22186  -0.20311  -0.18742  -0.18049
 Alpha  occ. eigenvalues --   -0.17331  -0.14959  -0.13473  -0.10999   0.04509
 Alpha virt. eigenvalues --    0.06122   0.06911   0.07357   0.07962   0.08764
 Alpha virt. eigenvalues --    0.09073   0.09392   0.09593   0.09821   0.10245
 Alpha virt. eigenvalues --    0.10851   0.11731   0.11982   0.12153   0.12642

  Beta  occ. eigenvalues --  -88.98459 -19.02893 -19.02568 -19.02184 -14.25689
  Beta  occ. eigenvalues --  -14.24942 -10.12938 -10.11591 -10.09178 -10.09064
  Beta  occ. eigenvalues --  -10.08577 -10.07511 -10.06640 -10.05686 -10.05623
  Beta  occ. eigenvalues --  -10.05569 -10.04912 -10.04654 -10.04407 -10.03841
  Beta  occ. eigenvalues --   -8.04444  -6.00709  -6.00672  -6.00620  -1.03806
  Beta  occ. eigenvalues --   -0.92464  -0.92146  -0.84970  -0.83045  -0.73449
  Beta  occ. eigenvalues --   -0.70177  -0.68279  -0.66509  -0.62821  -0.61458
  Beta  occ. eigenvalues --   -0.61158  -0.57604  -0.55666  -0.53092  -0.51193
  Beta  occ. eigenvalues --   -0.49142  -0.48610  -0.44699  -0.43533  -0.42859
  Beta  occ. eigenvalues --   -0.40913  -0.40627  -0.37650  -0.37323  -0.36712
  Beta  occ. eigenvalues --   -0.35906  -0.35367  -0.35019  -0.34613  -0.33608
  Beta  occ. eigenvalues --   -0.33007  -0.31507  -0.31020  -0.29895  -0.29571
  Beta  occ. eigenvalues --   -0.28853  -0.27657  -0.27155  -0.26843  -0.26389
  Beta  occ. eigenvalues --   -0.25955  -0.25383  -0.24620  -0.23790  -0.23440
  Beta  occ. eigenvalues --   -0.23330  -0.22052  -0.20205  -0.18455  -0.17947
  Beta  occ. eigenvalues --   -0.16724  -0.14864  -0.12919  -0.09660
  Beta virt. eigenvalues --    0.06190   0.07273   0.07400   0.07908   0.08763
  Beta virt. eigenvalues --    0.09096   0.09373   0.09542   0.09677   0.09979
  Beta virt. eigenvalues --    0.10474   0.10834   0.11762   0.11971   0.12139

 Mulliken charges and spin densities:
               1          2
     1  C   -0.214210  -0.456682
     2  C   -0.197010   0.203081
     3  C   -0.363137  -0.076406
     4  N   -0.386402   0.013303
     5  S    0.485068  -0.025932
     6  O   -0.202051   0.004988
     7  O   -0.246786  -0.002186
     8  N   -0.320889  -0.002182
     9  C   -0.396723   0.080231
    10  C    0.800455   0.202066
    11  C   -0.577549  -0.050095
    12  C   -0.841003   0.183432
    13  C    0.771586   0.021717
    14  C   -0.627056   0.055413
    15  C    0.332583  -0.018217
    16  C    0.664150  -0.368314
    17  C   -1.078419   0.622576
    18  C    0.780805  -1.011472
    19  O   -0.252251   0.030895
    20  C   -0.647201  -0.023522
    21  H    0.112510   0.032781
    22  H    0.054516   0.134066
    23  H    0.014035   0.113161
    24  H    0.070502   0.084285
    25  H    0.112561   0.046562
    26  H    0.198611  -0.004881
    27  H    0.141043   0.039314
    28  H    0.278594   0.032096
    29  H    0.328615  -0.001488
    30  H    0.095575   0.004564
    31  H    0.089026   0.005843
    32  H   -0.057394  -0.028669
    33  H    0.032903   0.154408
    34  H   -0.033014   0.178050
    35  H   -0.601465   0.770591
    36  H    0.019398   0.095674
    37  H    0.258862  -0.092822
    38  H    0.168311   0.015420
    39  H    0.146395   0.000009
    40  H    0.086460   0.038343
 Sum of Mulliken charges =  -1.00000   1.00000

 Dipole moment (field-independent basis, Debye):
    X=              5.6386    Y=             -1.6029    Z=              0.9908  Tot=              5.9451
 Quadrupole moment (field-independent basis, Debye-Ang):
   XX=           -223.3256   YY=           -159.2933   ZZ=           -145.7883
   XY=              1.8247   XZ=              5.1187   YZ=             -0.4086

 Summary of Natural Population Analysis:

                                       Natural Population
                Natural  -----------------------------------------------
    Atom  No    Charge         Core      Valence    Rydberg      Total
 -----------------------------------------------------------------------
      C    1   -0.29807      0.99966     2.29242    0.00599     3.29807
      C    2   -0.19409      0.99964     2.18586    0.00859     3.19409
      C    3   -0.09144      0.99962     2.08106    0.01076     3.09144
      N    4   -0.43671      0.99974     2.92364    0.01333     3.93671
      S    5    1.16199      4.99935     1.73558    0.10307     6.83801
      O    6   -0.46559      0.99990     3.46063    0.00505     4.46559
      O    7   -0.45733      0.99990     3.45234    0.00509     4.45733
      N    8   -0.42577      0.99971     2.91231    0.01376     3.92577
      C    9    0.05220      0.99940     1.93550    0.01290     2.94780
      C   10    0.04174      0.99947     1.95136    0.00743     2.95826
      C   11   -0.11747      0.99954     2.11014    0.00779     3.11747
      C   12   -0.04813      0.99954     2.03788    0.01070     3.04813
      C   13   -0.04668      0.99950     2.03490    0.01228     3.04668
      C   14   -0.07295      0.99948     2.06447    0.00900     3.07295
      C   15    0.02604      0.99926     1.96481    0.00989     2.97396
      C   16   -0.01196      0.99933     2.00166    0.01097     3.01196
      C   17   -0.23808      0.99958     2.22940    0.00910     3.23808
      C   18   -0.00009      0.99962     1.98684    0.01364     3.00009
      O   19   -0.37259      0.99990     3.36596    0.00673     4.37259
      C   20   -0.30069      0.99965     2.29636    0.00468     3.30069
      H   21    0.09894      0.00000     0.39996    0.00110     0.40106
      H   22    0.11459      0.00000     0.38443    0.00098     0.38541
      H   23    0.09253      0.00000     0.40660    0.00087     0.40747
      H   24    0.09781      0.00000     0.40079    0.00140     0.40219
      H   25    0.09745      0.00000     0.40170    0.00085     0.40255
      H   26    0.10709      0.00000     0.39174    0.00117     0.39291
      H   27    0.08855      0.00000     0.41009    0.00135     0.41145
      H   28    0.19978      0.00000     0.29829    0.00193     0.30022
      H   29    0.19674      0.00000     0.30166    0.00160     0.30326
      H   30    0.09237      0.00000     0.40669    0.00093     0.40763
      H   31    0.09538      0.00000     0.40379    0.00083     0.40462
      H   32    0.09824      0.00000     0.39968    0.00208     0.40176
      H   33    0.11065      0.00000     0.38759    0.00175     0.38935
      H   34    0.10822      0.00000     0.39042    0.00136     0.39178
      H   35    0.08654      0.00000     0.41060    0.00285     0.41346
      H   36    0.07475      0.00000     0.42377    0.00147     0.42525
      H   37    0.23140      0.00000     0.26447    0.00413     0.26860
      H   38    0.11186      0.00000     0.38701    0.00113     0.38814
      H   39    0.09910      0.00000     0.40010    0.00080     0.40090
      H   40    0.09578      0.00000     0.40310    0.00112     0.40422
 =======================================================================
   * Total *    0.00211     23.99181    54.69561    0.31047    78.99789

 Normal termination of Gaussian 16 at Sat Dec 12 18:38:24 2020.
