 Gaussian 16, Revision A.03,

 -----------------------------------------------------------
 # opt freq B3LYP/6-31G(d) empiricaldispersion=gd3bj scf=xqc
 -----------------------------------------------------------

 ------------------------------
 CID_55021515_JID_7093_neutraal
 ------------------------------
 Symbolic Z-matrix:
 Charge =  0 Multiplicity = 1

 SCF Done:  E(RB3LYP) =  -1052.09290739     A.U. after   15 cycles
 SCF Done:  E(RB3LYP) =  -1052.09793305     A.U. after   12 cycles
 SCF Done:  E(RB3LYP) =  -1052.09899676     A.U. after   12 cycles
 SCF Done:  E(RB3LYP) =  -1052.09919081     A.U. after   13 cycles
 SCF Done:  E(RB3LYP) =  -1052.09990201     A.U. after   12 cycles
 SCF Done:  E(RB3LYP) =  -1052.10023423     A.U. after   12 cycles
 SCF Done:  E(RB3LYP) =  -1052.10098707     A.U. after   13 cycles
 SCF Done:  E(RB3LYP) =  -1052.10174770     A.U. after   15 cycles
 SCF Done:  E(RB3LYP) =  -1052.10276005     A.U. after   12 cycles
 SCF Done:  E(RB3LYP) =  -1052.10350741     A.U. after   12 cycles
 SCF Done:  E(RB3LYP) =  -1052.10386076     A.U. after    9 cycles
 SCF Done:  E(RB3LYP) =  -1052.10386254     A.U. after    9 cycles
 SCF Done:  E(RB3LYP) =  -1052.10386283     A.U. after    8 cycles
 SCF Done:  E(RB3LYP) =  -1052.10386270     A.U. after    7 cycles
 SCF Done:  E(RB3LYP) =  -1052.10386265     A.U. after    6 cycles
 Optimization completed.
    -- Stationary point found.
 Normal termination of Gaussian 16 at Fri Dec 11 11:56:04 2020.

 --------------------------------------------------------------------
 #N Geom=AllCheck Guess=TCheck SCRF=Check GenChk RB3LYP/6-31G(d) Freq
 --------------------------------------------------------------------

 Structure from the checkpoint file:  "JID_7093.chk"
 ------------------------------
 CID_55021515_JID_7093_neutraal
 ------------------------------
 Charge =  0 Multiplicity = 1

 SCF Done:  E(RB3LYP) =  -1052.10386265     A.U. after    1 cycles

  Exact polarizability: 193.933  -7.638 162.410  14.860  12.851 158.887
 Approx polarizability: 246.456 -14.136 266.596  21.367  33.130 289.349

                      1                      2                      3
                      A                      A                      A
 Frequencies --     16.4535                18.3376                19.6501
 Red. masses --      3.0469                 3.7402                 4.0784
 Frc consts  --      0.0005                 0.0007                 0.0009
 IR Inten    --      0.1145                 0.0379                 0.2661

                      4                      5                      6
                      A                      A                      A
 Frequencies --     40.6682                96.9018               129.7560
 Red. masses --      4.3553                 4.6489                 3.7392
 Frc consts  --      0.0042                 0.0257                 0.0371
 IR Inten    --      0.2178                 0.6346                 1.4702

                      7                      8                      9
                      A                      A                      A
 Frequencies --    138.9366               145.2439               169.7278
 Red. masses --      1.2025                 2.4590                 1.1460
 Frc consts  --      0.0137                 0.0306                 0.0195
 IR Inten    --      0.0823                 0.8680                 0.3141

                     10                     11                     12
                      A                      A                      A
 Frequencies --    181.5084               218.6830               221.2017
 Red. masses --      3.5531                 1.4111                 2.3147
 Frc consts  --      0.0690                 0.0398                 0.0667
 IR Inten    --      0.1137                 0.2455                 1.6008

                     13                     14                     15
                      A                      A                      A
 Frequencies --    274.4804               302.2328               312.2125
 Red. masses --      2.9661                 2.3418                 2.4598
 Frc consts  --      0.1317                 0.1260                 0.1413
 IR Inten    --      1.1493                 0.4976                 3.5516

                     16                     17                     18
                      A                      A                      A
 Frequencies --    329.0180               339.9522               386.2964
 Red. masses --      3.2800                 3.4521                 2.5575
 Frc consts  --      0.2092                 0.2351                 0.2249
 IR Inten    --      3.1100                 1.8396                 1.7673

                     19                     20                     21
                      A                      A                      A
 Frequencies --    417.7451               445.5292               454.1660
 Red. masses --      3.5085                 4.9113                 3.0138
 Frc consts  --      0.3607                 0.5744                 0.3663
 IR Inten    --      3.4830                 2.7598                 4.8710

                     22                     23                     24
                      A                      A                      A
 Frequencies --    517.5170               549.0853               561.9856
 Red. masses --      2.9569                 4.4978                 4.5198
 Frc consts  --      0.4666                 0.7990                 0.8410
 IR Inten    --     36.3608                 1.0046                 6.6657

                     25                     26                     27
                      A                      A                      A
 Frequencies --    574.0886               605.3770               635.3221
 Red. masses --      5.6280                 3.5562                 3.4479
 Frc consts  --      1.0928                 0.7679                 0.8200
 IR Inten    --     10.7599                 6.7428                 4.4138

                     28                     29                     30
                      A                      A                      A
 Frequencies --    652.8664               670.1200               717.7291
 Red. masses --      3.9208                 2.4064                 2.9465
 Frc consts  --      0.9846                 0.6367                 0.8943
 IR Inten    --     16.0340                90.8990                 1.3575

                     31                     32                     33
                      A                      A                      A
 Frequencies --    734.7856               749.3824               767.6140
 Red. masses --      1.8493                 1.8662                 4.1275
 Frc consts  --      0.5883                 0.6175                 1.4329
 IR Inten    --     27.8357                10.4965                12.8999

                     34                     35                     36
                      A                      A                      A
 Frequencies --    775.0774               809.7090               812.3295
 Red. masses --      2.9269                 1.3360                 1.4682
 Frc consts  --      1.0360                 0.5161                 0.5708
 IR Inten    --     22.1305                 8.2468                25.9135

                     37                     38                     39
                      A                      A                      A
 Frequencies --    856.9915               863.8515               928.9100
 Red. masses --      3.7266                 1.5448                 1.2773
 Frc consts  --      1.6126                 0.6792                 0.6494
 IR Inten    --      2.3982                28.4294                 0.2228

                     40                     41                     42
                      A                      A                      A
 Frequencies --    942.6054               954.9914               982.5952
 Red. masses --      3.4761                 2.6497                 3.2790
 Frc consts  --      1.8197                 1.4238                 1.8653
 IR Inten    --      0.3979                 6.2617                17.0461

                     43                     44                     45
                      A                      A                      A
 Frequencies --   1006.2992              1027.3756              1034.3769
 Red. masses --      1.9329                 1.6577                 1.5178
 Frc consts  --      1.1532                 1.0309                 0.9568
 IR Inten    --      3.6001                 1.3522                10.8464

                     46                     47                     48
                      A                      A                      A
 Frequencies --   1059.6072              1073.4527              1084.6078
 Red. masses --      1.4158                 2.3300                 1.5665
 Frc consts  --      0.9366                 1.5819                 1.0857
 IR Inten    --      5.2656                22.4161                 0.0074

                     49                     50                     51
                      A                      A                      A
 Frequencies --   1101.3824              1118.5811              1155.3353
 Red. masses --      1.7081                 2.5619                 1.9772
 Frc consts  --      1.2208                 1.8886                 1.5549
 IR Inten    --     17.5119                22.3577                17.3504

                     52                     53                     54
                      A                      A                      A
 Frequencies --   1166.5807              1201.9654              1210.1096
 Red. masses --      1.7091                 2.3781                 1.6060
 Frc consts  --      1.3704                 2.0243                 1.3856
 IR Inten    --     26.0406                21.1581                14.4590

                     55                     56                     57
                      A                      A                      A
 Frequencies --   1251.7417              1256.5483              1303.5792
 Red. masses --      1.4966                 1.7580                 2.4595
 Frc consts  --      1.3816                 1.6354                 2.4625
 IR Inten    --     36.5737                 5.5728                42.2358

                     58                     59                     60
                      A                      A                      A
 Frequencies --   1309.0299              1339.7920              1356.1780
 Red. masses --      1.2288                 1.8150                 4.2205
 Frc consts  --      1.2406                 1.9195                 4.5735
 IR Inten    --      7.1984                18.0447                17.6779

                     61                     62                     63
                      A                      A                      A
 Frequencies --   1369.5081              1372.1200              1397.6958
 Red. masses --      1.5147                 2.5219                 1.5116
 Frc consts  --      1.6738                 2.7974                 1.7398
 IR Inten    --      2.6928                31.8031                 8.7133

                     64                     65                     66
                      A                      A                      A
 Frequencies --   1434.1969              1439.1784              1448.5436
 Red. masses --      1.2199                 1.2768                 1.6814
 Frc consts  --      1.4784                 1.5581                 2.0787
 IR Inten    --      1.8582                 0.5922                 0.1287

                     67                     68                     69
                      A                      A                      A
 Frequencies --   1453.5145              1506.8962              1507.2432
 Red. masses --      1.5022                 1.0459                 1.0767
 Frc consts  --      1.8699                 1.3993                 1.4411
 IR Inten    --      1.0779                 0.1093                 2.7616

                     70                     71                     72
                      A                      A                      A
 Frequencies --   1513.8570              1519.5211              1522.4052
 Red. masses --      1.0814                 1.1093                 1.0442
 Frc consts  --      1.4602                 1.5090                 1.4259
 IR Inten    --      3.6007                14.2505                12.5877

                     73                     74                     75
                      A                      A                      A
 Frequencies --   1525.4363              1526.3482              1534.1031
 Red. masses --      1.0400                 1.1850                 1.1217
 Frc consts  --      1.4259                 1.6266                 1.5553
 IR Inten    --      8.3878                 0.2228                 6.3862

                     76                     77                     78
                      A                      A                      A
 Frequencies --   1553.4812              1556.9373              1560.9191
 Red. masses --      1.9125                 4.2190                 2.3103
 Frc consts  --      2.7193                 6.0256                 3.3164
 IR Inten    --      7.6408                24.0687               145.3404

                     79                     80                     81
                      A                      A                      A
 Frequencies --   1588.5008              1642.5211              1682.6213
 Red. masses --      7.6063                 4.5596                 5.9853
 Frc consts  --     11.3084                 7.2477                 9.9841
 IR Inten    --     28.4854                15.5820                98.1397

                     82                     83                     84
                      A                      A                      A
 Frequencies --   3029.7139              3037.2422              3056.2556
 Red. masses --      1.0389                 1.0382                 1.0346
 Frc consts  --      5.6185                 5.6427                 5.6938
 IR Inten    --     47.2057                41.8303                29.6527

                     85                     86                     87
                      A                      A                      A
 Frequencies --   3063.8867              3073.2853              3073.7386
 Red. masses --      1.0616                 1.1002                 1.0630
 Frc consts  --      5.8717                 6.1223                 5.9170
 IR Inten    --     15.3572                27.7806                41.3043

                     88                     89                     90
                      A                      A                      A
 Frequencies --   3084.1563              3108.0072              3119.4400
 Red. masses --      1.1001                 1.1023                 1.0990
 Frc consts  --      6.1652                 6.2736                 6.3009
 IR Inten    --     19.2269                 1.4108                24.0169

                     91                     92                     93
                      A                      A                      A
 Frequencies --   3120.9398              3125.6393              3128.2452
 Red. masses --      1.1025                 1.0999                 1.1026
 Frc consts  --      6.3269                 6.3313                 6.3573
 IR Inten    --     13.3109                14.4647                34.0230

                     94                     95                     96
                      A                      A                      A
 Frequencies --   3137.5718              3160.8446              3172.8948
 Red. masses --      1.1042                 1.0893                 1.0887
 Frc consts  --      6.4042                 6.4119                 6.4577
 IR Inten    --     25.6136                26.3025                20.2937

                     97                     98                     99
                      A                      A                      A
 Frequencies --   3218.0219              3276.4839              3557.7199
 Red. masses --      1.0910                 1.0947                 1.0747
 Frc consts  --      6.6564                 6.9242                 8.0145
 IR Inten    --     23.5433                 1.5697                 7.1041

 - Thermochemistry -
 -------------------
 Temperature   298.150 Kelvin.  Pressure   1.00000 Atm.
 Atom     1 has atomic number  6 and mass  12.00000

 Molecular mass:   246.11907 amu.
 Principal axes and moments of inertia in atomic units:
                           1         2         3
     Eigenvalues --  2449.309078730.380378924.29756
           X            0.99989   0.00024   0.01456
           Y           -0.00101   0.99860   0.05289
           Z           -0.01453  -0.05290   0.99849
 This molecule is an asymmetric top.
 Rotational symmetry number  1.
 Warning -- assumption of classical behavior for rotation
           may cause significant error
 Rotational temperatures (Kelvin)      0.03536     0.00992     0.00971
 Rotational constants (GHZ):           0.73684     0.20672     0.20223
 Zero-point vibrational energy     775047.4 (Joules/Mol)
                                  185.24078 (Kcal/Mol)
 Warning -- explicit consideration of  26 degrees of freedom as
           vibrations may cause significant error
 Vibrational temperatures:     23.67    26.38    28.27    58.51   139.42
          (Kelvin)            186.69   199.90   208.97   244.20   261.15
                              314.64   318.26   394.92   434.85   449.20
                              473.38   489.12   555.79   601.04   641.02
                              653.44   744.59   790.01   808.57   825.99
                              871.00   914.09   939.33   964.15  1032.65
                             1057.19  1078.19  1104.43  1115.16  1164.99
                             1168.76  1233.02  1242.89  1336.49  1356.20
                             1374.02  1413.74  1447.84  1478.16  1488.24
                             1524.54  1544.46  1560.51  1584.64  1609.39
                             1662.27  1678.45  1729.36  1741.08  1800.98
                             1807.89  1875.56  1883.40  1927.66  1951.24
                             1970.42  1974.17  2010.97  2063.49  2070.66
                             2084.13  2091.28  2168.09  2168.59  2178.10
                             2186.25  2190.40  2194.76  2196.07  2207.23
                             2235.11  2240.09  2245.81  2285.50  2363.22
                             2420.92  4359.08  4369.91  4397.27  4408.25
                             4421.77  4422.42  4437.41  4471.73  4488.18
                             4490.34  4497.10  4500.85  4514.27  4547.75
                             4565.09  4630.02  4714.13  5118.77

 Zero-point correction=                           0.295200 (Hartree/Particle)
 Thermal correction to Energy=                    0.312488
 Thermal correction to Enthalpy=                  0.313433
 Thermal correction to Gibbs Free Energy=         0.246874
 Sum of electronic and zero-point Energies=          -1051.808663
 Sum of electronic and thermal Energies=             -1051.791374
 Sum of electronic and thermal Enthalpies=           -1051.790430
 Sum of electronic and thermal Free Energies=        -1051.856988

                     E (Thermal)             CV                S
                      KCal/Mol        Cal/Mol-Kelvin    Cal/Mol-Kelvin
 Total                  196.089             64.876            140.083
 Electronic               0.000              0.000              0.000
 Translational            0.889              2.981             42.403
 Rotational               0.889              2.981             33.611
 Vibrational            194.312             58.914             64.069
 Vibration     1          0.593              1.986              7.022
 Vibration     2          0.593              1.986              6.807
 Vibration     3          0.593              1.986              6.669
 Vibration     4          0.594              1.981              5.226
 Vibration     5          0.603              1.951              3.516
 Vibration     6          0.612              1.924              2.950
 Vibration     7          0.615              1.914              2.818
 Vibration     8          0.617              1.908              2.734
 Vibration     9          0.625              1.880              2.438
 Vibration    10          0.630              1.865              2.313
 Vibration    11          0.646              1.813              1.970
 Vibration    12          0.648              1.809              1.949
 Vibration    13          0.677              1.720              1.568
 Vibration    14          0.694              1.669              1.405
 Vibration    15          0.701              1.650              1.351
 Vibration    16          0.712              1.618              1.265
 Vibration    17          0.720              1.596              1.212
 Vibration    18          0.755              1.499              1.014
 Vibration    19          0.781              1.432              0.900
 Vibration    20          0.805              1.371              0.809
 Vibration    21          0.813              1.352              0.783
 Vibration    22          0.873              1.211              0.616
 Vibration    23          0.904              1.142              0.546
 Vibration    24          0.918              1.114              0.520
 Vibration    25          0.930              1.087              0.496
 Vibration    26          0.964              1.020              0.441

                           ! Non-Optimized Parameters !
 Normal termination of Gaussian 16 at Fri Dec 11 12:08:49 2020.

 ----------------------------------------------------------------------
 # B3LYP/6-311++G(d,p) empiricaldispersion=gd3bj scf=xqc pop=npa geom=c
 heck
 ----------------------------------------------------------------------

 --------------------------------------
 CID_55021515_JID_7093_Energie_neutraal
 --------------------------------------
 Structure from the checkpoint file:  "JID_7093.chk"
 Charge =  0 Multiplicity = 1

 SCF Done:  E(RB3LYP) =  -1052.30342760     A.U. after   17 cycles
 Normal termination of Gaussian 16 at Fri Dec 11 12:14:58 2020.

 ----------------------------------------------------------------------
 # B3LYP/6-311++G(d,p) empiricaldispersion=gd3bj scf=xqc pop=npa geom=c
 heck
 ----------------------------------------------------------------------

 ------------------------------------
 CID_55021515_JID_7093_Energie_kation
 ------------------------------------
 Structure from the checkpoint file:  "JID_7093.chk"
 Charge =  1 Multiplicity = 2

 SCF Done:  E(UB3LYP) =  -1052.04433589     A.U. after   26 cycles
 Normal termination of Gaussian 16 at Fri Dec 11 12:28:48 2020.
 Gaussian 16:  ES64L-G16RevA.03 25-Dec-2016

 ----------------------------------------------------------------------
 # B3LYP/6-311++G(d,p) empiricaldispersion=gd3bj scf=xqc pop=npa geom=c
 heck
 ----------------------------------------------------------------------

 -----------------------------------
 CID_55021515_JID_7093_Energie_anion
 -----------------------------------
 Structure from the checkpoint file:  "JID_7093.chk"
 Charge = -1 Multiplicity = 2

                         Standard orientation:
 ---------------------------------------------------------------------
 Center     Atomic      Atomic             Coordinates (Angstroms)
 Number     Number       Type             X           Y           Z
 ---------------------------------------------------------------------
      1          6           0        5.036557    1.657433    0.232044
      2          6           0        3.562356    1.879956   -0.145758
      3          6           0        2.785929    0.597577   -0.188646
      4          7           0        2.118036    0.107057    0.814470
      5          6           0        1.556690   -1.120682    0.510874
      6          6           0        1.804892   -1.575288   -0.751356
      7         16           0        2.785482   -0.435163   -1.620113
      8          6           0        0.692739   -1.775570    1.558060
      9          7           0       -0.446339   -0.953927    1.957839
     10          6           0       -1.433601   -0.622859    1.017553
     11          6           0       -2.179667    0.554470    1.195414
     12          6           0       -3.213828    0.914177    0.335252
     13          6           0       -3.531959    0.082153   -0.758996
     14          6           0       -2.785563   -1.083369   -0.934290
     15          6           0       -1.750103   -1.442981   -0.072911
     16          6           0       -4.641551    0.442152   -1.714884
     17          6           0       -3.981596    2.190960    0.573689
     18          1           0        5.110402    1.168335    1.208385
     19          1           0        5.569726    2.612839    0.281395
     20          1           0        5.539458    1.022203   -0.504864
     21          1           0        3.079420    2.523841    0.596221
     22          1           0        3.497868    2.388241   -1.114780
     23          1           0        1.454801   -2.485929   -1.216435
     24          1           0        0.339378   -2.749025    1.207786
     25          1           0        1.284664   -1.959024    2.461127
     26          1           0       -0.131725   -0.136138    2.468882
     27          1           0       -1.940814    1.203430    2.036322
     28          1           0       -3.015403   -1.733790   -1.775435
     29          1           0       -1.200828   -2.359312   -0.255796
     30          1           0       -5.610433    0.529581   -1.205310
     31          1           0       -4.460794    1.405517   -2.210341
     32          1           0       -4.746393   -0.316853   -2.496365
     33          1           0       -3.609839    2.719226    1.456658
     34          1           0       -3.905782    2.873126   -0.282895
     35          1           0       -5.051071    1.995652    0.724831
 ---------------------------------------------------------------------

 SCF Done:  E(UB3LYP) =  -1052.29202867     A.U. after   33 cycles
 SCF Done:  E(UB3LYP) =  -1052.29202867     a.u. after    1 cycles

 The electronic state is 2-A.
 Alpha  occ. eigenvalues --  -88.76587 -14.22482 -14.19799 -10.11887 -10.11467
 Alpha  occ. eigenvalues --  -10.11338 -10.09764 -10.08772 -10.08480 -10.07697
 Alpha  occ. eigenvalues --  -10.07589 -10.07503 -10.07453 -10.07418 -10.06972
 Alpha  occ. eigenvalues --  -10.06937 -10.06333  -7.85244  -5.81517  -5.81172
 Alpha  occ. eigenvalues --   -5.80856  -0.85758  -0.83484  -0.75734  -0.69444
 Alpha  occ. eigenvalues --   -0.68622  -0.67671  -0.66882  -0.63965  -0.60367
 Alpha  occ. eigenvalues --   -0.58274  -0.56315  -0.53107  -0.50926  -0.47958
 Alpha  occ. eigenvalues --   -0.47019  -0.43402  -0.42332  -0.40030  -0.38488
 Alpha  occ. eigenvalues --   -0.36709  -0.35456  -0.35137  -0.34211  -0.34093
 Alpha  occ. eigenvalues --   -0.33480  -0.31882  -0.30780  -0.30706  -0.30021
 Alpha  occ. eigenvalues --   -0.29606  -0.29414  -0.28890  -0.27964  -0.26384
 Alpha  occ. eigenvalues --   -0.25921  -0.25641  -0.25187  -0.24697  -0.24104
 Alpha  occ. eigenvalues --   -0.19560  -0.17513  -0.16872  -0.15187  -0.13452
 Alpha  occ. eigenvalues --   -0.10581   0.04319
 Alpha virt. eigenvalues --    0.05672   0.06681   0.07132   0.07355   0.08065
 Alpha virt. eigenvalues --    0.08497   0.08641   0.09092   0.09333   0.09857
 Alpha virt. eigenvalues --    0.09862   0.10122   0.10718   0.10937   0.11283

  Beta  occ. eigenvalues --  -88.76562 -14.22476 -14.19751 -10.11682 -10.11466
  Beta  occ. eigenvalues --  -10.11338 -10.09765 -10.08647 -10.08476 -10.07698
  Beta  occ. eigenvalues --  -10.07588 -10.07497 -10.07429 -10.07394 -10.06971
  Beta  occ. eigenvalues --  -10.06930 -10.06278  -7.85220  -5.81508  -5.81162
  Beta  occ. eigenvalues --   -5.80771  -0.85620  -0.83433  -0.75723  -0.69302
  Beta  occ. eigenvalues --   -0.68459  -0.67636  -0.66858  -0.63914  -0.60304
  Beta  occ. eigenvalues --   -0.58213  -0.56235  -0.52982  -0.50902  -0.47837
  Beta  occ. eigenvalues --   -0.46959  -0.43334  -0.42221  -0.39999  -0.38407
  Beta  occ. eigenvalues --   -0.36685  -0.35396  -0.35060  -0.34118  -0.34057
  Beta  occ. eigenvalues --   -0.33402  -0.31855  -0.30704  -0.30631  -0.29780
  Beta  occ. eigenvalues --   -0.29564  -0.29376  -0.28853  -0.27879  -0.26222
  Beta  occ. eigenvalues --   -0.25800  -0.25583  -0.25124  -0.24645  -0.24086
  Beta  occ. eigenvalues --   -0.19528  -0.17024  -0.16777  -0.15142  -0.12813
  Beta  occ. eigenvalues --   -0.10564
  Beta virt. eigenvalues --    0.06098   0.06725   0.07023   0.07483   0.08130
  Beta virt. eigenvalues --    0.08374   0.08675   0.08799   0.09141   0.09704
  Beta virt. eigenvalues --    0.09980   0.10194   0.10251   0.10856   0.11071

 Mulliken charges and spin densities:
               1          2
     1  C    0.560955  -0.993729
     2  C   -0.499389   0.701440
     3  C    0.328026  -0.233502
     4  N    0.037835   0.094259
     5  C   -0.069850  -0.469509
     6  C   -0.087936   0.681260
     7  S   -0.022040  -0.481820
     8  C   -0.317082  -0.519946
     9  N    0.129332   0.013791
    10  C   -0.290983  -0.351569
    11  C   -0.061394  -0.661594
    12  C   -0.764354   1.395115
    13  C   -1.315090   1.712393
    14  C   -0.406147  -0.548182
    15  C    0.604864   0.246581
    16  C    1.138616  -1.753525
    17  C    0.899804  -1.452049
    18  H    0.042020   0.103391
    19  H   -0.598914   0.760714
    20  H   -0.000386   0.116717
    21  H   -0.016824   0.173123
    22  H   -0.252342   0.408046
    23  H    0.068888   0.178372
    24  H    0.087006   0.055431
    25  H    0.094336   0.088368
    26  H    0.208622   0.013401
    27  H   -0.037082   0.157426
    28  H    0.035286   0.095237
    29  H    0.067895   0.027017
    30  H   -0.063465   0.205597
    31  H   -0.025241   0.173827
    32  H   -0.161166   0.305200
    33  H   -0.217283   0.362390
    34  H   -0.067326   0.219929
    35  H   -0.029193   0.176398
 Sum of Mulliken charges =  -1.00000   1.00000

 Dipole moment (field-independent basis, Debye):
    X=             -2.0881    Y=             -5.9229    Z=              0.8108  Tot=              6.3324
 Quadrupole moment (field-independent basis, Debye-Ang):
   XX=           -215.7437   YY=           -151.0604   ZZ=           -139.3765
   XY=            -13.5476   XZ=             -2.2062   YZ=              2.9926

 Summary of Natural Population Analysis:

                                       Natural Population
                Natural  -----------------------------------------------
    Atom  No    Charge         Core      Valence    Rydberg      Total
 -----------------------------------------------------------------------
      C    1   -0.27789      0.99966     2.27287    0.00536     3.27789
      C    2   -0.21705      0.99958     2.20678    0.01069     3.21705
      C    3    0.08322      0.99961     1.89872    0.01846     2.91678
      N    4   -0.25417      0.99962     2.74321    0.01134     3.75417
      C    5    0.04742      0.99948     1.93987    0.01323     2.95258
      C    6   -0.18583      0.99945     2.17701    0.00937     3.18583
      S    7    0.18035      4.99943     2.80082    0.01939     7.81965
      C    8   -0.09487      0.99957     2.08395    0.01134     3.09487
      N    9   -0.31203      0.99969     2.80209    0.01024     3.81203
      C   10    0.09195      0.99948     1.89816    0.01041     2.90805
      C   11   -0.11578      0.99948     2.10764    0.00865     3.11578
      C   12   -0.00681      0.99948     1.99767    0.00966     3.00681
      C   13   -0.03851      0.99947     2.02882    0.01022     3.03851
      C   14   -0.08774      0.99953     2.07957    0.00865     3.08774
      C   15   -0.12974      0.99952     2.12242    0.00780     3.12974
      C   16   -0.29279      0.99964     2.28771    0.00545     3.29279
      C   17   -0.29191      0.99964     2.28756    0.00471     3.29191
      H   18    0.09825      0.00000     0.40066    0.00109     0.40175
      H   19    0.10093      0.00000     0.39645    0.00261     0.39907
      H   20    0.09572      0.00000     0.40327    0.00101     0.40428
      H   21    0.11059      0.00000     0.38766    0.00175     0.38941
      H   22    0.10488      0.00000     0.39328    0.00184     0.39512
      H   23    0.10654      0.00000     0.39224    0.00122     0.39346
      H   24    0.09485      0.00000     0.40353    0.00161     0.40515
      H   25    0.10221      0.00000     0.39676    0.00103     0.39779
      H   26    0.18504      0.00000     0.31198    0.00298     0.31496
      H   27    0.09566      0.00000     0.40276    0.00158     0.40434
      H   28    0.09551      0.00000     0.40358    0.00092     0.40449
      H   29    0.09865      0.00000     0.39981    0.00154     0.40135
      H   30    0.10115      0.00000     0.39771    0.00113     0.39885
      H   31    0.10277      0.00000     0.39610    0.00113     0.39723
      H   32    0.10036      0.00000     0.39872    0.00092     0.39964
      H   33    0.10184      0.00000     0.39722    0.00094     0.39816
      H   34    0.10476      0.00000     0.39386    0.00138     0.39524
      H   35    0.10246      0.00000     0.39622    0.00132     0.39754
 =======================================================================
   * Total *    0.00000     20.99233    44.80669    0.20098    66.00000

 Normal termination of Gaussian 16 at Fri Dec 11 12:51:15 2020.
