 Gaussian 16, Revision A.03,

 -----------------------------------------------------------
 # opt freq B3LYP/6-31G(d) empiricaldispersion=gd3bj scf=xqc
 -----------------------------------------------------------

 -------------------------------
 CID_106397852_JID_7273_neutraal
 -------------------------------
 Symbolic Z-matrix:
 Charge =  0 Multiplicity = 1

 SCF Done:  E(RB3LYP) =  -804.535802995     A.U. after   14 cycles
 SCF Done:  E(RB3LYP) =  -804.541364643     A.U. after   13 cycles
 SCF Done:  E(RB3LYP) =  -804.521562160     A.U. after   15 cycles
 SCF Done:  E(RB3LYP) =  -804.539371936     A.U. after   13 cycles
 SCF Done:  E(RB3LYP) =  -804.543914445     A.U. after   11 cycles
 SCF Done:  E(RB3LYP) =  -804.540010254     A.U. after   15 cycles
 SCF Done:  E(RB3LYP) =  -804.545668400     A.U. after   12 cycles
 SCF Done:  E(RB3LYP) =  -804.545542328     A.U. after   12 cycles
 SCF Done:  E(RB3LYP) =  -804.546269720     A.U. after   11 cycles
 SCF Done:  E(RB3LYP) =  -804.546428794     A.U. after   11 cycles
 SCF Done:  E(RB3LYP) =  -804.546543382     A.U. after    8 cycles
 SCF Done:  E(RB3LYP) =  -804.546545009     A.U. after    8 cycles
 SCF Done:  E(RB3LYP) =  -804.546545322     A.U. after    8 cycles
 SCF Done:  E(RB3LYP) =  -804.546545780     A.U. after    8 cycles
 SCF Done:  E(RB3LYP) =  -804.546546015     A.U. after    8 cycles
 Optimization completed.
    -- Stationary point found.
 Normal termination of Gaussian 16 at Mon Dec 14 16:48:55 2020.

 --------------------------------------------------------------------
 #N Geom=AllCheck Guess=TCheck SCRF=Check GenChk RB3LYP/6-31G(d) Freq
 --------------------------------------------------------------------

 Structure from the checkpoint file:  "JID_7273.chk"
 -------------------------------
 CID_106397852_JID_7273_neutraal
 -------------------------------
 Charge =  0 Multiplicity = 1

 SCF Done:  E(RB3LYP) =  -804.546546015     A.U. after    1 cycles

  Exact polarizability: 153.338   1.906 144.487  -6.765   5.633 129.158
 Approx polarizability: 212.186   2.828 188.755 -19.052  13.595 219.711

                      1                      2                      3
                      A                      A                      A
 Frequencies --     30.5910                40.4965                61.1385
 Red. masses --      6.6724                 3.5613                 3.3112
 Frc consts  --      0.0037                 0.0034                 0.0073
 IR Inten    --      0.0106                 0.2633                 1.0616

                      4                      5                      6
                      A                      A                      A
 Frequencies --     73.5688                83.1685                94.1639
 Red. masses --      3.8058                 3.1821                 4.1590
 Frc consts  --      0.0121                 0.0130                 0.0217
 IR Inten    --      0.3652                 0.3155                 1.0742

                      7                      8                      9
                      A                      A                      A
 Frequencies --     99.3769               126.3352               138.9985
 Red. masses --      3.6141                 2.8942                 3.7485
 Frc consts  --      0.0210                 0.0272                 0.0427
 IR Inten    --      4.5704                 1.0780                 0.1062

                     10                     11                     12
                      A                      A                      A
 Frequencies --    153.3089               187.3801               206.3832
 Red. masses --      6.0589                 2.5000                 2.4110
 Frc consts  --      0.0839                 0.0517                 0.0605
 IR Inten    --      8.1866                 2.0889                 3.4943

                     13                     14                     15
                      A                      A                      A
 Frequencies --    230.4346               255.3873               278.9485
 Red. masses --      1.5388                 2.7478                 3.4148
 Frc consts  --      0.0481                 0.1056                 0.1566
 IR Inten    --      2.9591                 4.0492                 7.4072

                     16                     17                     18
                      A                      A                      A
 Frequencies --    312.9958               326.0576               347.8809
 Red. masses --      1.9062                 2.4804                 1.9996
 Frc consts  --      0.1100                 0.1554                 0.1426
 IR Inten    --      1.9741                 4.1146                 0.3533

                     19                     20                     21
                      A                      A                      A
 Frequencies --    361.5486               413.1782               427.5814
 Red. masses --      5.6916                 2.6801                 2.1700
 Frc consts  --      0.4383                 0.2696                 0.2337
 IR Inten    --     17.7053                 2.5421                 0.7678

                     22                     23                     24
                      A                      A                      A
 Frequencies --    438.4079               485.8014               515.2783
 Red. masses --      2.9838                 2.2512                 2.1327
 Frc consts  --      0.3379                 0.3130                 0.3336
 IR Inten    --      2.7676                 1.8206                 5.2817

                     25                     26                     27
                      A                      A                      A
 Frequencies --    560.5952               581.7811               600.8408
 Red. masses --      3.0876                 2.5564                 6.8154
 Frc consts  --      0.5717                 0.5098                 1.4496
 IR Inten    --     16.4985                30.3450                 2.4565

                     28                     29                     30
                      A                      A                      A
 Frequencies --    628.1799               659.8588               689.2992
 Red. masses --      2.1829                 1.4625                 3.1352
 Frc consts  --      0.5075                 0.3752                 0.8777
 IR Inten    --     63.5177                 9.7654                10.6155

                     31                     32                     33
                      A                      A                      A
 Frequencies --    694.0090               780.1133               804.8730
 Red. masses --      5.0271                 2.0644                 2.0722
 Frc consts  --      1.4266                 0.7402                 0.7909
 IR Inten    --     25.1862                 3.1489                23.3516

                     34                     35                     36
                      A                      A                      A
 Frequencies --    822.3454               854.1757               864.2928
 Red. masses --      2.9368                 2.1152                 1.9347
 Frc consts  --      1.1701                 0.9093                 0.8515
 IR Inten    --      2.5915                 3.4967                 2.0543

                     37                     38                     39
                      A                      A                      A
 Frequencies --    896.2993               937.8168               956.5443
 Red. masses --      2.0911                 2.1623                 2.2743
 Frc consts  --      0.9898                 1.1205                 1.2261
 IR Inten    --     20.7376                 2.7625                 1.6430

                     40                     41                     42
                      A                      A                      A
 Frequencies --    961.8692               988.7964              1000.5344
 Red. masses --      1.3941                 2.0194                 1.8484
 Frc consts  --      0.7599                 1.1633                 1.0902
 IR Inten    --     22.0721                12.4999                 7.7023

                     43                     44                     45
                      A                      A                      A
 Frequencies --   1010.4925              1034.4814              1046.6709
 Red. masses --      1.8499                 1.6538                 1.3793
 Frc consts  --      1.1129                 1.0428                 0.8903
 IR Inten    --     10.6056                17.1964                32.1638

                     46                     47                     48
                      A                      A                      A
 Frequencies --   1054.3615              1075.9972              1088.4226
 Red. masses --      2.4084                 4.3760                 2.1579
 Frc consts  --      1.5775                 2.9850                 1.5062
 IR Inten    --      2.1924                 6.5100                23.0891

                     49                     50                     51
                      A                      A                      A
 Frequencies --   1107.5812              1129.4802              1154.3298
 Red. masses --      2.4077                 1.9185                 2.6097
 Frc consts  --      1.7403                 1.4420                 2.0488
 IR Inten    --      9.6958                 5.1456                39.1723

                     52                     53                     54
                      A                      A                      A
 Frequencies --   1157.3898              1171.9674              1199.4301
 Red. masses --      2.5562                 3.0083                 1.6717
 Frc consts  --      2.0175                 2.4344                 1.4170
 IR Inten    --    126.3528                30.4263                17.2113

                     55                     56                     57
                      A                      A                      A
 Frequencies --   1209.3552              1270.7201              1272.4139
 Red. masses --      1.7766                 2.1776                 1.2529
 Frc consts  --      1.5309                 2.0717                 1.1951
 IR Inten    --     17.2627                90.4236                 7.7097

                     58                     59                     60
                      A                      A                      A
 Frequencies --   1278.0650              1293.0149              1299.8930
 Red. masses --      1.6411                 1.3594                 1.2877
 Frc consts  --      1.5794                 1.3390                 1.2820
 IR Inten    --      4.0028                20.3931                 9.5531

                     61                     62                     63
                      A                      A                      A
 Frequencies --   1308.4938              1331.8660              1341.0680
 Red. masses --      1.5430                 1.2272                 1.2226
 Frc consts  --      1.5566                 1.2826                 1.2955
 IR Inten    --      9.7249                 5.0407                 0.8366

                     64                     65                     66
                      A                      A                      A
 Frequencies --   1380.3206              1386.5261              1392.7719
 Red. masses --      1.3344                 1.4577                 1.3201
 Frc consts  --      1.4980                 1.6511                 1.5087
 IR Inten    --     10.4087                68.2249                48.8346

                     67                     68                     69
                      A                      A                      A
 Frequencies --   1401.4693              1405.1925              1421.2929
 Red. masses --      1.6801                 1.2513                 1.2488
 Frc consts  --      1.9443                 1.4558                 1.4863
 IR Inten    --     62.4843                18.7105                29.5027

                     70                     71                     72
                      A                      A                      A
 Frequencies --   1427.0443              1440.4070              1445.6408
 Red. masses --      2.0237                 1.3007                 1.3939
 Frc consts  --      2.4281                 1.5899                 1.7163
 IR Inten    --     84.7644                 1.2302                14.5102

                     73                     74                     75
                      A                      A                      A
 Frequencies --   1480.1430              1489.7900              1495.5423
 Red. masses --      1.1700                 1.0880                 1.0863
 Frc consts  --      1.5103                 1.4227                 1.4315
 IR Inten    --      1.4416                 5.3701                 5.8458

                     76                     77                     78
                      A                      A                      A
 Frequencies --   1504.1646              1506.0550              1516.2432
 Red. masses --      1.0996                 1.1153                 1.2250
 Frc consts  --      1.4658                 1.4904                 1.6592
 IR Inten    --      3.9540                20.7623                27.8703

                     79                     80                     81
                      A                      A                      A
 Frequencies --   1526.9740              1535.1613              1539.0042
 Red. masses --      1.0419                 1.0558                 1.0842
 Frc consts  --      1.4313                 1.4661                 1.5130
 IR Inten    --     10.1863                 1.4274                 4.3017

                     82                     83                     84
                      A                      A                      A
 Frequencies --   1549.0079              1733.0696              1790.2218
 Red. masses --      1.1154                 4.3752                12.3473
 Frc consts  --      1.5769                 7.7425                23.3151
 IR Inten    --      4.8762                 7.7988               604.8987

                     85                     86                     87
                      A                      A                      A
 Frequencies --   1861.3086              2966.1355              3023.7925
 Red. masses --     11.9485                 1.0732                 1.0723
 Frc consts  --     24.3893                 5.5631                 5.7764
 IR Inten    --     52.4864                74.9133                32.4441

                     88                     89                     90
                      A                      A                      A
 Frequencies --   3038.2366              3066.4868              3074.3604
 Red. masses --      1.0625                 1.0356                 1.0736
 Frc consts  --      5.7787                 5.7376                 5.9786
 IR Inten    --     38.9411                16.7051                27.5864

                     91                     92                     93
                      A                      A                      A
 Frequencies --   3081.5665              3083.1830              3090.2788
 Red. masses --      1.0887                 1.0804                 1.0879
 Frc consts  --      6.0914                 6.0513                 6.1213
 IR Inten    --     32.0801                 4.7051                25.5115

                     94                     95                     96
                      A                      A                      A
 Frequencies --   3093.0947              3095.7753              3112.0269
 Red. masses --      1.0746                 1.0604                 1.0885
 Frc consts  --      6.0575                 5.9874                 6.2112
 IR Inten    --     16.9601                15.0330                33.9508

                     97                     98                     99
                      A                      A                      A
 Frequencies --   3135.1217              3137.7565              3141.5850
 Red. masses --      1.1019                 1.1016                 1.1025
 Frc consts  --      6.3814                 6.3900                 6.4113
 IR Inten    --     19.7054                 2.5506                 5.9792

                    100                    101                    102
                      A                      A                      A
 Frequencies --   3143.8124              3147.0979              3161.1165
 Red. masses --      1.0842                 1.0969                 1.1024
 Frc consts  --      6.3138                 6.4008                 6.4905
 IR Inten    --     23.4463                19.3501                 4.8084

                    103                    104                    105
                      A                      A                      A
 Frequencies --   3162.7934              3242.6694              3559.0633
 Red. masses --      1.0713                 1.1167                 1.0738
 Frc consts  --      6.3141                 6.9182                 8.0136
 IR Inten    --     17.8702                12.1614                 1.7942

 - Thermochemistry -
 -------------------
 Temperature   298.150 Kelvin.  Pressure   1.00000 Atm.
 Atom     1 has atomic number  6 and mass  12.00000

 Molecular mass:   240.14739 amu.
 Principal axes and moments of inertia in atomic units:
                           1         2         3
     Eigenvalues --  2888.589394886.098146321.97263
           X            0.99995   0.00905   0.00479
           Y           -0.00903   0.99995  -0.00434
           Z           -0.00483   0.00430   0.99998
 This molecule is an asymmetric top.
 Rotational symmetry number  1.
 Warning -- assumption of classical behavior for rotation
           may cause significant error
 Rotational temperatures (Kelvin)      0.02998     0.01773     0.01370
 Rotational constants (GHZ):           0.62478     0.36936     0.28547
 Zero-point vibrational energy     840911.6 (Joules/Mol)
                                  200.98269 (Kcal/Mol)
 Warning -- explicit consideration of  27 degrees of freedom as
           vibrations may cause significant error
 Vibrational temperatures:     44.01    58.27    87.96   105.85   119.66
          (Kelvin)            135.48   142.98   181.77   199.99   220.58
                              269.60   296.94   331.54   367.45   401.34
                              450.33   469.12   500.52   520.19   594.47
                              615.19   630.77   698.96   741.37   806.57
                              837.05   864.48   903.81   949.39   991.75
                              998.52  1122.41  1158.03  1183.17  1228.97
                             1243.52  1289.57  1349.31  1376.25  1383.92
                             1422.66  1439.55  1453.87  1488.39  1505.93
                             1516.99  1548.12  1566.00  1593.56  1625.07
                             1660.82  1665.23  1686.20  1725.71  1739.99
                             1828.28  1830.72  1838.85  1860.36  1870.26
                             1882.63  1916.26  1929.50  1985.97  1994.90
                             2003.89  2016.40  2021.76  2044.92  2053.20
                             2072.42  2079.95  2129.60  2143.48  2151.75
                             2164.16  2166.88  2181.54  2196.97  2208.75
                             2214.28  2228.68  2493.50  2575.73  2678.01
                             4267.61  4350.56  4371.34  4411.99  4423.32
                             4433.69  4436.01  4446.22  4450.27  4454.13
                             4477.51  4510.74  4514.53  4520.04  4523.24
                             4527.97  4548.14  4550.55  4665.48  5120.70

 Zero-point correction=                           0.320286 (Hartree/Particle)
 Thermal correction to Energy=                    0.338229
 Thermal correction to Enthalpy=                  0.339174
 Thermal correction to Gibbs Free Energy=         0.273589
 Sum of electronic and zero-point Energies=           -804.226260
 Sum of electronic and thermal Energies=              -804.208317
 Sum of electronic and thermal Enthalpies=            -804.207372
 Sum of electronic and thermal Free Energies=         -804.272957

                     E (Thermal)             CV                S
                      KCal/Mol        Cal/Mol-Kelvin    Cal/Mol-Kelvin
 Total                  212.242             66.455            138.035
 Electronic               0.000              0.000              0.000
 Translational            0.889              2.981             42.329
 Rotational               0.889              2.981             32.856
 Vibrational            210.465             60.493             62.850
 Vibration     1          0.594              1.984              5.791
 Vibration     2          0.594              1.981              5.235
 Vibration     3          0.597              1.973              4.420
 Vibration     4          0.599              1.966              4.056
 Vibration     5          0.600              1.961              3.815
 Vibration     6          0.603              1.953              3.572
 Vibration     7          0.604              1.950              3.467
 Vibration     8          0.611              1.927              3.001
 Vibration     9          0.615              1.914              2.818
 Vibration    10          0.619              1.899              2.631
 Vibration    11          0.632              1.857              2.254
 Vibration    12          0.641              1.831              2.075
 Vibration    13          0.652              1.794              1.876
 Vibration    14          0.666              1.754              1.693
 Vibration    15          0.679              1.712              1.540
 Vibration    16          0.701              1.649              1.346
 Vibration    17          0.710              1.623              1.280
 Vibration    18          0.726              1.580              1.176
 Vibration    19          0.736              1.551              1.115
 Vibration    20          0.777              1.442              0.915
 Vibration    21          0.789              1.410              0.867
 Vibration    22          0.799              1.386              0.832
 Vibration    23          0.842              1.282              0.695
 Vibration    24          0.870              1.216              0.621
 Vibration    25          0.916              1.117              0.523
 Vibration    26          0.939              1.071              0.482
 Vibration    27          0.959              1.030              0.448

                           ! Non-Optimized Parameters !
 Normal termination of Gaussian 16 at Mon Dec 14 17:04:44 2020.

 ----------------------------------------------------------------------
 # B3LYP/6-311++G(d,p) empiricaldispersion=gd3bj scf=xqc pop=npa geom=c
 heck
 ----------------------------------------------------------------------

 ---------------------------------------
 CID_106397852_JID_7273_Energie_neutraal
 ---------------------------------------
 Structure from the checkpoint file:  "JID_7273.chk"
 Charge =  0 Multiplicity = 1

 SCF Done:  E(RB3LYP) =  -804.781876914     A.U. after   14 cycles
 Normal termination of Gaussian 16 at Mon Dec 14 17:12:05 2020.

 ----------------------------------------------------------------------
 # B3LYP/6-311++G(d,p) empiricaldispersion=gd3bj scf=xqc pop=npa geom=c
 heck
 ----------------------------------------------------------------------

 -------------------------------------
 CID_106397852_JID_7273_Energie_kation
 -------------------------------------
 Structure from the checkpoint file:  "JID_7273.chk"
 Charge =  1 Multiplicity = 2

 SCF Done:  E(UB3LYP) =  -804.479825887     A.U. after   25 cycles
 Normal termination of Gaussian 16 at Mon Dec 14 17:31:37 2020.
 Gaussian 16:  ES64L-G16RevA.03 25-Dec-2016

 ----------------------------------------------------------------------
 # B3LYP/6-311++G(d,p) empiricaldispersion=gd3bj scf=xqc pop=npa geom=c
 heck
 ----------------------------------------------------------------------

 ------------------------------------
 CID_106397852_JID_7273_Energie_anion
 ------------------------------------
 Structure from the checkpoint file:  "JID_7273.chk"
 Charge = -1 Multiplicity = 2

                         Standard orientation:
 ---------------------------------------------------------------------
 Center     Atomic      Atomic             Coordinates (Angstroms)
 Number     Number       Type             X           Y           Z
 ---------------------------------------------------------------------
      1          6           0        1.814550    2.616487   -0.440312
      2          6           0        2.400905    1.675837    0.611402
      3          7           0        2.046166    0.278298    0.369988
      4          6           0        2.751800   -0.532554   -0.522478
      5          8           0        3.686510   -0.151427   -1.194399
      6          6           0        2.151663   -1.927709   -0.454142
      7          6           0        0.896730   -1.808321    0.432509
      8          6           0        1.010651   -0.379677    1.019297
      9          8           0        0.310150    0.123200    1.879321
     10          7           0       -0.309046   -2.085743   -0.330844
     11          6           0       -1.574187   -2.311046    0.375138
     12          6           0       -2.451942   -1.108385    0.759023
     13          8           0       -3.307043   -0.642598   -0.283039
     14          6           0       -2.696071   -0.064972   -1.419463
     15          6           0       -1.736247    1.100601   -1.132128
     16          6           0       -2.362392    2.198664   -0.319569
     17          6           0       -1.930234    2.595650    0.877839
     18          1           0        2.149925    2.326309   -1.440367
     19          1           0        2.154142    3.640126   -0.249643
     20          1           0        0.721386    2.612299   -0.411007
     21          1           0        3.492565    1.730377    0.607820
     22          1           0        2.033114    1.919691    1.610575
     23          1           0        1.909786   -2.292266   -1.455799
     24          1           0        2.901248   -2.607202   -0.035645
     25          1           0        0.917581   -2.508146    1.274062
     26          1           0       -0.408213   -1.445761   -1.111376
     27          1           0       -2.186046   -2.984434   -0.240046
     28          1           0       -1.326546   -2.859937    1.291647
     29          1           0       -3.148417   -1.433050    1.539503
     30          1           0       -1.844856   -0.300624    1.173750
     31          1           0       -2.175608   -0.828493   -2.024412
     32          1           0       -3.531431    0.296111   -2.029733
     33          1           0       -0.835259    0.741417   -0.625968
     34          1           0       -1.409410    1.489926   -2.108371
     35          1           0       -3.237282    2.676774   -0.762514
     36          1           0       -2.425299    3.395112    1.422562
     37          1           0       -1.079508    2.123038    1.363188
 ---------------------------------------------------------------------

 SCF Done:  E(UB3LYP) =  -804.773053611     A.U. after   33 cycles
 SCF Done:  E(UB3LYP) =  -804.773053611     a.u. after    1 cycles

 The electronic state is 2-A.
 Alpha  occ. eigenvalues --  -19.01473 -18.98872 -18.98308 -14.24983 -14.19736
 Alpha  occ. eigenvalues --  -10.15945 -10.14652 -10.11338 -10.11115 -10.10783
 Alpha  occ. eigenvalues --  -10.09869 -10.08856 -10.07581 -10.07454 -10.07003
 Alpha  occ. eigenvalues --  -10.06737 -10.05923  -0.94951  -0.92810  -0.92604
 Alpha  occ. eigenvalues --   -0.84052  -0.80468  -0.70155  -0.69896  -0.65153
 Alpha  occ. eigenvalues --   -0.63640  -0.60515  -0.56634  -0.54878  -0.53456
 Alpha  occ. eigenvalues --   -0.50426  -0.48781  -0.45082  -0.44003  -0.40190
 Alpha  occ. eigenvalues --   -0.39304  -0.39122  -0.37519  -0.36784  -0.36035
 Alpha  occ. eigenvalues --   -0.35301  -0.34507  -0.33678  -0.32549  -0.32301
 Alpha  occ. eigenvalues --   -0.31724  -0.31114  -0.30205  -0.29177  -0.28845
 Alpha  occ. eigenvalues --   -0.28467  -0.27748  -0.27178  -0.26391  -0.25836
 Alpha  occ. eigenvalues --   -0.25288  -0.24584  -0.23733  -0.20501  -0.18381
 Alpha  occ. eigenvalues --   -0.16836  -0.16550  -0.15454  -0.14409  -0.11166
 Alpha  occ. eigenvalues --    0.04812
 Alpha virt. eigenvalues --    0.06814   0.07434   0.07634   0.08185   0.08996
 Alpha virt. eigenvalues --    0.09508   0.09671   0.09870   0.10553   0.10892
 Alpha virt. eigenvalues --    0.11523   0.12020   0.12321   0.12414   0.13038

  Beta  occ. eigenvalues --  -19.01473 -18.98721 -18.98096 -14.25060 -14.19686
  Beta  occ. eigenvalues --  -10.15736 -10.14350 -10.11305 -10.11111 -10.10796
  Beta  occ. eigenvalues --  -10.09869 -10.08834 -10.07582 -10.07433 -10.06987
  Beta  occ. eigenvalues --  -10.06734 -10.05912  -0.94630  -0.92629  -0.92392
  Beta  occ. eigenvalues --   -0.83930  -0.80399  -0.70083  -0.69839  -0.65125
  Beta  occ. eigenvalues --   -0.63605  -0.60445  -0.56325  -0.54825  -0.53314
  Beta  occ. eigenvalues --   -0.50244  -0.48717  -0.45030  -0.43897  -0.40122
  Beta  occ. eigenvalues --   -0.39229  -0.38860  -0.37333  -0.36671  -0.35920
  Beta  occ. eigenvalues --   -0.35237  -0.34399  -0.33547  -0.32419  -0.32249
  Beta  occ. eigenvalues --   -0.31600  -0.30785  -0.29897  -0.29035  -0.28802
  Beta  occ. eigenvalues --   -0.28176  -0.27651  -0.26949  -0.26288  -0.25795
  Beta  occ. eigenvalues --   -0.25208  -0.24400  -0.23240  -0.20465  -0.18257
  Beta  occ. eigenvalues --   -0.16589  -0.16260  -0.15366  -0.14306  -0.11066
  Beta virt. eigenvalues --    0.07028   0.07648   0.07899   0.08359   0.08912
  Beta virt. eigenvalues --    0.09576   0.09747   0.09984   0.10226   0.10812
  Beta virt. eigenvalues --    0.11019   0.11586   0.12245   0.12627   0.12887

 Mulliken charges and spin densities:
               1          2
     1  C   -0.375076  -0.097432
     2  C   -0.103419   0.059025
     3  N    0.408491  -0.086766
     4  C   -0.175040   0.307111
     5  O   -0.356037   0.063891
     6  C    0.714608  -1.223134
     7  C   -1.227847   0.838283
     8  C   -0.349153   0.008669
     9  O   -0.291717   0.078198
    10  N    0.288232  -0.166026
    11  C    0.649442  -0.703696
    12  C   -0.506602   0.032015
    13  O   -0.049301   0.015320
    14  C    0.058635  -0.675334
    15  C    0.331523  -0.305065
    16  C   -0.047258   0.085471
    17  C   -0.374649  -0.075101
    18  H    0.083164   0.104324
    19  H    0.014570   0.095838
    20  H    0.248451  -0.085535
    21  H    0.169198   0.014910
    22  H    0.108678   0.041389
    23  H   -0.269906   0.475075
    24  H    0.173972  -0.000718
    25  H   -0.511975   0.701061
    26  H    0.533086  -0.320811
    27  H   -0.074537   0.279103
    28  H   -0.009767   0.130692
    29  H    0.069158   0.091471
    30  H    0.235528  -0.031487
    31  H   -0.544099   0.704041
    32  H   -0.275169   0.442828
    33  H    0.484420  -0.498502
    34  H   -0.328973   0.499283
    35  H    0.008318   0.157941
    36  H    0.113115   0.013406
    37  H    0.177940   0.030263
 Sum of Mulliken charges =  -1.00000   1.00000

 Dipole moment (field-independent basis, Debye):
    X=              1.1432    Y=              2.5272    Z=              3.6223  Tot=              4.5623
 Quadrupole moment (field-independent basis, Debye-Ang):
   XX=           -158.5013   YY=           -138.1086   ZZ=           -143.6469
   XY=             -0.0730   XZ=              1.9589   YZ=             -0.0423

 Summary of Natural Population Analysis:

                                       Natural Population
                Natural  -----------------------------------------------
    Atom  No    Charge         Core      Valence    Rydberg      Total
 -----------------------------------------------------------------------
      C    1   -0.29136      0.99965     2.28755    0.00415     3.29136
      C    2   -0.08967      0.99963     2.07999    0.01004     3.08967
      N    3   -0.27255      0.99959     2.76381    0.00915     3.77255
      C    4    0.38012      0.99967     1.59768    0.02253     2.61988
      O    5   -0.29837      0.99987     3.29306    0.00544     4.29837
      C    6   -0.23739      0.99959     2.22827    0.00952     3.23739
      C    7   -0.04463      0.99957     2.03186    0.01321     3.04463
      C    8    0.38323      0.99964     1.59286    0.02427     2.61677
      O    9   -0.30054      0.99987     3.29499    0.00567     4.30054
      N   10   -0.33977      0.99974     2.82682    0.01322     3.83977
      C   11   -0.10050      0.99961     2.08956    0.01132     3.10050
      C   12   -0.02760      0.99955     2.01594    0.01211     3.02760
      O   13   -0.30277      0.99989     3.29387    0.00901     4.30277
      C   14   -0.00526      0.99957     1.99117    0.01452     3.00526
      C   15   -0.23458      0.99960     2.22440    0.01058     3.23458
      C   16   -0.08056      0.99957     2.06945    0.01155     3.08056
      C   17   -0.19639      0.99955     2.19021    0.00662     3.19639
      H   18    0.10492      0.00000     0.39386    0.00123     0.39508
      H   19    0.09496      0.00000     0.40421    0.00083     0.40504
      H   20    0.10486      0.00000     0.39380    0.00134     0.39514
      H   21    0.10060      0.00000     0.39822    0.00119     0.39940
      H   22    0.10519      0.00000     0.39354    0.00126     0.39481
      H   23    0.11789      0.00000     0.38024    0.00187     0.38211
      H   24    0.11168      0.00000     0.38745    0.00087     0.38832
      H   25    0.10468      0.00000     0.39349    0.00183     0.39532
      H   26    0.17612      0.00000     0.31907    0.00482     0.32388
      H   27    0.09408      0.00000     0.40474    0.00118     0.40592
      H   28    0.09726      0.00000     0.40135    0.00139     0.40274
      H   29    0.08678      0.00000     0.41225    0.00097     0.41322
      H   30    0.09978      0.00000     0.39829    0.00193     0.40022
      H   31    0.07848      0.00000     0.41968    0.00184     0.42152
      H   32    0.08899      0.00000     0.40957    0.00144     0.41101
      H   33    0.10194      0.00000     0.39498    0.00307     0.39806
      H   34    0.10807      0.00000     0.39019    0.00174     0.39193
      H   35    0.08951      0.00000     0.40950    0.00098     0.41049
      H   36    0.08849      0.00000     0.41067    0.00084     0.41151
      H   37    0.10430      0.00000     0.39429    0.00141     0.39570
 =======================================================================
   * Total *   -0.00000     16.99416    47.78089    0.22494    65.00000

 Normal termination of Gaussian 16 at Mon Dec 14 17:57:22 2020.
