 Gaussian 16, Revision A.03,

 -----------------------------------------------------------
 # opt freq B3LYP/6-31G(d) empiricaldispersion=gd3bj scf=xqc
 -----------------------------------------------------------

 -------------------------------
 CID_114474508_JID_5789_neutraal
 -------------------------------
 Symbolic Z-matrix:
 Charge =  0 Multiplicity = 1

 SCF Done:  E(RB3LYP) =  -616.960749693     A.U. after   14 cycles
 SCF Done:  E(RB3LYP) =  -616.964106402     A.U. after   12 cycles
 SCF Done:  E(RB3LYP) =  -616.964493490     A.U. after   12 cycles
 SCF Done:  E(RB3LYP) =  -616.964737212     A.U. after   11 cycles
 SCF Done:  E(RB3LYP) =  -616.964923885     A.U. after   11 cycles
 SCF Done:  E(RB3LYP) =  -616.964309950     A.U. after   13 cycles
 SCF Done:  E(RB3LYP) =  -616.965389982     A.U. after   12 cycles
 SCF Done:  E(RB3LYP) =  -616.965668216     A.U. after   12 cycles
 SCF Done:  E(RB3LYP) =  -616.966008462     A.U. after   12 cycles
 SCF Done:  E(RB3LYP) =  -616.966196049     A.U. after   11 cycles
 SCF Done:  E(RB3LYP) =  -616.966294415     A.U. after    9 cycles
 SCF Done:  E(RB3LYP) =  -616.966294849     A.U. after    9 cycles
 SCF Done:  E(RB3LYP) =  -616.966295000     A.U. after    7 cycles
 SCF Done:  E(RB3LYP) =  -616.966295070     A.U. after    7 cycles
 SCF Done:  E(RB3LYP) =  -616.966295065     A.U. after    7 cycles
 Optimization completed.
    -- Stationary point found.
 Normal termination of Gaussian 16 at Thu Dec 10 17:04:27 2020.

 --------------------------------------------------------------------
 #N Geom=AllCheck Guess=TCheck SCRF=Check GenChk RB3LYP/6-31G(d) Freq
 --------------------------------------------------------------------

 Structure from the checkpoint file:  "JID_5789.chk"
 -------------------------------
 CID_114474508_JID_5789_neutraal
 -------------------------------
 Charge =  0 Multiplicity = 1

 SCF Done:  E(RB3LYP) =  -616.966295065     A.U. after    1 cycles

  Exact polarizability: 179.397  -4.418 144.357  -5.289   4.732 108.238
 Approx polarizability: 247.930  -8.701 223.660 -11.910   8.021 170.501

                      1                      2                      3
                      A                      A                      A
 Frequencies --     33.4557                37.4968                52.7009
 Red. masses --      3.7724                 3.1758                 3.5579
 Frc consts  --      0.0025                 0.0026                 0.0058
 IR Inten    --      0.4198                 0.0276                 0.1884

                      4                      5                      6
                      A                      A                      A
 Frequencies --     73.8408                95.7357                97.2717
 Red. masses --      3.7760                 3.6200                 3.8913
 Frc consts  --      0.0121                 0.0195                 0.0217
 IR Inten    --      0.2746                 0.2724                 0.2773

                      7                      8                      9
                      A                      A                      A
 Frequencies --    149.8558               173.4237               203.5254
 Red. masses --      2.1555                 2.5720                 1.0671
 Frc consts  --      0.0285                 0.0456                 0.0260
 IR Inten    --      0.9886                 0.3711                 0.2560

                     10                     11                     12
                      A                      A                      A
 Frequencies --    215.5209               232.2035               269.8544
 Red. masses --      1.7553                 2.4431                 3.3934
 Frc consts  --      0.0480                 0.0776                 0.1456
 IR Inten    --      0.5497                 1.4532                 0.4140

                     13                     14                     15
                      A                      A                      A
 Frequencies --    298.9032               371.3261               391.0325
 Red. masses --      2.2965                 2.1960                 2.5338
 Frc consts  --      0.1209                 0.1784                 0.2283
 IR Inten    --      1.1983                 1.5582                 0.2779

                     16                     17                     18
                      A                      A                      A
 Frequencies --    395.5064               400.9971               432.5552
 Red. masses --      2.9410                 2.3300                 1.9690
 Frc consts  --      0.2711                 0.2207                 0.2171
 IR Inten    --      0.4276                 0.1166                 2.9569

                     19                     20                     21
                      A                      A                      A
 Frequencies --    467.2194               477.5985               508.6221
 Red. masses --      2.3540                 3.3999                 4.3329
 Frc consts  --      0.3028                 0.4569                 0.6604
 IR Inten    --      3.7139                 9.4917                11.7251

                     22                     23                     24
                      A                      A                      A
 Frequencies --    572.8964               647.6531               689.0208
 Red. masses --      2.1235                 2.8070                 6.6972
 Frc consts  --      0.4106                 0.6937                 1.8733
 IR Inten    --      5.4035                 5.3100                 0.4412

                     25                     26                     27
                      A                      A                      A
 Frequencies --    728.0283               734.9042               767.4542
 Red. masses --      1.6213                 1.4548                 2.7517
 Frc consts  --      0.5063                 0.4629                 0.9549
 IR Inten    --     31.8452                49.3867                18.0805

                     28                     29                     30
                      A                      A                      A
 Frequencies --    785.1996               807.6198               830.7943
 Red. masses --      2.0537                 2.1455                 1.8388
 Frc consts  --      0.7460                 0.8245                 0.7478
 IR Inten    --      3.9989                34.4244                15.2815

                     31                     32                     33
                      A                      A                      A
 Frequencies --    855.0771               888.8999               894.0444
 Red. masses --      1.9840                 1.8353                 1.2746
 Frc consts  --      0.8547                 0.8544                 0.6003
 IR Inten    --      7.0519                 4.7125                 0.6107

                     34                     35                     36
                      A                      A                      A
 Frequencies --    918.0555               925.2625               963.1177
 Red. masses --      1.7033                 1.6890                 1.8588
 Frc consts  --      0.8458                 0.8519                 1.0159
 IR Inten    --     24.4218                23.6367                 1.2966

                     37                     38                     39
                      A                      A                      A
 Frequencies --    977.5001               991.2293              1011.6735
 Red. masses --      1.3160                 1.4556                 1.7394
 Frc consts  --      0.7408                 0.8426                 1.0489
 IR Inten    --      1.0799                 0.2587                 9.4467

                     40                     41                     42
                      A                      A                      A
 Frequencies --   1015.8378              1020.5931              1030.0193
 Red. masses --      6.9691                 1.5614                 1.7280
 Frc consts  --      4.2372                 0.9582                 1.0801
 IR Inten    --      8.0650                 5.0833                 9.0980

                     43                     44                     45
                      A                      A                      A
 Frequencies --   1079.5256              1089.5160              1096.8831
 Red. masses --      1.5727                 1.7305                 1.8880
 Frc consts  --      1.0798                 1.2103                 1.3384
 IR Inten    --      2.5090                 2.2394                 0.6588

                     46                     47                     48
                      A                      A                      A
 Frequencies --   1105.0803              1126.7646              1145.8372
 Red. masses --      1.9788                 1.7694                 1.8947
 Frc consts  --      1.4238                 1.3236                 1.4657
 IR Inten    --      1.8146                 3.8888                13.1137

                     49                     50                     51
                      A                      A                      A
 Frequencies --   1174.2360              1188.3413              1189.5653
 Red. masses --      1.7208                 1.1828                 1.5901
 Frc consts  --      1.3979                 0.9841                 1.3257
 IR Inten    --     28.6568                 1.0892                 4.4783

                     52                     53                     54
                      A                      A                      A
 Frequencies --   1240.6563              1251.8182              1258.1515
 Red. masses --      2.2947                 1.7707                 1.5920
 Frc consts  --      2.0810                 1.6348                 1.4848
 IR Inten    --      7.7585                23.3369                10.8172

                     55                     56                     57
                      A                      A                      A
 Frequencies --   1259.7981              1308.3254              1319.9402
 Red. masses --      1.3147                 1.8261                 4.2129
 Frc consts  --      1.2294                 1.8416                 4.3246
 IR Inten    --      5.0770                 4.1750                 7.3633

                     58                     59                     60
                      A                      A                      A
 Frequencies --   1326.4633              1355.3672              1381.8401
 Red. masses --      1.4210                 1.2636                 1.2814
 Frc consts  --      1.4731                 1.3676                 1.4417
 IR Inten    --     17.4702                 2.5931                 2.1428

                     61                     62                     63
                      A                      A                      A
 Frequencies --   1385.8827              1398.9764              1424.2879
 Red. masses --      1.5222                 1.3394                 1.4792
 Frc consts  --      1.7226                 1.5445                 1.7680
 IR Inten    --      0.1409                10.1578                 2.2708

                     64                     65                     66
                      A                      A                      A
 Frequencies --   1440.6556              1462.9819              1471.7914
 Red. masses --      1.2410                 2.0567                 1.2058
 Frc consts  --      1.5176                 2.5936                 1.5389
 IR Inten    --      4.6251                18.1846                 1.1254

                     67                     68                     69
                      A                      A                      A
 Frequencies --   1483.1116              1509.7755              1510.8403
 Red. masses --      1.1626                 1.0944                 1.0586
 Frc consts  --      1.5067                 1.4698                 1.4237
 IR Inten    --      2.4056                10.4013                 2.4810

                     70                     71                     72
                      A                      A                      A
 Frequencies --   1518.2312              1519.6425              1524.8868
 Red. masses --      1.0974                 1.0846                 1.1420
 Frc consts  --      1.4903                 1.4757                 1.5646
 IR Inten    --      2.3305                 5.5098                 2.5034

                     73                     74                     75
                      A                      A                      A
 Frequencies --   1528.4689              1537.6446              1546.5056
 Red. masses --      1.0871                 1.1072                 2.1017
 Frc consts  --      1.4964                 1.5423                 2.9616
 IR Inten    --     20.8106                16.9395                 4.3952

                     76                     77                     78
                      A                      A                      A
 Frequencies --   1551.1200              1617.4371              1657.4940
 Red. masses --      1.0584                 6.5063                 5.3658
 Frc consts  --      1.5004                10.0285                 8.6853
 IR Inten    --      3.8816                14.1181                63.2835

                     79                     80                     81
                      A                      A                      A
 Frequencies --   1738.3852              2954.8560              3032.7964
 Red. masses --      4.8829                 1.0612                 1.0393
 Frc consts  --      8.6941                 5.4591                 5.6322
 IR Inten    --     10.7971                82.8841                20.0314

                     82                     83                     84
                      A                      A                      A
 Frequencies --   3040.9677              3048.9440              3053.2732
 Red. masses --      1.0706                 1.0679                 1.0677
 Frc consts  --      5.8329                 5.8490                 5.8644
 IR Inten    --      7.1275                11.5726                56.3376

                     85                     86                     87
                      A                      A                      A
 Frequencies --   3068.0065              3072.7401              3080.0286
 Red. masses --      1.0642                 1.0714                 1.0974
 Frc consts  --      5.9016                 5.9603                 6.1340
 IR Inten    --     29.3732                53.4418                38.4974

                     88                     89                     90
                      A                      A                      A
 Frequencies --   3082.2633              3105.3846              3107.9315
 Red. masses --      1.1023                 1.1001                 1.0999
 Frc consts  --      6.1700                 6.2507                 6.2594
 IR Inten    --     22.4065                36.9629                24.0889

                     91                     92                     93
                      A                      A                      A
 Frequencies --   3119.6449              3126.4283              3155.7807
 Red. masses --      1.1028                 1.1001                 1.0601
 Frc consts  --      6.3233                 6.3353                 6.2203
 IR Inten    --     26.4767                30.3008                 9.5255

                     94                     95                     96
                      A                      A                      A
 Frequencies --   3168.0347              3170.5140              3200.4378
 Red. masses --      1.0873                 1.0900                 1.0924
 Frc consts  --      6.4295                 6.4554                 6.5926
 IR Inten    --     29.4967                24.1698                33.0597

                     97                     98                     99
                      A                      A                      A
 Frequencies --   3202.5641              3231.9050              3495.8096
 Red. masses --      1.0942                 1.1159                 1.0734
 Frc consts  --      6.6121                 6.8675                 7.7287
 IR Inten    --      1.7673                19.6809                 0.2096

 - Thermochemistry -
 -------------------
 Temperature   298.150 Kelvin.  Pressure   1.00000 Atm.
 Atom     1 has atomic number  6 and mass  12.00000

 Molecular mass:   204.16265 amu.
 Principal axes and moments of inertia in atomic units:
                           1         2         3
     Eigenvalues --  1902.065605186.482186241.90510
           X            0.99987   0.01572  -0.00391
           Y           -0.01569   0.99984   0.00819
           Z            0.00404  -0.00813   0.99996
 This molecule is an asymmetric top.
 Rotational symmetry number  1.
 Warning -- assumption of classical behavior for rotation
           may cause significant error
 Rotational temperatures (Kelvin)      0.04554     0.01670     0.01388
 Rotational constants (GHZ):           0.94883     0.34797     0.28913
 Zero-point vibrational energy     817516.4 (Joules/Mol)
                                  195.39111 (Kcal/Mol)
 Warning -- explicit consideration of  22 degrees of freedom as
           vibrations may cause significant error
 Vibrational temperatures:     48.14    53.95    75.82   106.24   137.74
          (Kelvin)            139.95   215.61   249.52   292.83   310.09
                              334.09   388.26   430.05   534.26   562.61
                              569.05   576.95   622.35   672.22   687.16
                              731.79   824.27   931.83   991.35  1047.47
                             1057.36  1104.20  1129.73  1161.98  1195.33
                             1230.27  1278.93  1286.33  1320.88  1331.25
                             1385.71  1406.40  1426.16  1455.57  1461.56
                             1468.41  1481.97  1553.20  1567.57  1578.17
                             1589.96  1621.16  1648.60  1689.46  1709.76
                             1711.52  1785.03  1801.09  1810.20  1812.57
                             1882.39  1899.10  1908.48  1950.07  1988.16
                             1993.98  2012.81  2049.23  2072.78  2104.90
                             2117.58  2133.87  2172.23  2173.76  2184.40
                             2186.43  2193.97  2199.13  2212.33  2225.08
                             2231.72  2327.13  2384.76  2501.15  4251.38
                             4363.52  4375.27  4386.75  4392.98  4414.18
                             4420.99  4431.47  4434.69  4467.96  4471.62
                             4488.47  4498.23  4540.46  4558.10  4561.66
                             4604.72  4607.78  4649.99  5029.69

 Zero-point correction=                           0.311376 (Hartree/Particle)
 Thermal correction to Energy=                    0.326908
 Thermal correction to Enthalpy=                  0.327852
 Thermal correction to Gibbs Free Energy=         0.267482
 Sum of electronic and zero-point Energies=           -616.654920
 Sum of electronic and thermal Energies=              -616.639387
 Sum of electronic and thermal Enthalpies=            -616.638443
 Sum of electronic and thermal Free Energies=         -616.698813

                     E (Thermal)             CV                S
                      KCal/Mol        Cal/Mol-Kelvin    Cal/Mol-Kelvin
 Total                  205.138             58.851            127.060
 Electronic               0.000              0.000              0.000
 Translational            0.889              2.981             41.846
 Rotational               0.889              2.981             32.487
 Vibrational            203.361             52.889             52.727
 Vibration     1          0.594              1.983              5.613
 Vibration     2          0.594              1.982              5.387
 Vibration     3          0.596              1.977              4.713
 Vibration     4          0.599              1.966              4.048
 Vibration     5          0.603              1.952              3.539
 Vibration     6          0.603              1.951              3.508
 Vibration     7          0.618              1.903              2.674
 Vibration     8          0.627              1.875              2.398
 Vibration     9          0.639              1.835              2.101
 Vibration    10          0.645              1.817              1.996
 Vibration    11          0.653              1.792              1.862
 Vibration    12          0.674              1.729              1.597
 Vibration    13          0.692              1.676              1.423
 Vibration    14          0.743              1.531              1.074
 Vibration    15          0.759              1.489              0.996
 Vibration    16          0.762              1.480              0.979
 Vibration    17          0.767              1.468              0.959
 Vibration    18          0.793              1.399              0.850
 Vibration    19          0.824              1.323              0.745
 Vibration    20          0.834              1.300              0.717
 Vibration    21          0.864              1.231              0.637
 Vibration    22          0.929              1.090              0.499

 Optimization completed.
    -- Stationary point found.
 Normal termination of Gaussian 16 at Thu Dec 10 17:18:28 2020.

 ----------------------------------------------------------------------
 # B3LYP/6-311++G(d,p) empiricaldispersion=gd3bj scf=xqc pop=npa geom=c
 heck
 ----------------------------------------------------------------------

 ---------------------------------------
 CID_114474508_JID_5789_Energie_neutraal
 ---------------------------------------
 Structure from the checkpoint file:  "JID_5789.chk"
 Charge =  0 Multiplicity = 1

 SCF Done:  E(RB3LYP) =  -617.135673045     A.U. after   15 cycles
 Normal termination of Gaussian 16 at Thu Dec 10 17:25:12 2020.

 ----------------------------------------------------------------------
 # B3LYP/6-311++G(d,p) empiricaldispersion=gd3bj scf=xqc pop=npa geom=c
 heck
 ----------------------------------------------------------------------

 -------------------------------------
 CID_114474508_JID_5789_Energie_kation
 -------------------------------------
 Structure from the checkpoint file:  "JID_5789.chk"
 Charge =  1 Multiplicity = 2

 SCF Done:  E(UB3LYP) =  -616.835176890     A.U. after   29 cycles
 Normal termination of Gaussian 16 at Thu Dec 10 17:43:30 2020.
 Gaussian 16:  ES64L-G16RevA.03 25-Dec-2016

 ----------------------------------------------------------------------
 # B3LYP/6-311++G(d,p) empiricaldispersion=gd3bj scf=xqc pop=npa geom=c
 heck
 ----------------------------------------------------------------------

 ------------------------------------
 CID_114474508_JID_5789_Energie_anion
 ------------------------------------
 Structure from the checkpoint file:  "JID_5789.chk"
 Charge = -1 Multiplicity = 2

                         Standard orientation:
 ---------------------------------------------------------------------
 Center     Atomic      Atomic             Coordinates (Angstroms)
 Number     Number       Type             X           Y           Z
 ---------------------------------------------------------------------
      1          6           0       -3.427867   -0.834437    1.468168
      2          6           0       -3.303780   -0.817453   -0.034170
      3          6           0       -4.310356   -0.421183   -0.818159
      4          6           0       -1.976944   -1.265130   -0.625589
      5          6           0       -1.093065   -0.101594   -1.116237
      6          6           0       -0.698925    0.932243   -0.053673
      7          6           0        0.179117    0.326204    1.090971
      8          6           0        1.500926   -0.202555    0.605097
      9          6           0        2.597501    0.645750    0.403521
     10          6           0        3.785644    0.123444   -0.106949
     11          7           0        3.959756   -1.164701   -0.425736
     12          6           0        2.913136   -1.975994   -0.224803
     13          6           0        1.684948   -1.551237    0.278539
     14          7           0       -0.102337    2.080565   -0.729920
     15          6           0        0.087571    3.267592    0.089212
     16          1           0       -4.415949   -0.498614    1.797060
     17          1           0       -2.676144   -0.190503    1.942926
     18          1           0       -3.262288   -1.846742    1.861536
     19          1           0       -4.223951   -0.422947   -1.902337
     20          1           0       -5.256146   -0.077866   -0.407172
     21          1           0       -1.432488   -1.872778    0.107427
     22          1           0       -2.165302   -1.921375   -1.483475
     23          1           0       -0.184649   -0.513562   -1.575918
     24          1           0       -1.627913    0.440960   -1.902290
     25          1           0       -1.618110    1.301161    0.419621
     26          1           0        0.347386    1.103840    1.844269
     27          1           0       -0.380777   -0.473280    1.586598
     28          1           0        2.535992    1.699159    0.661021
     29          1           0        4.643813    0.774703   -0.265509
     30          1           0        3.065595   -3.023535   -0.479546
     31          1           0        0.879591   -2.266668    0.418141
     32          1           0        0.776370    1.805202   -1.164869
     33          1           0        0.750152    3.143944    0.965607
     34          1           0        0.502055    4.069015   -0.530918
     35          1           0       -0.886603    3.604948    0.461847
 ---------------------------------------------------------------------

 SCF Done:  E(UB3LYP) =  -617.127436405     A.U. after   33 cycles
 SCF Done:  E(UB3LYP) =  -617.127436405     a.u. after    1 cycles

 The electronic state is 2-A.
 Alpha  occ. eigenvalues --  -14.19617 -14.18440 -10.09617 -10.09082 -10.08927
 Alpha  occ. eigenvalues --  -10.08838 -10.08580 -10.07386 -10.06910 -10.06508
 Alpha  occ. eigenvalues --  -10.06426 -10.06318 -10.06302 -10.06190 -10.05923
 Alpha  occ. eigenvalues --   -0.82561  -0.80819  -0.72276  -0.70634  -0.66257
 Alpha  occ. eigenvalues --   -0.64595  -0.61522  -0.58733  -0.57946  -0.53599
 Alpha  occ. eigenvalues --   -0.51697  -0.50498  -0.47042  -0.42634  -0.39401
 Alpha  occ. eigenvalues --   -0.38959  -0.38043  -0.36927  -0.36197  -0.35791
 Alpha  occ. eigenvalues --   -0.34290  -0.32933  -0.32903  -0.31487  -0.30945
 Alpha  occ. eigenvalues --   -0.29632  -0.29379  -0.28445  -0.28035  -0.27509
 Alpha  occ. eigenvalues --   -0.26804  -0.25048  -0.24527  -0.23748  -0.23299
 Alpha  occ. eigenvalues --   -0.21845  -0.16876  -0.15484  -0.15269  -0.14523
 Alpha  occ. eigenvalues --   -0.12459   0.04413
 Alpha virt. eigenvalues --    0.06588   0.06981   0.07542   0.08130   0.08839
 Alpha virt. eigenvalues --    0.08938   0.09130   0.09594   0.09976   0.10411
 Alpha virt. eigenvalues --    0.10831   0.11305   0.11725   0.12613   0.12689

  Beta  occ. eigenvalues --  -14.19616 -14.18209 -10.09590 -10.09066 -10.08892
  Beta  occ. eigenvalues --  -10.08812 -10.08579 -10.07376 -10.06666 -10.06508
  Beta  occ. eigenvalues --  -10.06381 -10.06323 -10.06293 -10.06194 -10.05906
  Beta  occ. eigenvalues --   -0.82253  -0.80795  -0.72242  -0.70329  -0.66196
  Beta  occ. eigenvalues --   -0.64462  -0.61446  -0.58671  -0.57875  -0.53538
  Beta  occ. eigenvalues --   -0.51630  -0.50281  -0.46943  -0.42587  -0.39312
  Beta  occ. eigenvalues --   -0.38889  -0.37944  -0.36894  -0.36112  -0.35690
  Beta  occ. eigenvalues --   -0.34231  -0.32890  -0.32822  -0.31449  -0.30903
  Beta  occ. eigenvalues --   -0.29546  -0.29258  -0.28193  -0.27955  -0.27230
  Beta  occ. eigenvalues --   -0.26736  -0.24994  -0.24451  -0.23681  -0.23217
  Beta  occ. eigenvalues --   -0.21792  -0.15945  -0.15268  -0.15055  -0.14262
  Beta  occ. eigenvalues --   -0.12404
  Beta virt. eigenvalues --    0.06710   0.07234   0.07785   0.08120   0.08841
  Beta virt. eigenvalues --    0.09055   0.09068   0.09146   0.09901   0.10307
  Beta virt. eigenvalues --    0.10719   0.10992   0.11530   0.11850   0.12919

 Mulliken charges and spin densities:
               1          2
     1  C    1.481028  -2.315869
     2  C   -0.836557   1.656070
     3  C    0.070779  -0.716464
     4  C   -0.579065   0.166929
     5  C   -0.732121   0.304874
     6  C   -0.164266  -0.337744
     7  C    0.961111  -1.731734
     8  C    0.115195   0.752012
     9  C    0.036096   0.288085
    10  C   -0.343560  -0.300016
    11  N   -0.112759   0.102852
    12  C   -0.301400  -0.426933
    13  C   -0.648841   0.797889
    14  N   -0.094590   0.053791
    15  C    0.404251  -0.705989
    16  H   -0.250307   0.391301
    17  H   -0.310732   0.471412
    18  H   -0.400660   0.564753
    19  H    0.154709  -0.044307
    20  H   -0.228142   0.346475
    21  H    0.245443  -0.131616
    22  H    0.019352   0.171335
    23  H    0.151138  -0.025768
    24  H    0.192345   0.016619
    25  H    0.549426  -0.320326
    26  H   -0.452694   0.645811
    27  H    0.229682  -0.024365
    28  H   -0.022425   0.179354
    29  H    0.092866   0.051588
    30  H    0.123114   0.021380
    31  H   -0.289425   0.419913
    32  H    0.241148  -0.007055
    33  H   -0.111852   0.225044
    34  H    0.087717   0.045418
    35  H   -0.276005   0.415280
 Sum of Mulliken charges =  -1.00000   1.00000

 Dipole moment (field-independent basis, Debye):
    X=              1.0006    Y=              0.4445    Z=             -4.5103  Tot=              4.6413
 Quadrupole moment (field-independent basis, Debye-Ang):
   XX=           -171.7818   YY=           -130.0130   ZZ=           -127.8550
   XY=              5.0544   XZ=              9.0735   YZ=             -0.5949

 Summary of Natural Population Analysis:

                                       Natural Population
                Natural  -----------------------------------------------
    Atom  No    Charge         Core      Valence    Rydberg      Total
 -----------------------------------------------------------------------
      C    1   -0.29999      0.99961     2.29371    0.00667     3.29999
      C    2    0.00518      0.99953     1.98479    0.01050     2.99482
      C    3   -0.20549      0.99947     2.19821    0.00780     3.20549
      C    4   -0.20648      0.99958     2.19785    0.00905     3.20648
      C    5   -0.18750      0.99960     2.17908    0.00882     3.18750
      C    6   -0.00522      0.99958     1.99194    0.01370     3.00522
      C    7   -0.21477      0.99958     2.20427    0.01091     3.21477
      C    8    0.03837      0.99950     1.95163    0.01051     2.96163
      C    9   -0.13332      0.99950     2.12419    0.00964     3.13332
      C   10    0.02424      0.99959     1.96024    0.01592     2.97576
      N   11   -0.21530      0.99972     2.70474    0.01084     3.71530
      C   12    0.02751      0.99959     1.95706    0.01584     2.97249
      C   13   -0.12762      0.99950     2.11930    0.00882     3.12762
      N   14   -0.34127      0.99974     2.83118    0.01036     3.84127
      C   15   -0.17841      0.99966     2.17070    0.00805     3.17841
      H   16    0.10199      0.00000     0.39679    0.00122     0.39801
      H   17    0.10609      0.00000     0.39206    0.00184     0.39391
      H   18    0.10433      0.00000     0.39414    0.00153     0.39567
      H   19    0.09023      0.00000     0.40890    0.00087     0.40977
      H   20    0.09318      0.00000     0.40599    0.00083     0.40682
      H   21    0.09964      0.00000     0.39880    0.00156     0.40036
      H   22    0.10253      0.00000     0.39664    0.00082     0.39747
      H   23    0.10030      0.00000     0.39862    0.00107     0.39970
      H   24    0.10270      0.00000     0.39607    0.00123     0.39730
      H   25    0.09606      0.00000     0.40170    0.00224     0.40394
      H   26    0.10800      0.00000     0.39002    0.00198     0.39200
      H   27    0.10603      0.00000     0.39211    0.00186     0.39397
      H   28    0.10080      0.00000     0.39770    0.00150     0.39920
      H   29    0.08406      0.00000     0.41473    0.00121     0.41594
      H   30    0.08421      0.00000     0.41459    0.00120     0.41579
      H   31    0.10008      0.00000     0.39841    0.00152     0.39992
      H   32    0.17544      0.00000     0.32228    0.00227     0.32456
      H   33    0.07942      0.00000     0.41909    0.00149     0.42058
      H   34    0.09100      0.00000     0.40824    0.00076     0.40900
      H   35    0.09399      0.00000     0.40496    0.00105     0.40601
 =======================================================================
   * Total *    0.00000     14.99374    40.82076    0.18550    56.00000

 Normal termination of Gaussian 16 at Thu Dec 10 18:04:38 2020.
