 Gaussian 16, Revision A.03,

 -----------------------------------------------------------
 # opt freq B3LYP/6-31G(d) empiricaldispersion=gd3bj scf=xqc
 -----------------------------------------------------------

 -------------------------------
 CID_135279803_JID_2061_neutraal
 -------------------------------
 Symbolic Z-matrix:
 Charge =  0 Multiplicity = 1

 SCF Done:  E(RB3LYP) =  -486.472799125     A.U. after   14 cycles
 SCF Done:  E(RB3LYP) =  -486.490757483     A.U. after   12 cycles
 SCF Done:  E(RB3LYP) =  -486.503752038     A.U. after   12 cycles
 SCF Done:  E(RB3LYP) =  -486.504517411     A.U. after    8 cycles
 SCF Done:  E(RB3LYP) =  -486.505090623     A.U. after    9 cycles
 SCF Done:  E(RB3LYP) =  -486.505963551     A.U. after   12 cycles
 SCF Done:  E(RB3LYP) =  -486.507220217     A.U. after   11 cycles
 SCF Done:  E(RB3LYP) =  -486.507305584     A.U. after    9 cycles
 SCF Done:  E(RB3LYP) =  -486.507427960     A.U. after   11 cycles
 SCF Done:  E(RB3LYP) =  -486.507474189     A.U. after    9 cycles
 SCF Done:  E(RB3LYP) =  -486.521820562     A.U. after   10 cycles
 SCF Done:  E(RB3LYP) =  -486.521825910     A.U. after    9 cycles
 SCF Done:  E(RB3LYP) =  -486.521828920     A.U. after   10 cycles
 SCF Done:  E(RB3LYP) =  -486.521829768     A.U. after    9 cycles
 SCF Done:  E(RB3LYP) =  -486.521829796     A.U. after    7 cycles
 Optimization completed.
    -- Stationary point found.
 Normal termination of Gaussian 16 at Wed Dec  9 17:11:52 2020.

 --------------------------------------------------------------------
 #N Geom=AllCheck Guess=TCheck SCRF=Check GenChk RB3LYP/6-31G(d) Freq
 --------------------------------------------------------------------

 Structure from the checkpoint file:  "JID_2061.chk"
 -------------------------------
 CID_135279803_JID_2061_neutraal
 -------------------------------
 Charge =  0 Multiplicity = 1

 SCF Done:  E(RB3LYP) =  -486.521829796     A.U. after    1 cycles

  Exact polarizability: 132.165  -2.980 123.305  -4.795  -3.889 102.063
 Approx polarizability: 166.575  -2.237 176.716  -8.627 -12.487 156.265

                      1                      2                      3
                      A                      A                      A
 Frequencies --     29.7133                42.3352                61.2029
 Red. masses --      3.2757                 2.6478                 2.8145
 Frc consts  --      0.0017                 0.0028                 0.0062
 IR Inten    --      0.2472                 0.3773                 0.1083

                      4                      5                      6
                      A                      A                      A
 Frequencies --     84.8746               111.3110               157.9821
 Red. masses --      2.7571                 2.9938                 2.3376
 Frc consts  --      0.0117                 0.0219                 0.0344
 IR Inten    --      0.1138                 0.0643                 0.1971

                      7                      8                      9
                      A                      A                      A
 Frequencies --    161.0345               230.7685               235.2145
 Red. masses --      2.0599                 1.2801                 1.8355
 Frc consts  --      0.0315                 0.0402                 0.0598
 IR Inten    --      0.2757                 0.4934                 0.6864

                     10                     11                     12
                      A                      A                      A
 Frequencies --    244.4652               252.3345               271.3037
 Red. masses --      1.3067                 1.2850                 1.2100
 Frc consts  --      0.0460                 0.0482                 0.0525
 IR Inten    --      0.1815                 0.5273                 0.1811

                     13                     14                     15
                      A                      A                      A
 Frequencies --    286.6468               297.7983               332.6989
 Red. masses --      1.8946                 2.3175                 2.7912
 Frc consts  --      0.0917                 0.1211                 0.1820
 IR Inten    --      1.1556                 0.9264                 0.4198

                     16                     17                     18
                      A                      A                      A
 Frequencies --    348.7077               371.5443               408.8401
 Red. masses --      2.7356                 2.4724                 1.9844
 Frc consts  --      0.1960                 0.2011                 0.1954
 IR Inten    --      1.5789                 3.4627                 6.7760

                     19                     20                     21
                      A                      A                      A
 Frequencies --    458.9238               520.8658               526.6316
 Red. masses --      2.4913                 2.5354                 2.7646
 Frc consts  --      0.3091                 0.4053                 0.4517
 IR Inten    --      2.3270                12.0564                 3.6028

                     22                     23                     24
                      A                      A                      A
 Frequencies --    599.8110               681.1186               755.5318
 Red. masses --      2.4438                 2.3998                 1.6006
 Frc consts  --      0.5180                 0.6559                 0.5383
 IR Inten    --      1.5818                 9.4383                12.1090

                     25                     26                     27
                      A                      A                      A
 Frequencies --    778.8487               809.7308               855.6722
 Red. masses --      1.9363                 2.4840                 1.5224
 Frc consts  --      0.6920                 0.9596                 0.6567
 IR Inten    --      7.0715                 5.8734                 4.5226

                     28                     29                     30
                      A                      A                      A
 Frequencies --    883.9837               949.5474               953.3142
 Red. masses --      1.9577                 1.8459                 1.4775
 Frc consts  --      0.9013                 0.9806                 0.7912
 IR Inten    --      1.5141                12.2784                10.1363

                     31                     32                     33
                      A                      A                      A
 Frequencies --    986.3314               997.5970              1015.7831
 Red. masses --      1.9445                 1.6515                 1.1409
 Frc consts  --      1.1146                 0.9684                 0.6936
 IR Inten    --      2.8973                26.6567                 0.4371

                     34                     35                     36
                      A                      A                      A
 Frequencies --   1032.1299              1056.1130              1075.8176
 Red. masses --      1.6826                 2.2016                 1.9480
 Frc consts  --      1.0561                 1.4468                 1.3284
 IR Inten    --      2.3055                11.2882                 5.3979

                     37                     38                     39
                      A                      A                      A
 Frequencies --   1082.4228              1084.9701              1109.8184
 Red. masses --      1.5840                 2.0314                 1.6652
 Frc consts  --      1.0935                 1.4089                 1.2084
 IR Inten    --     45.1010                 9.5885                 8.0271

                     40                     41                     42
                      A                      A                      A
 Frequencies --   1121.3547              1131.9531              1134.6029
 Red. masses --      1.4969                 1.7049                 1.4139
 Frc consts  --      1.1090                 1.2871                 1.0724
 IR Inten    --     12.4526                 0.6905                12.5567

                     43                     44                     45
                      A                      A                      A
 Frequencies --   1148.6877              1161.6071              1187.0875
 Red. masses --      1.7024                 2.4896                 2.7259
 Frc consts  --      1.3235                 1.9792                 2.2632
 IR Inten    --     21.4924                 9.0976                 1.0828

                     46                     47                     48
                      A                      A                      A
 Frequencies --   1202.9033              1239.2991              1287.0426
 Red. masses --      1.5673                 2.3492                 1.4699
 Frc consts  --      1.3362                 2.1258                 1.4346
 IR Inten    --      8.4402                13.3592                 0.5225

                     49                     50                     51
                      A                      A                      A
 Frequencies --   1292.4857              1313.0845              1319.6003
 Red. masses --      1.3273                 1.5706                 1.9502
 Frc consts  --      1.3064                 1.5955                 2.0009
 IR Inten    --      0.4066                17.0411                11.3293

                     52                     53                     54
                      A                      A                      A
 Frequencies --   1362.8486              1369.7097              1396.5148
 Red. masses --      1.2738                 1.3022                 1.3462
 Frc consts  --      1.3939                 1.4394                 1.5468
 IR Inten    --      3.0672                 4.3782                 2.4209

                     55                     56                     57
                      A                      A                      A
 Frequencies --   1411.9015              1424.8998              1439.1094
 Red. masses --      1.4660                 1.2914                 1.2784
 Frc consts  --      1.7218                 1.5448                 1.5600
 IR Inten    --      0.8774                 4.7925                12.2743

                     58                     59                     60
                      A                      A                      A
 Frequencies --   1441.7282              1469.6326              1497.2212
 Red. masses --      1.2536                 1.1539                 1.1398
 Frc consts  --      1.5353                 1.4684                 1.5054
 IR Inten    --      3.3699                 0.1569                11.1615

                     61                     62                     63
                      A                      A                      A
 Frequencies --   1504.1850              1510.9308              1518.7704
 Red. masses --      1.1132                 1.0515                 1.0603
 Frc consts  --      1.4839                 1.4143                 1.4410
 IR Inten    --      6.6427                 9.1010                 2.4990

                     64                     65                     66
                      A                      A                      A
 Frequencies --   1523.3407              1525.8329              1530.0163
 Red. masses --      1.0541                 1.0627                 1.0559
 Frc consts  --      1.4412                 1.4577                 1.4563
 IR Inten    --      1.9390                 8.8019                 6.1169

                     67                     68                     69
                      A                      A                      A
 Frequencies --   1536.6888              1541.7838              1544.8309
 Red. masses --      1.0505                 1.0525                 1.0546
 Frc consts  --      1.4616                 1.4741                 1.4829
 IR Inten    --     11.8716                 1.7527                 5.5027

                     70                     71                     72
                      A                      A                      A
 Frequencies --   1549.1334              1556.6187              1868.4724
 Red. masses --      1.0544                 1.1010                 7.0785
 Frc consts  --      1.4908                 1.5718                14.5602
 IR Inten    --      2.7732                 6.1259                10.7168

                     73                     74                     75
                      A                      A                      A
 Frequencies --   2935.3301              2956.3472              3012.8089
 Red. masses --      1.0616                 1.0613                 1.0814
 Frc consts  --      5.3890                 5.4651                 5.7832
 IR Inten    --     76.1492               110.4220                19.6769

                     76                     77                     78
                      A                      A                      A
 Frequencies --   3034.4258              3043.0287              3046.0459
 Red. masses --      1.0473                 1.0611                 1.0423
 Frc consts  --      5.6819                 5.7891                 5.6979
 IR Inten    --     78.3697                 6.7090                25.4765

                     79                     80                     81
                      A                      A                      A
 Frequencies --   3050.6404              3054.0881              3061.5864
 Red. masses --      1.0761                 1.0431                 1.0653
 Frc consts  --      5.9002                 5.7323                 5.8834
 IR Inten    --     22.2405                23.8773                34.7558

                     82                     83                     84
                      A                      A                      A
 Frequencies --   3069.3814              3076.6161              3083.8142
 Red. masses --      1.0705                 1.0733                 1.1008
 Frc consts  --      5.9418                 5.9858                 6.1678
 IR Inten    --     33.9772                46.3082                55.3923

                     85                     86                     87
                      A                      A                      A
 Frequencies --   3087.6125              3107.8006              3115.3821
 Red. masses --      1.1136                 1.1009                 1.1018
 Frc consts  --      6.2551                 6.2647                 6.3005
 IR Inten    --     43.4421                42.7795                17.2368

                     88                     89                     90
                      A                      A                      A
 Frequencies --   3117.5672              3123.0747              3126.5531
 Red. masses --      1.1025                 1.0970                 1.1003
 Frc consts  --      6.3131                 6.3039                 6.3373
 IR Inten    --     38.2661                10.8330                39.5393

                     91                     92                     93
                      A                      A                      A
 Frequencies --   3130.1237              3133.5432              3282.4420
 Red. masses --      1.1012                 1.1000                 1.1144
 Frc consts  --      6.3569                 6.3639                 7.0743
 IR Inten    --     38.7774                32.7437                 0.9359

 - Thermochemistry -
 -------------------
 Temperature   298.150 Kelvin.  Pressure   1.00000 Atm.
 Atom     1 has atomic number  6 and mass  12.00000

 Molecular mass:   167.16740 amu.
 Principal axes and moments of inertia in atomic units:
                           1         2         3
     Eigenvalues --  1574.145532671.876223493.98493
           X            0.99952  -0.03096   0.00140
           Y            0.03096   0.99951  -0.00504
           Z           -0.00124   0.00508   0.99999
 This molecule is an asymmetric top.
 Rotational symmetry number  1.
 Warning -- assumption of classical behavior for rotation
           may cause significant error
 Rotational temperatures (Kelvin)      0.05502     0.03242     0.02479
 Rotational constants (GHZ):           1.14649     0.67546     0.51653
 Zero-point vibrational energy     794654.3 (Joules/Mol)
                                  189.92694 (Kcal/Mol)
 Warning -- explicit consideration of  22 degrees of freedom as
           vibrations may cause significant error
 Vibrational temperatures:     42.75    60.91    88.06   122.12   160.15
          (Kelvin)            227.30   231.69   332.02   338.42   351.73
                              363.05   390.35   412.42   428.47   478.68
                              501.71   534.57   588.23   660.29   749.41
                              757.71   862.99   979.98  1087.04  1120.59
                             1165.02  1231.12  1271.86  1366.19  1371.61
                             1419.11  1435.32  1461.49  1485.00  1519.51
                             1547.86  1557.36  1561.03  1596.78  1613.38
                             1628.63  1632.44  1652.71  1671.29  1707.95
                             1730.71  1783.07  1851.77  1859.60  1889.24
                             1898.61  1960.84  1970.71  2009.27  2031.41
                             2050.11  2070.56  2074.33  2114.47  2154.17
                             2164.19  2173.89  2185.17  2191.75  2195.33
                             2201.35  2210.95  2218.28  2222.67  2228.86
                             2239.63  2688.32  4223.29  4253.52  4334.76
                             4365.86  4378.24  4382.58  4389.19  4394.15
                             4404.94  4416.16  4426.56  4436.92  4442.39
                             4471.43  4482.34  4485.48  4493.41  4498.41
                             4503.55  4508.47  4722.70

 Zero-point correction=                           0.302668 (Hartree/Particle)
 Thermal correction to Energy=                    0.317472
 Thermal correction to Enthalpy=                  0.318416
 Thermal correction to Gibbs Free Energy=         0.260730
 Sum of electronic and zero-point Energies=           -486.219162
 Sum of electronic and thermal Energies=              -486.204358
 Sum of electronic and thermal Enthalpies=            -486.203413
 Sum of electronic and thermal Free Energies=         -486.261100

                     E (Thermal)             CV                S
                      KCal/Mol        Cal/Mol-Kelvin    Cal/Mol-Kelvin
 Total                  199.217             54.630            121.412
 Electronic               0.000              0.000              0.000
 Translational            0.889              2.981             41.250
 Rotational               0.889              2.981             31.064
 Vibrational            197.439             48.668             49.098
 Vibration     1          0.593              1.984              5.848
 Vibration     2          0.595              1.980              5.147
 Vibration     3          0.597              1.973              4.418
 Vibration     4          0.601              1.960              3.775
 Vibration     5          0.607              1.940              3.246
 Vibration     6          0.621              1.894              2.574
 Vibration     7          0.622              1.890              2.538
 Vibration     8          0.652              1.794              1.873
 Vibration     9          0.655              1.787              1.839
 Vibration    10          0.660              1.772              1.770
 Vibration    11          0.664              1.759              1.714
 Vibration    12          0.675              1.726              1.588
 Vibration    13          0.684              1.698              1.494
 Vibration    14          0.691              1.678              1.429
 Vibration    15          0.715              1.610              1.247
 Vibration    16          0.726              1.578              1.172
 Vibration    17          0.743              1.531              1.073
 Vibration    18          0.773              1.451              0.931
 Vibration    19          0.817              1.341              0.769
 Vibration    20          0.876              1.204              0.608
 Vibration    21          0.882              1.191              0.595
 Vibration    22          0.958              1.032              0.450

 Optimization completed.
    -- Stationary point found.
 Normal termination of Gaussian 16 at Wed Dec  9 17:21:00 2020.

 ----------------------------------------------------------------------
 # B3LYP/6-311++G(d,p) empiricaldispersion=gd3bj scf=xqc pop=npa geom=c
 heck
 ----------------------------------------------------------------------

 ---------------------------------------
 CID_135279803_JID_2061_Energie_neutraal
 ---------------------------------------
 Structure from the checkpoint file:  "JID_2061.chk"
 Charge =  0 Multiplicity = 1

 SCF Done:  E(RB3LYP) =  -486.655513110     A.U. after   13 cycles
 Normal termination of Gaussian 16 at Wed Dec  9 17:24:46 2020.

 ----------------------------------------------------------------------
 # B3LYP/6-311++G(d,p) empiricaldispersion=gd3bj scf=xqc pop=npa geom=c
 heck
 ----------------------------------------------------------------------

 -------------------------------------
 CID_135279803_JID_2061_Energie_kation
 -------------------------------------
 Structure from the checkpoint file:  "JID_2061.chk"
 Charge =  1 Multiplicity = 2

 SCF Done:  E(UB3LYP) =  -486.373106416     A.U. after   23 cycles
 Normal termination of Gaussian 16 at Wed Dec  9 17:32:48 2020.
 Gaussian 16:  ES64L-G16RevA.03 25-Dec-2016

 ----------------------------------------------------------------------
 # B3LYP/6-311++G(d,p) empiricaldispersion=gd3bj scf=xqc pop=npa geom=c
 heck
 ----------------------------------------------------------------------

 ------------------------------------
 CID_135279803_JID_2061_Energie_anion
 ------------------------------------
 Structure from the checkpoint file:  "JID_2061.chk"
 Charge = -1 Multiplicity = 2

                         Standard orientation:
 ---------------------------------------------------------------------
 Center     Atomic      Atomic             Coordinates (Angstroms)
 Number     Number       Type             X           Y           Z
 ---------------------------------------------------------------------
      1          6           0        2.459415   -2.114027    0.338472
      2          6           0        1.224939   -1.654778   -0.442090
      3          6           0        0.206715   -0.851011    0.389641
      4          6           0        0.858493    0.310637    1.181776
      5          6           0        1.564862    1.284572    0.316264
      6          6           0        1.641360    2.440166   -0.268781
      7          6           0        2.804485    1.518820   -0.522626
      8          6           0       -0.947323   -0.313578   -0.491522
      9          6           0       -1.628626   -1.412779   -1.326811
     10          7           0       -1.890344    0.483779    0.315480
     11          6           0       -2.600940    1.487188   -0.456974
     12          6           0       -2.798357   -0.291762    1.145884
     13          1           0        3.087136   -1.268478    0.635444
     14          1           0        3.075208   -2.783932   -0.271772
     15          1           0        2.174538   -2.660008    1.246753
     16          1           0        1.544933   -1.053552   -1.303420
     17          1           0        0.723653   -2.538287   -0.852914
     18          1           0       -0.217019   -1.536908    1.138270
     19          1           0        0.067914    0.829390    1.729518
     20          1           0        1.566701   -0.103074    1.909337
     21          1           0        1.223646    3.417471   -0.461040
     22          1           0        3.767395    1.701504   -0.031784
     23          1           0        2.913643    1.023491   -1.493945
     24          1           0       -0.492178    0.402169   -1.187558
     25          1           0       -1.933195   -2.263292   -0.705803
     26          1           0       -2.523874   -1.021501   -1.822260
     27          1           0       -0.962952   -1.790977   -2.107441
     28          1           0       -3.315079    1.070398   -1.194047
     29          1           0       -3.170760    2.131376    0.222677
     30          1           0       -1.881901    2.113417   -0.995289
     31          1           0       -3.571964   -0.838980    0.575607
     32          1           0       -2.240234   -1.019600    1.742130
     33          1           0       -3.313336    0.382232    1.839778
 ---------------------------------------------------------------------

 SCF Done:  E(UB3LYP) =  -486.638624553     A.U. after   33 cycles
 SCF Done:  E(UB3LYP) =  -486.638624553     a.u. after    1 cycles

 The electronic state is 2-A.
 Alpha  occ. eigenvalues --  -14.19671 -10.09367 -10.08986 -10.08215 -10.08104
 Alpha  occ. eigenvalues --  -10.07904 -10.07837 -10.07371 -10.07348 -10.06376
 Alpha  occ. eigenvalues --  -10.05839 -10.05272  -0.81925  -0.77570  -0.71225
 Alpha  occ. eigenvalues --   -0.64463  -0.63181  -0.60138  -0.56067  -0.54490
 Alpha  occ. eigenvalues --   -0.49915  -0.48391  -0.45774  -0.43159  -0.38676
 Alpha  occ. eigenvalues --   -0.37508  -0.36485  -0.35939  -0.34585  -0.33872
 Alpha  occ. eigenvalues --   -0.32763  -0.31614  -0.29875  -0.29501  -0.29371
 Alpha  occ. eigenvalues --   -0.27757  -0.27016  -0.26547  -0.26175  -0.24318
 Alpha  occ. eigenvalues --   -0.23914  -0.22785  -0.22695  -0.20874  -0.18717
 Alpha  occ. eigenvalues --   -0.14666  -0.10842   0.04600
 Alpha virt. eigenvalues --    0.06624   0.07062   0.07401   0.08644   0.08876
 Alpha virt. eigenvalues --    0.09270   0.09461   0.09817   0.10510   0.10925
 Alpha virt. eigenvalues --    0.11990   0.12283   0.12479   0.12623   0.13224

  Beta  occ. eigenvalues --  -14.19666 -10.09361 -10.08985 -10.08204 -10.08075
  Beta  occ. eigenvalues --  -10.07891 -10.07799 -10.07363 -10.07337 -10.06361
  Beta  occ. eigenvalues --  -10.05815 -10.05242  -0.81907  -0.77561  -0.71200
  Beta  occ. eigenvalues --   -0.64431  -0.63153  -0.60083  -0.56017  -0.54432
  Beta  occ. eigenvalues --   -0.49881  -0.48330  -0.45723  -0.43121  -0.38643
  Beta  occ. eigenvalues --   -0.37481  -0.36453  -0.35910  -0.34555  -0.33849
  Beta  occ. eigenvalues --   -0.32739  -0.31581  -0.29843  -0.29475  -0.29337
  Beta  occ. eigenvalues --   -0.27721  -0.26975  -0.26505  -0.26137  -0.24286
  Beta  occ. eigenvalues --   -0.23893  -0.22755  -0.22671  -0.20846  -0.18699
  Beta  occ. eigenvalues --   -0.14642  -0.10815
  Beta virt. eigenvalues --    0.06673   0.07373   0.07686   0.07958   0.09073
  Beta virt. eigenvalues --    0.09256   0.09726   0.09869   0.10214   0.10785
  Beta virt. eigenvalues --    0.11413   0.12382   0.12598   0.12733   0.13043

 Mulliken charges and spin densities:
               1          2
     1  C    0.765392  -1.475257
     2  C   -1.578094   1.093902
     3  C    2.536245  -1.367871
     4  C    0.573156  -0.941088
     5  C    0.902432  -0.707453
     6  C   -1.684147   1.683509
     7  C    0.044665  -0.653385
     8  C   -3.120254   1.827099
     9  C    1.135335  -1.817344
    10  N    0.128552   0.151174
    11  C    0.630171  -0.893327
    12  C    0.975339  -1.277901
    13  H    0.134038   0.006338
    14  H   -0.271791   0.406027
    15  H   -0.313361   0.462837
    16  H   -0.001998   0.139277
    17  H   -0.113656   0.257567
    18  H    0.481758  -0.257249
    19  H    0.147528   0.034184
    20  H   -0.164764   0.349660
    21  H   -0.448953   0.607319
    22  H    0.001541   0.100252
    23  H    0.038280   0.072492
    24  H    0.323461  -0.168758
    25  H   -0.283885   0.456924
    26  H   -0.055846   0.196269
    27  H   -0.269595   0.419080
    28  H   -0.228319   0.338532
    29  H   -0.184573   0.321664
    30  H   -0.145189   0.265267
    31  H   -0.132385   0.269824
    32  H   -0.623843   0.745119
    33  H   -0.197239   0.355317
 Sum of Mulliken charges =  -1.00000   1.00000

 Dipole moment (field-independent basis, Debye):
    X=              3.1458    Y=              2.0508    Z=             -0.6690  Tot=              3.8143
 Quadrupole moment (field-independent basis, Debye-Ang):
   XX=           -141.6641   YY=           -132.5666   ZZ=           -115.7153
   XY=              2.7285   XZ=              1.3275   YZ=              0.3022

 Summary of Natural Population Analysis:

                                       Natural Population
                Natural  -----------------------------------------------
    Atom  No    Charge         Core      Valence    Rydberg      Total
 -----------------------------------------------------------------------
      C    1   -0.28535      0.99966     2.28031    0.00538     3.28535
      C    2   -0.19272      0.99962     2.18345    0.00965     3.19272
      C    3   -0.10105      0.99956     2.08972    0.01176     3.10105
      C    4   -0.21825      0.99956     2.20903    0.00966     3.21825
      C    5    0.02061      0.99948     1.96780    0.01212     2.97939
      C    6   -0.09855      0.99936     2.09089    0.00829     3.09855
      C    7   -0.20383      0.99966     2.19782    0.00635     3.20383
      C    8   -0.00107      0.99956     1.98797    0.01354     3.00107
      C    9   -0.29914      0.99964     2.29342    0.00607     3.29914
      N   10   -0.28735      0.99972     2.77346    0.01417     3.78735
      C   11   -0.17318      0.99964     2.16489    0.00866     3.17318
      C   12   -0.17946      0.99963     2.17060    0.00923     3.17946
      H   13    0.09707      0.00000     0.40176    0.00117     0.40293
      H   14    0.09862      0.00000     0.40052    0.00086     0.40138
      H   15    0.09678      0.00000     0.40208    0.00115     0.40322
      H   16    0.09439      0.00000     0.40417    0.00145     0.40561
      H   17    0.10044      0.00000     0.39827    0.00129     0.39956
      H   18    0.09788      0.00000     0.40006    0.00206     0.40212
      H   19    0.12040      0.00000     0.37785    0.00175     0.37960
      H   20    0.10758      0.00000     0.39125    0.00117     0.39242
      H   21    0.10318      0.00000     0.39560    0.00123     0.39682
      H   22    0.07844      0.00000     0.41964    0.00193     0.42156
      H   23    0.08002      0.00000     0.41788    0.00210     0.41998
      H   24    0.09544      0.00000     0.40204    0.00252     0.40456
      H   25    0.10030      0.00000     0.39842    0.00128     0.39970
      H   26    0.10232      0.00000     0.39662    0.00105     0.39768
      H   27    0.10233      0.00000     0.39663    0.00104     0.39767
      H   28    0.07927      0.00000     0.41923    0.00150     0.42073
      H   29    0.09493      0.00000     0.40387    0.00120     0.40507
      H   30    0.09485      0.00000     0.40377    0.00138     0.40515
      H   31    0.08267      0.00000     0.41573    0.00160     0.41733
      H   32    0.09672      0.00000     0.40176    0.00152     0.40328
      H   33    0.09573      0.00000     0.40304    0.00123     0.40427
 =======================================================================
   * Total *   -0.00000     11.99510    34.85953    0.14537    47.00000

 Normal termination of Gaussian 16 at Wed Dec  9 17:48:27 2020.
