 Gaussian 16, Revision A.03,

 -----------------------------------------------------------
 # opt freq B3LYP/6-31G(d) empiricaldispersion=gd3bj scf=xqc
 -----------------------------------------------------------

 -------------------------------
 CID_110370206_JID_7216_neutraal
 -------------------------------
 Symbolic Z-matrix:
 Charge =  0 Multiplicity = 1

 SCF Done:  E(RB3LYP) =  -819.374936666     A.U. after   15 cycles
 SCF Done:  E(RB3LYP) =  -819.379206963     A.U. after   13 cycles
 SCF Done:  E(RB3LYP) =  -819.378233884     A.U. after   13 cycles
 SCF Done:  E(RB3LYP) =  -819.379679287     A.U. after   12 cycles
 SCF Done:  E(RB3LYP) =  -819.381186127     A.U. after   13 cycles
 SCF Done:  E(RB3LYP) =  -819.381711894     A.U. after   12 cycles
 SCF Done:  E(RB3LYP) =  -819.381855406     A.U. after   12 cycles
 SCF Done:  E(RB3LYP) =  -819.381973890     A.U. after   10 cycles
 SCF Done:  E(RB3LYP) =  -819.382027789     A.U. after   11 cycles
 SCF Done:  E(RB3LYP) =  -819.382056530     A.U. after   10 cycles
 SCF Done:  E(RB3LYP) =  -819.382096909     A.U. after    7 cycles
 SCF Done:  E(RB3LYP) =  -819.382096984     A.U. after    6 cycles
 SCF Done:  E(RB3LYP) =  -819.382097056     A.U. after    6 cycles
 SCF Done:  E(RB3LYP) =  -819.382097118     A.U. after    6 cycles
 Optimization completed.
    -- Stationary point found.
 Normal termination of Gaussian 16 at Fri Dec 11 12:04:12 2020.

 --------------------------------------------------------------------
 #N Geom=AllCheck Guess=TCheck SCRF=Check GenChk RB3LYP/6-31G(d) Freq
 --------------------------------------------------------------------

 Structure from the checkpoint file:  "JID_7216.chk"
 -------------------------------
 CID_110370206_JID_7216_neutraal
 -------------------------------
 Charge =  0 Multiplicity = 1

 SCF Done:  E(RB3LYP) =  -819.382097118     A.U. after    1 cycles

  Exact polarizability: 174.994 -19.979 124.860   1.428   2.226 122.445
 Approx polarizability: 227.280 -39.503 202.350  -4.030  11.883 193.351

                      1                      2                      3
                      A                      A                      A
 Frequencies --     15.8466                34.8883                56.7503
 Red. masses --      4.4841                 4.8934                 2.8666
 Frc consts  --      0.0007                 0.0035                 0.0054
 IR Inten    --      2.5865                 2.5481                 0.3969

                      4                      5                      6
                      A                      A                      A
 Frequencies --     63.2912                67.4069                86.5717
 Red. masses --      3.6131                 7.5382                 2.4932
 Frc consts  --      0.0085                 0.0202                 0.0110
 IR Inten    --      0.7138                 1.0024                 0.3455

                      7                      8                      9
                      A                      A                      A
 Frequencies --     98.3469               106.5611               146.8136
 Red. masses --      1.4101                 7.3496                 4.3358
 Frc consts  --      0.0080                 0.0492                 0.0551
 IR Inten    --      1.1182                 2.1734                 8.1980

                     10                     11                     12
                      A                      A                      A
 Frequencies --    196.5066               205.5879               223.0946
 Red. masses --      3.8778                 4.0016                 4.1485
 Frc consts  --      0.0882                 0.0997                 0.1217
 IR Inten    --      1.5135                 1.5303                 0.3165

                     13                     14                     15
                      A                      A                      A
 Frequencies --    242.7493               255.1951               295.8066
 Red. masses --      1.0613                 1.4489                 2.4376
 Frc consts  --      0.0368                 0.0556                 0.1257
 IR Inten    --      0.3802                 0.3430                 0.7695

                     16                     17                     18
                      A                      A                      A
 Frequencies --    311.4502               333.2072               376.0935
 Red. masses --      3.0941                 2.8110                 3.3651
 Frc consts  --      0.1768                 0.1839                 0.2804
 IR Inten    --      5.8049                 1.6529                 0.4826

                     19                     20                     21
                      A                      A                      A
 Frequencies --    377.1339               394.6510               421.6749
 Red. masses --      4.0385                 3.0282                 4.4423
 Frc consts  --      0.3384                 0.2779                 0.4654
 IR Inten    --      0.8596                 1.6573                 6.6284

                     22                     23                     24
                      A                      A                      A
 Frequencies --    438.9776               490.0938               512.6783
 Red. masses --      2.1641                 2.4371                 3.9965
 Frc consts  --      0.2457                 0.3449                 0.6189
 IR Inten    --      1.8785                10.9677                 7.7231

                     25                     26                     27
                      A                      A                      A
 Frequencies --    558.0548               600.0919               620.3674
 Red. masses --      2.3674                 1.5958                 4.6746
 Frc consts  --      0.4344                 0.3386                 1.0600
 IR Inten    --      1.5528                82.1758                 9.3278

                     28                     29                     30
                      A                      A                      A
 Frequencies --    646.8490               675.3798               706.5531
 Red. masses --      1.7010                 3.5020                 3.9023
 Frc consts  --      0.4193                 0.9412                 1.1478
 IR Inten    --     92.8685                 9.1985                 2.5999

                     31                     32                     33
                      A                      A                      A
 Frequencies --    713.3459               728.9530               780.0738
 Red. masses --      2.3732                 4.3284                 1.3883
 Frc consts  --      0.7115                 1.3551                 0.4977
 IR Inten    --     64.2436                19.5743                40.8473

                     34                     35                     36
                      A                      A                      A
 Frequencies --    823.7742               843.0569               859.7265
 Red. masses --      6.5060                 3.0531                 3.1275
 Frc consts  --      2.6012                 1.2785                 1.3620
 IR Inten    --     40.6539                 2.6496                 2.8089

                     37                     38                     39
                      A                      A                      A
 Frequencies --    892.0159               928.0702               948.2939
 Red. masses --      4.9169                 1.5664                 2.6586
 Frc consts  --      2.3051                 0.7949                 1.4086
 IR Inten    --      0.8452                 1.4144                 8.4307

                     40                     41                     42
                      A                      A                      A
 Frequencies --    949.8904               964.0623               983.5882
 Red. masses --      1.5759                 1.8024                 1.5426
 Frc consts  --      0.8378                 0.9870                 0.8793
 IR Inten    --      9.4390                 9.6979                 0.1579

                     43                     44                     45
                      A                      A                      A
 Frequencies --    995.1989              1022.8713              1041.0052
 Red. masses --      2.0120                 3.5322                 2.1123
 Frc consts  --      1.1741                 2.1774                 1.3487
 IR Inten    --      3.1743                 6.9410                 6.9235

                     46                     47                     48
                      A                      A                      A
 Frequencies --   1080.8046              1082.3001              1126.2595
 Red. masses --      1.5862                 3.6840                 1.6756
 Frc consts  --      1.0917                 2.5426                 1.2523
 IR Inten    --      4.4693                 6.4224                43.1475

                     49                     50                     51
                      A                      A                      A
 Frequencies --   1153.1480              1159.2414              1178.4103
 Red. masses --      2.1981                 2.4819                 1.8359
 Frc consts  --      1.7222                 1.9651                 1.5021
 IR Inten    --      7.9710                16.8452                 2.6630

                     52                     53                     54
                      A                      A                      A
 Frequencies --   1208.3640              1250.0022              1264.0989
 Red. masses --      1.7123                 1.7652                 1.5291
 Frc consts  --      1.4730                 1.6251                 1.4396
 IR Inten    --      9.6360               104.9602                41.3060

                     55                     56                     57
                      A                      A                      A
 Frequencies --   1294.3658              1307.5580              1348.8118
 Red. masses --      3.0743                 1.3710                 1.6932
 Frc consts  --      3.0347                 1.3810                 1.8149
 IR Inten    --     49.9925                26.0723               133.6460

                     58                     59                     60
                      A                      A                      A
 Frequencies --   1364.4898              1387.8680              1389.7392
 Red. masses --      2.2942                 1.4673                 1.3719
 Frc consts  --      2.5167                 1.6652                 1.5612
 IR Inten    --     76.5006                 0.2433                 9.5180

                     61                     62                     63
                      A                      A                      A
 Frequencies --   1399.5312              1418.2560              1430.5172
 Red. masses --      1.9917                 1.5563                 1.3067
 Frc consts  --      2.2984                 1.8444                 1.5755
 IR Inten    --     52.2685                61.5383                13.9653

                     64                     65                     66
                      A                      A                      A
 Frequencies --   1442.3183              1448.9475              1488.9820
 Red. masses --      1.2584                 1.2450                 1.5581
 Frc consts  --      1.5424                 1.5400                 2.0353
 IR Inten    --      1.2846                 4.7459                65.8848

                     67                     68                     69
                      A                      A                      A
 Frequencies --   1497.7565              1502.2190              1513.1880
 Red. masses --      1.1767                 1.0418                 1.1115
 Frc consts  --      1.5553                 1.3852                 1.4995
 IR Inten    --     60.0149                 7.4675                 6.7824

                     70                     71                     72
                      A                      A                      A
 Frequencies --   1517.5538              1523.8869              1529.7870
 Red. masses --      1.0823                 1.0475                 1.1003
 Frc consts  --      1.4685                 1.4332                 1.5171
 IR Inten    --      9.6194                 1.2404                25.1415

                     73                     74                     75
                      A                      A                      A
 Frequencies --   1534.0515              1544.6370              1552.1414
 Red. masses --      1.0548                 1.0504                 3.6415
 Frc consts  --      1.4625                 1.4766                 5.1688
 IR Inten    --      5.6352                11.1532                71.3635

                     76                     77                     78
                      A                      A                      A
 Frequencies --   1573.9926              1675.8225              1778.1147
 Red. masses --      5.4615                 6.4906                 8.2143
 Frc consts  --      7.9720                10.7397                15.3017
 IR Inten    --    266.0576               119.0400               327.3481

                     79                     80                     81
                      A                      A                      A
 Frequencies --   1797.3343              3024.1627              3038.1792
 Red. masses --      8.2018                 1.0822                 1.0373
 Frc consts  --     15.6105                 5.8311                 5.6414
 IR Inten    --    337.5408                17.7264                15.9267

                     82                     83                     84
                      A                      A                      A
 Frequencies --   3043.7963              3063.7815              3075.4690
 Red. masses --      1.0390                 1.0370                 1.0613
 Frc consts  --      5.6717                 5.7349                 5.9147
 IR Inten    --     56.0247                10.9905                13.1392

                     85                     86                     87
                      A                      A                      A
 Frequencies --   3097.7736              3098.1710              3105.2672
 Red. masses --      1.0964                 1.0644                 1.1005
 Frc consts  --      6.1987                 6.0196                 6.2521
 IR Inten    --      0.4303                 9.2642                78.4797

                     88                     89                     90
                      A                      A                      A
 Frequencies --   3122.3233              3124.1959              3129.0196
 Red. masses --      1.1016                 1.1026                 1.1016
 Frc consts  --      6.3275                 6.3406                 6.3547
 IR Inten    --      5.5965                 3.0157                42.5376

                     91                     92                     93
                      A                      A                      A
 Frequencies --   3150.2564              3150.5961              3158.1680
 Red. masses --      1.1057                 1.0994                 1.1017
 Frc consts  --      6.4650                 6.4296                 6.4742
 IR Inten    --      6.0206                10.9771                 6.6750

                     94                     95                     96
                      A                      A                      A
 Frequencies --   3287.2522              3591.3457              3597.5694
 Red. masses --      1.0990                 1.0758                 1.0763
 Frc consts  --      6.9970                 8.1754                 8.2075
 IR Inten    --      0.0889                58.7252                34.2278

 - Thermochemistry -
 -------------------
 Temperature   298.150 Kelvin.  Pressure   1.00000 Atm.
 Atom     1 has atomic number  6 and mass  12.00000

 Molecular mass:   239.12699 amu.
 Principal axes and moments of inertia in atomic units:
                           1         2         3
     Eigenvalues --  2381.138406912.249297314.16007
           X            0.99998  -0.00568  -0.00286
           Y            0.00541   0.99622  -0.08674
           Z            0.00334   0.08672   0.99623
 This molecule is an asymmetric top.
 Rotational symmetry number  1.
 Warning -- assumption of classical behavior for rotation
           may cause significant error
 Rotational temperatures (Kelvin)      0.03638     0.01253     0.01184
 Rotational constants (GHZ):           0.75793     0.26109     0.24675
 Zero-point vibrational energy     745599.0 (Joules/Mol)
                                  178.20245 (Kcal/Mol)
 Warning -- explicit consideration of  27 degrees of freedom as
           vibrations may cause significant error
 Vibrational temperatures:     22.80    50.20    81.65    91.06    96.98
          (Kelvin)            124.56   141.50   153.32   211.23   282.73
                              295.80   320.98   349.26   367.17   425.60
                              448.11   479.41   541.11   542.61   567.81
                              606.70   631.59   705.14   737.63   802.92
                              863.40   892.57   930.67   971.72  1016.57
                             1026.35  1048.80  1122.35  1185.23  1212.97
                             1236.95  1283.41  1335.29  1364.38  1366.68
                             1387.07  1415.16  1431.87  1471.68  1497.77
                             1555.04  1557.19  1620.44  1659.12  1667.89
                             1695.47  1738.57  1798.47  1818.76  1862.30
                             1881.28  1940.64  1963.20  1996.83  1999.52
                             2013.61  2040.55  2058.20  2075.17  2084.71
                             2142.31  2154.94  2161.36  2177.14  2183.42
                             2192.53  2201.02  2207.16  2222.39  2233.19
                             2264.62  2411.13  2558.31  2585.96  4351.10
                             4371.26  4379.34  4408.10  4424.91  4457.01
                             4457.58  4467.79  4492.33  4495.02  4501.96
                             4532.52  4533.01  4543.90  4729.62  5167.15
                             5176.10

 Zero-point correction=                           0.283984 (Hartree/Particle)
 Thermal correction to Energy=                    0.301764
 Thermal correction to Enthalpy=                  0.302708
 Thermal correction to Gibbs Free Energy=         0.236287
 Sum of electronic and zero-point Energies=           -819.098113
 Sum of electronic and thermal Energies=              -819.080333
 Sum of electronic and thermal Enthalpies=            -819.079389
 Sum of electronic and thermal Free Energies=         -819.145810

                     E (Thermal)             CV                S
                      KCal/Mol        Cal/Mol-Kelvin    Cal/Mol-Kelvin
 Total                  189.360             65.074            139.794
 Electronic               0.000              0.000              0.000
 Translational            0.889              2.981             42.317
 Rotational               0.889              2.981             33.154
 Vibrational            187.582             59.112             64.324
 Vibration     1          0.593              1.986              7.096
 Vibration     2          0.594              1.983              5.530
 Vibration     3          0.596              1.975              4.567
 Vibration     4          0.597              1.972              4.352
 Vibration     5          0.598              1.970              4.228
 Vibration     6          0.601              1.959              3.736
 Vibration     7          0.604              1.950              3.487
 Vibration     8          0.605              1.944              3.331
 Vibration     9          0.617              1.906              2.713
 Vibration    10          0.636              1.845              2.166
 Vibration    11          0.640              1.832              2.083
 Vibration    12          0.649              1.806              1.934
 Vibration    13          0.659              1.775              1.783
 Vibration    14          0.666              1.754              1.694
 Vibration    15          0.690              1.682              1.441
 Vibration    16          0.700              1.652              1.355
 Vibration    17          0.715              1.609              1.244
 Vibration    18          0.747              1.521              1.055
 Vibration    19          0.748              1.519              1.051
 Vibration    20          0.762              1.482              0.983
 Vibration    21          0.784              1.423              0.886
 Vibration    22          0.799              1.385              0.830
 Vibration    23          0.846              1.272              0.683
 Vibration    24          0.868              1.222              0.627
 Vibration    25          0.914              1.122              0.528
 Vibration    26          0.958              1.032              0.449
 Vibration    27          0.980              0.989              0.416

                           ! Non-Optimized Parameters !
 Normal termination of Gaussian 16 at Fri Dec 11 12:16:51 2020.

 ----------------------------------------------------------------------
 # B3LYP/6-311++G(d,p) empiricaldispersion=gd3bj scf=xqc pop=npa geom=c
 heck
 ----------------------------------------------------------------------

 ---------------------------------------
 CID_110370206_JID_7216_Energie_neutraal
 ---------------------------------------
 Structure from the checkpoint file:  "JID_7216.chk"
 Charge =  0 Multiplicity = 1

 SCF Done:  E(RB3LYP) =  -819.620078754     A.U. after   16 cycles
 Normal termination of Gaussian 16 at Fri Dec 11 12:23:16 2020.

 ----------------------------------------------------------------------
 # B3LYP/6-311++G(d,p) empiricaldispersion=gd3bj scf=xqc pop=npa geom=c
 heck
 ----------------------------------------------------------------------

 -------------------------------------
 CID_110370206_JID_7216_Energie_kation
 -------------------------------------
 Structure from the checkpoint file:  "JID_7216.chk"
 Charge =  1 Multiplicity = 2

 SCF Done:  E(UB3LYP) =  -819.300186886     A.U. after   33 cycles
 SCF Done:  E(UB3LYP) =  -819.300186890     a.u. after    2 cycles
 Normal termination of Gaussian 16 at Fri Dec 11 13:01:16 2020.
 Gaussian 16:  ES64L-G16RevA.03 25-Dec-2016

 ----------------------------------------------------------------------
 # B3LYP/6-311++G(d,p) empiricaldispersion=gd3bj scf=xqc pop=npa geom=c
 heck
 ----------------------------------------------------------------------

 ------------------------------------
 CID_110370206_JID_7216_Energie_anion
 ------------------------------------
 Structure from the checkpoint file:  "JID_7216.chk"
 Charge = -1 Multiplicity = 2

                         Standard orientation:
 ---------------------------------------------------------------------
 Center     Atomic      Atomic             Coordinates (Angstroms)
 Number     Number       Type             X           Y           Z
 ---------------------------------------------------------------------
      1          6           0        5.029375   -0.994019    0.999091
      2          6           0        3.749992   -0.356779    0.587842
      3          6           0        2.811947    0.375188    1.249559
      4          6           0        1.832977    0.659967    0.250614
      5          7           0        2.159200    0.147765   -0.921167
      6          8           0        3.381868   -0.505456   -0.701453
      7          7           0        0.678706    1.396565    0.474108
      8          6           0       -0.375886    1.734651   -0.369265
      9          8           0       -1.206944    2.540155    0.015199
     10          6           0       -0.470046    1.038306   -1.726280
     11          7           0       -0.560307   -0.405658   -1.649158
     12          6           0       -1.571581   -1.162359   -1.101882
     13          8           0       -1.434513   -2.375620   -0.988761
     14          6           0       -2.819337   -0.438260   -0.625715
     15          6           0       -2.858590   -0.327101    0.921542
     16          6           0       -3.889182    0.725711    1.341599
     17          6           0       -3.137387   -1.684448    1.575639
     18          1           0        4.990483   -2.077178    0.840177
     19          1           0        5.865808   -0.601098    0.410900
     20          1           0        5.223244   -0.801971    2.056687
     21          1           0        2.803920    0.664079    2.289705
     22          1           0        0.614158    1.859667    1.372506
     23          1           0       -1.338078    1.471860   -2.226969
     24          1           0        0.420719    1.274030   -2.314146
     25          1           0        0.309650   -0.908600   -1.779752
     26          1           0       -2.899967    0.561863   -1.059263
     27          1           0       -3.683597   -1.020412   -0.963822
     28          1           0       -1.871465    0.018589    1.260033
     29          1           0       -4.888027    0.460267    0.971771
     30          1           0       -3.948805    0.798999    2.433962
     31          1           0       -3.623914    1.711471    0.946021
     32          1           0       -2.425268   -2.440847    1.237355
     33          1           0       -3.084395   -1.605547    2.668039
     34          1           0       -4.144644   -2.033640    1.313966
 ---------------------------------------------------------------------

 SCF Done:  E(UB3LYP) =  -819.618171015     A.U. after   33 cycles
 SCF Done:  E(UB3LYP) =  -819.618171015     a.u. after    1 cycles

 The electronic state is 2-A.
 Alpha  occ. eigenvalues --  -19.08693 -18.98744 -18.98467 -14.25220 -14.23152
 Alpha  occ. eigenvalues --  -14.23126 -10.17108 -10.16292 -10.13635 -10.13101
 Alpha  occ. eigenvalues --  -10.11657 -10.08530 -10.08014 -10.07945 -10.06758
 Alpha  occ. eigenvalues --  -10.06473 -10.05990  -1.02693  -0.94440  -0.93541
 Alpha  occ. eigenvalues --   -0.84717  -0.81943  -0.74308  -0.71695  -0.69760
 Alpha  occ. eigenvalues --   -0.63740  -0.61838  -0.61489  -0.58996  -0.53931
 Alpha  occ. eigenvalues --   -0.51112  -0.49452  -0.47052  -0.45172  -0.41752
 Alpha  occ. eigenvalues --   -0.40782  -0.39403  -0.37715  -0.37452  -0.36742
 Alpha  occ. eigenvalues --   -0.36434  -0.34950  -0.33178  -0.32650  -0.31851
 Alpha  occ. eigenvalues --   -0.31578  -0.31204  -0.30500  -0.30193  -0.29411
 Alpha  occ. eigenvalues --   -0.29099  -0.28511  -0.27581  -0.27005  -0.24647
 Alpha  occ. eigenvalues --   -0.23846  -0.23596  -0.23215  -0.20391  -0.17983
 Alpha  occ. eigenvalues --   -0.15615  -0.15330  -0.14432  -0.14073   0.04257
 Alpha virt. eigenvalues --    0.06318   0.06982   0.07753   0.08586   0.09212
 Alpha virt. eigenvalues --    0.09301   0.09865   0.10085   0.10579   0.11056
 Alpha virt. eigenvalues --    0.11589   0.11850   0.12198   0.12759   0.12973

  Beta  occ. eigenvalues --  -19.08548 -18.98528 -18.98457 -14.25279 -14.23092
  Beta  occ. eigenvalues --  -14.22955 -10.17103 -10.16046 -10.13548 -10.12969
  Beta  occ. eigenvalues --  -10.11671 -10.08528 -10.07985 -10.07945 -10.06779
  Beta  occ. eigenvalues --  -10.06467 -10.05987  -1.02433  -0.94097  -0.93482
  Beta  occ. eigenvalues --   -0.84588  -0.81889  -0.74055  -0.71689  -0.69583
  Beta  occ. eigenvalues --   -0.63618  -0.61755  -0.61421  -0.58985  -0.53654
  Beta  occ. eigenvalues --   -0.50999  -0.49403  -0.46988  -0.45075  -0.41543
  Beta  occ. eigenvalues --   -0.40645  -0.39316  -0.37554  -0.37142  -0.36441
  Beta  occ. eigenvalues --   -0.36357  -0.34884  -0.32973  -0.32422  -0.31758
  Beta  occ. eigenvalues --   -0.31446  -0.31050  -0.30412  -0.30031  -0.29358
  Beta  occ. eigenvalues --   -0.28743  -0.28473  -0.27461  -0.26984  -0.24609
  Beta  occ. eigenvalues --   -0.23813  -0.23227  -0.22768  -0.20131  -0.17844
  Beta  occ. eigenvalues --   -0.15461  -0.15069  -0.14292  -0.13269
  Beta virt. eigenvalues --    0.06870   0.07204   0.08286   0.08481   0.08661
  Beta virt. eigenvalues --    0.09264   0.09563   0.10246   0.10449   0.10930
  Beta virt. eigenvalues --    0.11226   0.11718   0.12166   0.12725   0.12771

 Mulliken charges and spin densities:
               1          2
     1  C    1.996780  -2.347058
     2  C   -0.596032   0.308249
     3  C   -2.198467   2.459957
     4  C    2.315106  -2.492032
     5  N   -0.767990   0.191103
     6  O    0.314062   0.008677
     7  N   -0.138512   0.041420
     8  C   -0.067647   0.115164
     9  O   -0.302699   0.087269
    10  C   -0.320520  -0.125608
    11  N   -0.080671  -0.008137
    12  C   -0.250163   0.000764
    13  O   -0.323422   0.001969
    14  C    0.112554  -0.057244
    15  C    0.191850   0.117324
    16  C   -0.541569  -0.120609
    17  C   -0.576678  -0.093365
    18  H   -0.224726   0.395592
    19  H    0.007192   0.143895
    20  H   -0.526911   0.705322
    21  H   -1.071647   1.257262
    22  H    0.132834   0.186680
    23  H    0.212621  -0.002965
    24  H    0.214973   0.012502
    25  H    0.334374   0.002103
    26  H    0.152979  -0.008483
    27  H    0.182700   0.004002
    28  H    0.139295   0.044128
    29  H    0.095504   0.018069
    30  H    0.064628   0.061992
    31  H    0.158874   0.026317
    32  H    0.206183  -0.008468
    33  H    0.054094   0.065452
    34  H    0.101053   0.008758
 Sum of Mulliken charges =  -1.00000   1.00000

 Dipole moment (field-independent basis, Debye):
    X=             -6.0966    Y=              1.5278    Z=             -4.1926  Tot=              7.5552
 Quadrupole moment (field-independent basis, Debye-Ang):
   XX=           -168.4730   YY=           -142.4288   ZZ=           -136.0509
   XY=              5.7502   XZ=            -14.8623   YZ=             -4.4342

 Summary of Natural Population Analysis:

                                       Natural Population
                Natural  -----------------------------------------------
    Atom  No    Charge         Core      Valence    Rydberg      Total
 -----------------------------------------------------------------------
      C    1   -0.31004      0.99963     2.30429    0.00612     3.31004
      C    2    0.20220      0.99952     1.78390    0.01438     2.79780
      C    3   -0.19113      0.99945     2.18247    0.00921     3.19113
      C    4    0.18274      0.99958     1.80179    0.01589     2.81726
      N    5   -0.10883      0.99965     2.59604    0.01315     3.60883
      O    6   -0.16052      0.99985     3.15189    0.00878     4.16052
      N    7   -0.32051      0.99963     2.81141    0.00947     3.82051
      C    8    0.36914      0.99969     1.60760    0.02357     2.63086
      O    9   -0.29814      0.99987     3.29243    0.00583     4.29814
      C   10   -0.13723      0.99958     2.12815    0.00950     3.13723
      N   11   -0.31776      0.99967     2.80836    0.00973     3.81776
      C   12    0.34582      0.99967     1.63199    0.02252     2.65418
      O   13   -0.32699      0.99988     3.32128    0.00583     4.32699
      C   14   -0.23404      0.99957     2.22678    0.00769     3.23404
      C   15   -0.11420      0.99962     2.10550    0.00908     3.11420
      C   16   -0.28419      0.99965     2.27964    0.00491     3.28419
      C   17   -0.28705      0.99965     2.28229    0.00511     3.28705
      H   18    0.11281      0.00000     0.38545    0.00174     0.38719
      H   19    0.10730      0.00000     0.39167    0.00103     0.39270
      H   20    0.11270      0.00000     0.38537    0.00193     0.38730
      H   21    0.11566      0.00000     0.38172    0.00262     0.38434
      H   22    0.20198      0.00000     0.29545    0.00257     0.29802
      H   23    0.10258      0.00000     0.39648    0.00094     0.39742
      H   24    0.12056      0.00000     0.37841    0.00103     0.37944
      H   25    0.20835      0.00000     0.28899    0.00267     0.29165
      H   26    0.10689      0.00000     0.39198    0.00114     0.39311
      H   27    0.10501      0.00000     0.39392    0.00107     0.39499
      H   28    0.10018      0.00000     0.39760    0.00223     0.39982
      H   29    0.08959      0.00000     0.40945    0.00096     0.41041
      H   30    0.09698      0.00000     0.40215    0.00087     0.40302
      H   31    0.11064      0.00000     0.38857    0.00079     0.38936
      H   32    0.11423      0.00000     0.38477    0.00101     0.38577
      H   33    0.09523      0.00000     0.40397    0.00081     0.40477
      H   34    0.09006      0.00000     0.40900    0.00094     0.40994
 =======================================================================
   * Total *   -0.00000     16.99416    46.80076    0.20509    64.00000

 Normal termination of Gaussian 16 at Fri Dec 11 13:21:20 2020.
