 Gaussian 16, Revision A.03,

 -----------------------------------------------------------
 # opt freq B3LYP/6-31G(d) empiricaldispersion=gd3bj scf=xqc
 -----------------------------------------------------------

 ------------------------------
 CID_88052338_JID_1719_neutraal
 ------------------------------
 Symbolic Z-matrix:
 Charge =  0 Multiplicity = 1

 SCF Done:  E(RB3LYP) =  -577.251824305     A.U. after   13 cycles
 SCF Done:  E(RB3LYP) =  -577.255519030     A.U. after   11 cycles
 SCF Done:  E(RB3LYP) =  -577.255390467     A.U. after   11 cycles
 SCF Done:  E(RB3LYP) =  -577.256377084     A.U. after   11 cycles
 SCF Done:  E(RB3LYP) =  -577.256564802     A.U. after   11 cycles
 SCF Done:  E(RB3LYP) =  -577.256829430     A.U. after   10 cycles
 SCF Done:  E(RB3LYP) =  -577.256927511     A.U. after   11 cycles
 SCF Done:  E(RB3LYP) =  -577.256992385     A.U. after    9 cycles
 SCF Done:  E(RB3LYP) =  -577.257007138     A.U. after    9 cycles
 SCF Done:  E(RB3LYP) =  -577.257012701     A.U. after    8 cycles
 SCF Done:  E(RB3LYP) =  -577.257014859     A.U. after    9 cycles
 SCF Done:  E(RB3LYP) =  -577.257015426     A.U. after    7 cycles
 SCF Done:  E(RB3LYP) =  -577.257015583     A.U. after    7 cycles
 SCF Done:  E(RB3LYP) =  -577.257015658     A.U. after    6 cycles
 Optimization completed.
    -- Stationary point found.

 1\1\GINC-NODE307\FOpt\RB3LYP\6-31G(d)\C7H16O4\VSC10255\08-Dec-2020\0\\
 # opt freq B3LYP/6-31G(d) empiricaldispersion=gd3bj scf=xqc\\CID_88052
 338_JID_1719_neutraal\\0,1\C,0.8437721608,-0.0958367602,-0.08369665\C,
 0.8354247745,-1.397461144,0.7154462056\O,1.6391084667,-1.3669989854,1.
 8948604069\C,3.054133598,-1.634272634,1.8306398722\C,3.4559157719,-2.8
 070325414,0.9263794456\C,3.6580225309,-2.5402701122,-0.5844224823\C,5.
 1126732257,-2.2250138719,-0.9347871093\O,5.8555116905,-3.4139087089,-0
 .652512586\O,3.2351866172,-3.6567539753,-1.3599655437\C,3.8044480916,-

 Normal termination of Gaussian 16 at Tue Dec  8 20:52:46 2020.

 --------------------------------------------------------------------
 #N Geom=AllCheck Guess=TCheck SCRF=Check GenChk RB3LYP/6-31G(d) Freq
 --------------------------------------------------------------------

 Structure from the checkpoint file:  "JID_1719.chk"
 ------------------------------
 CID_88052338_JID_1719_neutraal
 ------------------------------
 Charge =  0 Multiplicity = 1

 SCF Done:  E(RB3LYP) =  -577.257015658     A.U. after    1 cycles

  Exact polarizability:  98.550  -4.356  87.804   1.104  -0.463  76.987
 Approx polarizability: 125.125  -2.733 122.101   1.442  -0.184 110.716

                      1                      2                      3
                      A                      A                      A
 Frequencies --     37.7691                71.9772                82.8223
 Red. masses --      4.4288                 4.1252                 4.1968
 Frc consts  --      0.0037                 0.0126                 0.0170
 IR Inten    --      3.6794                 1.3543                 0.7468

                      4                      5                      6
                      A                      A                      A
 Frequencies --    123.8494               131.8788               146.4508
 Red. masses --      3.5680                 3.1566                 2.4309
 Frc consts  --      0.0322                 0.0323                 0.0307
 IR Inten    --      2.9511                 2.0538                 0.9356

                      7                      8                      9
                      A                      A                      A
 Frequencies --    194.5863               233.0568               237.7075
 Red. masses --      2.4191                 2.1984                 1.4817
 Frc consts  --      0.0540                 0.0704                 0.0493
 IR Inten    --      5.2480                20.8550                43.5895

                     10                     11                     12
                      A                      A                      A
 Frequencies --    249.2579               273.2717               315.8347
 Red. masses --      1.7232                 2.5367                 2.4690
 Frc consts  --      0.0631                 0.1116                 0.1451
 IR Inten    --     40.5403                12.6269                 1.6592

                     13                     14                     15
                      A                      A                      A
 Frequencies --    355.0698               376.5390               417.3397
 Red. masses --      2.6650                 2.8960                 2.9715
 Frc consts  --      0.1980                 0.2419                 0.3049
 IR Inten    --      3.3855                 0.2625                 5.0857

                     16                     17                     18
                      A                      A                      A
 Frequencies --    425.3609               473.3518               503.3341
 Red. masses --      1.9233                 1.2560                 1.1346
 Frc consts  --      0.2050                 0.1658                 0.1694
 IR Inten    --      2.7260               102.6654                94.6537

                     19                     20                     21
                      A                      A                      A
 Frequencies --    541.1580               634.3961               688.6711
 Red. masses --      2.6245                 3.4548                 3.0899
 Frc consts  --      0.4528                 0.8192                 0.8634
 IR Inten    --     24.5245                36.2444                 3.7172

                     22                     23                     24
                      A                      A                      A
 Frequencies --    755.4891               812.9187               835.3822
 Red. masses --      2.8043                 1.4306                 1.9511
 Frc consts  --      0.9430                 0.5570                 0.8022
 IR Inten    --     15.9136                 0.8701                 3.0216

                     25                     26                     27
                      A                      A                      A
 Frequencies --    903.5726               907.5606               956.0157
 Red. masses --      1.9709                 2.0988                 2.3262
 Frc consts  --      0.9481                 1.0185                 1.2526
 IR Inten    --     16.9279                 8.4561                16.2468

                     28                     29                     30
                      A                      A                      A
 Frequencies --   1007.0733              1028.1246              1072.3017
 Red. masses --      2.2056                 2.4863                 3.0160
 Frc consts  --      1.3179                 1.5484                 2.0432
 IR Inten    --     24.5955                40.8854                78.6984

                     31                     32                     33
                      A                      A                      A
 Frequencies --   1085.8496              1100.3249              1118.9956
 Red. masses --      3.2462                 3.5824                 1.8963
 Frc consts  --      2.2551                 2.5554                 1.3990
 IR Inten    --     22.0667               149.5760                 5.1952

                     34                     35                     36
                      A                      A                      A
 Frequencies --   1123.7099              1145.7057              1159.5901
 Red. masses --      2.9742                 2.4973                 2.1431
 Frc consts  --      2.2127                 1.9314                 1.6978
 IR Inten    --     32.2770                29.3436               100.8274

                     37                     38                     39
                      A                      A                      A
 Frequencies --   1201.4750              1209.2640              1244.5249
 Red. masses --      1.2130                 1.7501                 1.1937
 Frc consts  --      1.0317                 1.5079                 1.0893
 IR Inten    --     22.5419                19.7297                23.4458

                     40                     41                     42
                      A                      A                      A
 Frequencies --   1261.0196              1274.3279              1306.7374
 Red. masses --      1.2129                 1.2880                 1.2477
 Frc consts  --      1.1364                 1.2323                 1.2553
 IR Inten    --     25.8785                52.0084                 7.0445

                     43                     44                     45
                      A                      A                      A
 Frequencies --   1338.3802              1350.3242              1368.0155
 Red. masses --      1.3485                 1.1102                 1.3626
 Frc consts  --      1.4232                 1.1927                 1.5024
 IR Inten    --      7.4581                 6.8489                 3.9047

                     46                     47                     48
                      A                      A                      A
 Frequencies --   1398.1362              1417.9126              1422.3332
 Red. masses --      1.2659                 1.2151                 1.4078
 Frc consts  --      1.4580                 1.4394                 1.6780
 IR Inten    --     32.9946                 2.8998                 6.7063

                     49                     50                     51
                      A                      A                      A
 Frequencies --   1434.4860              1443.9103              1452.3523
 Red. masses --      1.1863                 1.2769                 1.2567
 Frc consts  --      1.4382                 1.5686                 1.5619
 IR Inten    --      2.7435                20.3270                45.3679

                     52                     53                     54
                      A                      A                      A
 Frequencies --   1465.3791              1470.7676              1516.7176
 Red. masses --      1.4242                 1.2978                 1.0494
 Frc consts  --      1.8018                 1.6540                 1.4223
 IR Inten    --     39.6210                48.4942                 6.2574

                     55                     56                     57
                      A                      A                      A
 Frequencies --   1518.5346              1524.1011              1541.1817
 Red. masses --      1.0735                 1.0483                 1.0903
 Frc consts  --      1.4585                 1.4347                 1.5258
 IR Inten    --     11.7728                 1.0280                 9.8816

                     58                     59                     60
                      A                      A                      A
 Frequencies --   1545.9239              1551.3373              2999.7952
 Red. masses --      1.0841                 1.0874                 1.0688
 Frc consts  --      1.5265                 1.5419                 5.6665
 IR Inten    --      3.7847                 0.9687                62.0382

                     61                     62                     63
                      A                      A                      A
 Frequencies --   3025.8265              3056.0258              3057.7661
 Red. masses --      1.0557                 1.0367                 1.0794
 Frc consts  --      5.6946                 5.7042                 5.9460
 IR Inten    --     43.7194                15.5080                26.5636

                     64                     65                     66
                      A                      A                      A
 Frequencies --   3061.3492              3066.7424              3069.3737
 Red. masses --      1.0591                 1.1037                 1.0786
 Frc consts  --      5.8482                 6.1161                 5.9870
 IR Inten    --     29.1635                38.5644                22.9473

                     67                     68                     69
                      A                      A                      A
 Frequencies --   3079.5399              3096.2678              3106.4887
 Red. masses --      1.0876                 1.1064                 1.0944
 Frc consts  --      6.0768                 6.2492                 6.2223
 IR Inten    --     60.1238                19.1607                14.0140

                     70                     71                     72
                      A                      A                      A
 Frequencies --   3115.1562              3123.1359              3137.1264
 Red. masses --      1.0929                 1.1008                 1.1025
 Frc consts  --      6.2485                 6.3264                 6.3931
 IR Inten    --     41.3778                30.3181                48.5927

                     73                     74                     75
                      A                      A                      A
 Frequencies --   3677.7873              3699.8701              3777.4117
 Red. masses --      1.0646                 1.0651                 1.0668
 Frc consts  --      8.4842                 8.5901                 8.9689
 IR Inten    --     45.7697                38.4437                32.8371

 - Thermochemistry -
 -------------------
 Temperature   298.150 Kelvin.  Pressure   1.00000 Atm.
 Atom     1 has atomic number  6 and mass  12.00000

 Molecular mass:   164.10486 amu.
 Principal axes and moments of inertia in atomic units:
                           1         2         3
     Eigenvalues --  1240.444952665.634663238.63773
           X            0.99933  -0.03618   0.00588
           Y            0.03627   0.99921  -0.01595
           Z           -0.00530   0.01615   0.99986
 This molecule is an asymmetric top.
 Rotational symmetry number  1.
 Warning -- assumption of classical behavior for rotation
           may cause significant error
 Rotational temperatures (Kelvin)      0.06982     0.03249     0.02674
 Rotational constants (GHZ):           1.45491     0.67704     0.55725
 Zero-point vibrational energy     627639.3 (Joules/Mol)
                                  150.00940 (Kcal/Mol)
 Warning -- explicit consideration of  19 degrees of freedom as
           vibrations may cause significant error
 Vibrational temperatures:     54.34   103.56   119.16   178.19   189.74
          (Kelvin)            210.71   279.97   335.32   342.01   358.63
                              393.18   454.42   510.87   541.76   600.46
                              612.00   681.05   724.19   778.61   912.75
                              990.84  1086.98  1169.61  1201.93  1300.04
                             1305.78  1375.49  1448.95  1479.24  1542.80
                             1562.30  1583.12  1609.99  1616.77  1648.42
                             1668.39  1728.65  1739.86  1790.59  1814.33
                             1833.47  1880.10  1925.63  1942.82  1968.27
                             2011.61  2040.06  2046.42  2063.91  2077.46
                             2089.61  2108.35  2116.11  2182.22  2184.83
                             2192.84  2217.42  2224.24  2232.03  4316.04
                             4353.49  4396.94  4399.44  4404.60  4412.36
                             4416.14  4430.77  4454.84  4469.54  4482.01
                             4493.50  4513.63  5291.52  5323.29  5434.85

 Zero-point correction=                           0.239055 (Hartree/Particle)
 Thermal correction to Energy=                    0.252243
 Thermal correction to Enthalpy=                  0.253187
 Thermal correction to Gibbs Free Energy=         0.199453
 Sum of electronic and zero-point Energies=           -577.017960
 Sum of electronic and thermal Energies=              -577.004773
 Sum of electronic and thermal Enthalpies=            -577.003829
 Sum of electronic and thermal Free Energies=         -577.057563

                     E (Thermal)             CV                S
                      KCal/Mol        Cal/Mol-Kelvin    Cal/Mol-Kelvin
 Total                  158.285             48.167            113.093
 Electronic               0.000              0.000              0.000
 Translational            0.889              2.981             41.195
 Rotational               0.889              2.981             30.749
 Vibrational            156.507             42.205             41.149
 Vibration     1          0.594              1.982              5.373
 Vibration     2          0.598              1.967              4.099
 Vibration     3          0.600              1.961              3.823
 Vibration     4          0.610              1.929              3.039
 Vibration     5          0.612              1.921              2.918
 Vibration     6          0.617              1.907              2.718
 Vibration     7          0.635              1.847              2.184
 Vibration     8          0.654              1.790              1.855
 Vibration     9          0.656              1.783              1.820
 Vibration    10          0.662              1.764              1.736
 Vibration    11          0.676              1.723              1.575
 Vibration    12          0.703              1.643              1.332
 Vibration    13          0.731              1.565              1.144
 Vibration    14          0.747              1.520              1.053
 Vibration    15          0.780              1.433              0.901
 Vibration    16          0.787              1.415              0.874
 Vibration    17          0.830              1.309              0.728
 Vibration    18          0.859              1.243              0.650
 Vibration    19          0.896              1.159              0.563

                           ! Non-Optimized Parameters !

 1\1\GINC-NODE307\Freq\RB3LYP\6-31G(d)\C7H16O4\VSC10255\08-Dec-2020\0\\
 #N Geom=AllCheck Guess=TCheck SCRF=Check GenChk RB3LYP/6-31G(d) Freq\\
 CID_88052338_JID_1719_neutraal\\0,1\C,0.8437721608,-0.0958367602,-0.08
 369665\C,0.8354247745,-1.397461144,0.7154462056\O,1.6391084667,-1.3669
 989854,1.8948604069\C,3.054133598,-1.634272634,1.8306398722\C,3.455915
 7719,-2.8070325414,0.9263794456\C,3.6580225309,-2.5402701122,-0.584422
 4823\C,5.1126732257,-2.2250138719,-0.9347871093\O,5.8555116905,-3.4139
 087089,-0.652512586\O,3.2351866172,-3.6567539753,-1.3599655437\C,3.804

 Normal termination of Gaussian 16 at Tue Dec  8 20:59:56 2020.

 ----------------------------------------------------------------------
 # B3LYP/6-311++G(d,p) empiricaldispersion=gd3bj scf=xqc pop=npa geom=c
 heck
 ----------------------------------------------------------------------

 --------------------------------------
 CID_88052338_JID_1719_Energie_neutraal
 --------------------------------------
 Structure from the checkpoint file:  "JID_1719.chk"
 Charge =  0 Multiplicity = 1

 SCF Done:  E(RB3LYP) =  -577.460277074     A.U. after   13 cycles
 Normal termination of Gaussian 16 at Tue Dec  8 21:01:59 2020.

 ----------------------------------------------------------------------
 # B3LYP/6-311++G(d,p) empiricaldispersion=gd3bj scf=xqc pop=npa geom=c
 heck
 ----------------------------------------------------------------------

 ------------------------------------
 CID_88052338_JID_1719_Energie_kation
 ------------------------------------
 Structure from the checkpoint file:  "JID_1719.chk"
 Charge =  1 Multiplicity = 2

 SCF Done:  E(UB3LYP) =  -577.123082274     A.U. after   26 cycles
 Normal termination of Gaussian 16 at Tue Dec  8 21:09:02 2020.
 Gaussian 16:  ES64L-G16RevA.03 25-Dec-2016

 -----------------------------------
 CID_88052338_JID_1719_Energie_anion
 -----------------------------------
 Structure from the checkpoint file:  "JID_1719.chk"
 Charge = -1 Multiplicity = 2

                         Standard orientation:
 ---------------------------------------------------------------------
 Center     Atomic      Atomic             Coordinates (Angstroms)
 Number     Number       Type             X           Y           Z
 ---------------------------------------------------------------------
      1          6           0        2.162363   -1.490597    1.203700
      2          6           0        1.780197   -1.545207   -0.274100
      3          8           0        1.861331   -0.289320   -0.947908
      4          6           0        0.768931    0.649551   -0.892792
      5          6           0       -0.628037    0.034659   -1.050494
      6          6           0       -1.334083   -0.528597    0.205999
      7          6           0       -2.243454    0.500453    0.878494
      8          8           0       -3.288890    0.777694   -0.057005
      9          8           0       -2.109329   -1.678024   -0.117427
     10          6           0        0.959028    1.572238    0.318386
     11          8           0        2.289661    2.047074    0.365226
     12          1           0        3.134652   -1.002613    1.329815
     13          1           0        2.234412   -2.507443    1.606999
     14          1           0        1.430086   -0.944374    1.805694
     15          1           0        2.495502   -2.182030   -0.805663
     16          1           0        0.790812   -1.997396   -0.408556
     17          1           0        0.958179    1.264720   -1.779870
     18          1           0       -1.280416    0.791785   -1.500644
     19          1           0       -0.554060   -0.777750   -1.780589
     20          1           0       -0.604326   -0.867192    0.945896
     21          1           0       -2.650283    0.063844    1.800976
     22          1           0       -1.690014    1.413889    1.136381
     23          1           0       -3.986762    1.270223    0.397750
     24          1           0       -2.905502   -1.330831   -0.556591
     25          1           0        0.295633    2.440848    0.226599
     26          1           0        0.694743    1.053122    1.253100
     27          1           0        2.825495    1.296802    0.050459
 ---------------------------------------------------------------------

 SCF Done:  E(UB3LYP) =  -577.450206902     A.U. after   27 cycles

 The electronic state is 2-A.
 Alpha  occ. eigenvalues --  -19.03589 -19.02475 -19.01624 -19.01526 -10.13307
 Alpha  occ. eigenvalues --  -10.12632 -10.12195 -10.12001 -10.10892 -10.07260
 Alpha  occ. eigenvalues --  -10.07169  -0.95077  -0.93225  -0.92105  -0.90423
 Alpha  occ. eigenvalues --   -0.70157  -0.66578  -0.62634  -0.58593  -0.55124
 Alpha  occ. eigenvalues --   -0.50768  -0.47718  -0.42564  -0.42475  -0.41157
 Alpha  occ. eigenvalues --   -0.38062  -0.37451  -0.35876  -0.35629  -0.34078
 Alpha  occ. eigenvalues --   -0.32945  -0.32077  -0.31168  -0.30641  -0.29038
 Alpha  occ. eigenvalues --   -0.27772  -0.26223  -0.25034  -0.23791  -0.22557
 Alpha  occ. eigenvalues --   -0.21552  -0.19189  -0.17751  -0.17226  -0.16747
 Alpha  occ. eigenvalues --    0.04527
 Alpha virt. eigenvalues --    0.06219   0.07706   0.08499   0.09431   0.09769
 Alpha virt. eigenvalues --    0.10042   0.11028   0.11539   0.12488   0.12906
 Alpha virt. eigenvalues --    0.13386   0.14246   0.14432   0.14782   0.16059

  Beta  occ. eigenvalues --  -19.03585 -19.02472 -19.01545 -19.01508 -10.13302
  Beta  occ. eigenvalues --  -10.12615 -10.12190 -10.11991 -10.10852 -10.07231
  Beta  occ. eigenvalues --  -10.07157  -0.95066  -0.93139  -0.92096  -0.90299
  Beta  occ. eigenvalues --   -0.70130  -0.66534  -0.62569  -0.58532  -0.55070
  Beta  occ. eigenvalues --   -0.50702  -0.47675  -0.42548  -0.42347  -0.41111
  Beta  occ. eigenvalues --   -0.38008  -0.37420  -0.35831  -0.35598  -0.34045
  Beta  occ. eigenvalues --   -0.32918  -0.32041  -0.31133  -0.30603  -0.29006
  Beta  occ. eigenvalues --   -0.27741  -0.26189  -0.24970  -0.23763  -0.22516
  Beta  occ. eigenvalues --   -0.21538  -0.19173  -0.17680  -0.17198  -0.16721
  Beta virt. eigenvalues --    0.06735   0.07850   0.08215   0.08698   0.10029
  Beta virt. eigenvalues --    0.10224   0.10575   0.11362   0.11564   0.12966
  Beta virt. eigenvalues --    0.13481   0.13603   0.14348   0.14589   0.15046

 Mulliken charges and spin densities:
               1          2
     1  C    0.572842  -0.985007
     2  C   -0.277701   0.039643
     3  O   -0.179639   0.013651
     4  C    0.180306  -0.138079
     5  C   -0.649632   0.029731
     6  C   -1.262024   1.088374
     7  C    2.384878  -2.807011
     8  O   -0.368468   0.089876
     9  O   -0.178802   0.014638
    10  C   -0.169393  -0.285628
    11  O   -0.230546   0.014665
    12  H    0.004109   0.145606
    13  H   -0.210626   0.349894
    14  H   -0.246908   0.358404
    15  H   -0.340704   0.528824
    16  H    0.063778   0.125242
    17  H    0.148013   0.068093
    18  H    0.158518   0.024476
    19  H    0.008017   0.200435
    20  H    0.490430  -0.258349
    21  H   -0.620898   0.806632
    22  H   -0.303390   0.451416
    23  H   -0.569062   0.865371
    24  H    0.143903   0.109392
    25  H    0.022104   0.152451
    26  H    0.204777  -0.005269
    27  H    0.226117   0.002531
 Sum of Mulliken charges =  -1.00000   1.00000

 Dipole moment (field-independent basis, Debye):
    X=              6.3865    Y=             -1.3981    Z=             -3.0111  Tot=              7.1978
 Quadrupole moment (field-independent basis, Debye-Ang):
   XX=           -146.7940   YY=           -112.9599   ZZ=            -97.5241
   XY=             12.7302   XZ=              7.6645   YZ=             -2.2984

 Summary of Natural Population Analysis:

                                       Natural Population
                Natural  -----------------------------------------------
    Atom  No    Charge         Core      Valence    Rydberg      Total
 -----------------------------------------------------------------------
      C    1   -0.30184      0.99966     2.29635    0.00582     3.30184
      C    2   -0.01606      0.99958     2.00324    0.01325     3.01606
      O    3   -0.31673      0.99988     3.30646    0.01039     4.31673
      C    4    0.05794      0.99953     1.92898    0.01355     2.94206
      C    5   -0.22398      0.99958     2.21608    0.00833     3.22398
      C    6    0.04587      0.99956     1.93933    0.01523     2.95413
      C    7   -0.01824      0.99957     2.00547    0.01319     3.01824
      O    8   -0.38557      0.99989     3.37829    0.00739     4.38557
      O    9   -0.37477      0.99990     3.36865    0.00622     4.37477
      C   10   -0.02269      0.99957     2.01180    0.01132     3.02269
      O   11   -0.37226      0.99990     3.36563    0.00672     4.37226
      H   12    0.09852      0.00000     0.40039    0.00109     0.40148
      H   13    0.10340      0.00000     0.39532    0.00128     0.39660
      H   14    0.09672      0.00000     0.40190    0.00138     0.40328
      H   15    0.08805      0.00000     0.41066    0.00130     0.41195
      H   16    0.08771      0.00000     0.41078    0.00151     0.41229
      H   17    0.09186      0.00000     0.40683    0.00132     0.40814
      H   18    0.11505      0.00000     0.38352    0.00143     0.38495
      H   19    0.11000      0.00000     0.38867    0.00133     0.39000
      H   20    0.08797      0.00000     0.40936    0.00267     0.41203
      H   21    0.08576      0.00000     0.41171    0.00253     0.41424
      H   22    0.08076      0.00000     0.41674    0.00250     0.41924
      H   23    0.24826      0.00000     0.21022    0.04153     0.25174
      H   24    0.23605      0.00000     0.26064    0.00332     0.26395
      H   25    0.08992      0.00000     0.40851    0.00157     0.41008
      H   26    0.07546      0.00000     0.42269    0.00184     0.42454
      H   27    0.23285      0.00000     0.26381    0.00334     0.26715
 =======================================================================
   * Total *    0.00000     10.99663    33.82203    0.18134    45.00000

 Normal termination of Gaussian 16 at Tue Dec  8 21:16:15 2020.
