 Gaussian 16, Revision A.03,

 -----------------------------------------------------------
 # opt freq B3LYP/6-31G(d) empiricaldispersion=gd3bj scf=xqc
 -----------------------------------------------------------

 -------------------------------
 CID_117217517_JID_3540_neutraal
 -------------------------------
 Symbolic Z-matrix:
 Charge =  0 Multiplicity = 1

 SCF Done:  E(RB3LYP) =  -1401.99097212     A.U. after   15 cycles
 SCF Done:  E(RB3LYP) =  -1402.00570598     A.U. after   13 cycles
 SCF Done:  E(RB3LYP) =  -1402.01153906     A.U. after   13 cycles
 SCF Done:  E(RB3LYP) =  -1402.01474128     A.U. after   15 cycles
 SCF Done:  E(RB3LYP) =  -1402.01572434     A.U. after   13 cycles
 SCF Done:  E(RB3LYP) =  -1402.01659158     A.U. after   12 cycles
 SCF Done:  E(RB3LYP) =  -1402.01684578     A.U. after   12 cycles
 SCF Done:  E(RB3LYP) =  -1402.01695289     A.U. after   11 cycles
 SCF Done:  E(RB3LYP) =  -1402.01698158     A.U. after   10 cycles
 SCF Done:  E(RB3LYP) =  -1402.01699019     A.U. after    9 cycles
 SCF Done:  E(RB3LYP) =  -1402.01699293     A.U. after    9 cycles
 SCF Done:  E(RB3LYP) =  -1402.01699407     A.U. after    9 cycles
 SCF Done:  E(RB3LYP) =  -1402.01699425     A.U. after    8 cycles
 SCF Done:  E(RB3LYP) =  -1402.01699433     A.U. after    7 cycles
 SCF Done:  E(RB3LYP) =  -1402.01699437     A.U. after    7 cycles
 SCF Done:  E(RB3LYP) =  -1402.01699438     A.U. after    6 cycles
 Optimization completed.
    -- Stationary point found.
 Normal termination of Gaussian 16 at Wed Dec  9 23:36:00 2020.

 --------------------------------------------------------------------
 #N Geom=AllCheck Guess=TCheck SCRF=Check GenChk RB3LYP/6-31G(d) Freq
 --------------------------------------------------------------------

 Structure from the checkpoint file:  "JID_3540.chk"
 -------------------------------
 CID_117217517_JID_3540_neutraal
 -------------------------------
 Charge =  0 Multiplicity = 1

 SCF Done:  E(RB3LYP) =  -1402.01699438     A.U. after    1 cycles

  Exact polarizability: 117.141  -5.275 124.745   4.140  -4.308  79.586
 Approx polarizability: 174.759  -5.141 229.421  10.969 -15.734 137.875

                      1                      2                      3
                      A                      A                      A
 Frequencies --     43.2014                83.4627                93.3225
 Red. masses --      5.3288                10.2027                 4.5161
 Frc consts  --      0.0059                 0.0419                 0.0232
 IR Inten    --      5.0155                 1.4328                 9.5994

                      4                      5                      6
                      A                      A                      A
 Frequencies --    148.7892               164.7513               167.1408
 Red. masses --      2.7164                 4.6811                 2.3043
 Frc consts  --      0.0354                 0.0749                 0.0379
 IR Inten    --      0.8537                 5.2101                 1.1391

                      7                      8                      9
                      A                      A                      A
 Frequencies --    194.0493               234.1797               265.8599
 Red. masses --      2.6199                 6.9999                 4.3554
 Frc consts  --      0.0581                 0.2262                 0.1814
 IR Inten    --      7.8716                 1.5716                 1.5089

                     10                     11                     12
                      A                      A                      A
 Frequencies --    288.4882               326.6354               353.2980
 Red. masses --      2.3965                 3.9173                 5.4547
 Frc consts  --      0.1175                 0.2462                 0.4011
 IR Inten    --      4.1795                 1.3105                 6.9605

                     13                     14                     15
                      A                      A                      A
 Frequencies --    370.4611               392.1368               427.7138
 Red. masses --      6.7711                10.1431                 1.8187
 Frc consts  --      0.5475                 0.9190                 0.1960
 IR Inten    --      3.7820                 8.8780                19.5643

                     16                     17                     18
                      A                      A                      A
 Frequencies --    438.8576               477.2116               487.4688
 Red. masses --      1.9442                 4.7287                 7.3036
 Frc consts  --      0.2206                 0.6345                 1.0225
 IR Inten    --     96.3053                 2.2330                27.7388

                     19                     20                     21
                      A                      A                      A
 Frequencies --    537.1125               559.0940               611.7806
 Red. masses --      6.9564                 7.9650                11.0408
 Frc consts  --      1.1824                 1.4669                 2.4347
 IR Inten    --     65.7499                67.2408                14.4455

                     22                     23                     24
                      A                      A                      A
 Frequencies --    623.9468               655.0775               663.8524
 Red. masses --      2.6637                 4.9519                 3.2087
 Frc consts  --      0.6110                 1.2520                 0.8331
 IR Inten    --     65.9446                40.9240                28.1048

                     25                     26                     27
                      A                      A                      A
 Frequencies --    702.3711               755.8629               822.4926
 Red. masses --      1.9963                 3.9347                 5.3379
 Frc consts  --      0.5803                 1.3245                 2.1276
 IR Inten    --    159.0936                21.7623                47.3539

                     28                     29                     30
                      A                      A                      A
 Frequencies --    870.1057               939.9189               974.7290
 Red. masses --      2.6389                 1.4634                 1.8234
 Frc consts  --      1.1771                 0.7617                 1.0207
 IR Inten    --     32.2682                 9.0490                13.3264

                     31                     32                     33
                      A                      A                      A
 Frequencies --    992.9110              1011.0026              1079.9702
 Red. masses --      1.4443                 1.7382                 2.3756
 Frc consts  --      0.8390                 1.0468                 1.6325
 IR Inten    --      6.7192                28.1521                83.8828

                     34                     35                     36
                      A                      A                      A
 Frequencies --   1107.9443              1140.3170              1236.7349
 Red. masses --      5.5478                 8.2545                 1.4748
 Frc consts  --      4.0125                 6.3240                 1.3291
 IR Inten    --    153.3636               120.7630                30.1798

                     37                     38                     39
                      A                      A                      A
 Frequencies --   1257.5863              1280.7829              1311.1536
 Red. masses --      1.8427                 2.3245                 2.2809
 Frc consts  --      1.7171                 2.2466                 2.3103
 IR Inten    --     15.4004                85.0784                70.5819

                     40                     41                     42
                      A                      A                      A
 Frequencies --   1322.4032              1327.4800              1382.3186
 Red. masses --      1.5399                12.8102                 1.2020
 Frc consts  --      1.5866                13.3003                 1.3533
 IR Inten    --     45.0700               183.3649                13.0008

                     43                     44                     45
                      A                      A                      A
 Frequencies --   1427.8118              1474.4458              1476.8024
 Red. masses --      3.1346                 1.0733                 1.0916
 Frc consts  --      3.7650                 1.3747                 1.4027
 IR Inten    --     44.7148                15.6685                 0.2891

                     46                     47                     48
                      A                      A                      A
 Frequencies --   1483.1490              1633.5732              1687.5135
 Red. masses --      1.1267                 6.9208                 1.3609
 Frc consts  --      1.4603                10.8813                 2.2834
 IR Inten    --     17.0762                57.0667                41.3448

                     49                     50                     51
                      A                      A                      A
 Frequencies --   1741.6141              3068.0168              3092.2196
 Red. masses --      4.5878                 1.0636                 1.0294
 Frc consts  --      8.1990                 5.8986                 5.7995
 IR Inten    --    152.9571                 3.6821                 0.5929

                     52                     53                     54
                      A                      A                      A
 Frequencies --   3139.9646              3156.2552              3192.3788
 Red. masses --      1.1019                 1.0923                 1.1069
 Frc consts  --      6.4006                 6.4111                 6.6463
 IR Inten    --      0.7004                16.7180                 0.0680

                     55                     56                     57
                      A                      A                      A
 Frequencies --   3206.0604              3486.1684              3644.7016
 Red. masses --      1.1075                 1.0557                 1.0929
 Frc consts  --      6.7072                 7.5593                 8.5536
 IR Inten    --      1.8664               125.4942                69.9230

 - Thermochemistry -
 -------------------
 Temperature   298.150 Kelvin.  Pressure   1.00000 Atm.
 Atom     1 has atomic number  6 and mass  12.00000

 Molecular mass:   223.99255 amu.
 Principal axes and moments of inertia in atomic units:
                           1         2         3
     Eigenvalues --  1656.069873673.245824482.82952
           X            0.99969  -0.02455  -0.00446
           Y            0.02460   0.99964   0.01100
           Z            0.00419  -0.01111   0.99993
 This molecule is an asymmetric top.
 Rotational symmetry number  1.
 Warning -- assumption of classical behavior for rotation
           may cause significant error
 Rotational temperatures (Kelvin)      0.05230     0.02358     0.01932
 Rotational constants (GHZ):           1.08977     0.49132     0.40259
 Zero-point vibrational energy     388993.6 (Joules/Mol)
                                   92.97170 (Kcal/Mol)
 Warning -- explicit consideration of  21 degrees of freedom as
           vibrations may cause significant error
 Vibrational temperatures:     62.16   120.08   134.27   214.07   237.04
          (Kelvin)            240.48   279.19   336.93   382.51   415.07
                              469.96   508.32   533.01   564.20   615.38
                              631.42   686.60   701.36   772.79   804.41
                              880.22   897.72   942.51   955.14  1010.56
                             1087.52  1183.38  1251.89  1352.33  1402.42
                             1428.58  1454.61  1553.84  1594.08  1640.66
                             1779.39  1809.39  1842.76  1886.46  1902.64
                             1909.95  1988.85  2054.30  2121.40  2124.79
                             2133.92  2350.35  2427.96  2505.79  4414.19
                             4449.01  4517.71  4541.15  4593.12  4612.81
                             5015.82  5243.91

 Zero-point correction=                           0.148160 (Hartree/Particle)
 Thermal correction to Energy=                    0.161266
 Thermal correction to Enthalpy=                  0.162210
 Thermal correction to Gibbs Free Energy=         0.108473
 Sum of electronic and zero-point Energies=          -1401.868835
 Sum of electronic and thermal Energies=             -1401.855728
 Sum of electronic and thermal Enthalpies=           -1401.854784
 Sum of electronic and thermal Free Energies=        -1401.908521

                     E (Thermal)             CV                S
                      KCal/Mol        Cal/Mol-Kelvin    Cal/Mol-Kelvin
 Total                  101.196             48.897            113.099
 Electronic               0.000              0.000              0.000
 Translational            0.889              2.981             42.122
 Rotational               0.889              2.981             31.678
 Vibrational             99.418             42.936             39.299
 Vibration     1          0.595              1.980              5.107
 Vibration     2          0.600              1.961              3.808
 Vibration     3          0.602              1.954              3.589
 Vibration     4          0.618              1.904              2.688
 Vibration     5          0.623              1.886              2.495
 Vibration     6          0.624              1.883              2.467
 Vibration     7          0.635              1.848              2.189
 Vibration     8          0.654              1.789              1.847
 Vibration     9          0.672              1.736              1.623
 Vibration    10          0.685              1.695              1.483
 Vibration    11          0.710              1.622              1.277
 Vibration    12          0.729              1.568              1.151
 Vibration    13          0.742              1.533              1.078
 Vibration    14          0.760              1.487              0.992
 Vibration    15          0.789              1.410              0.866
 Vibration    16          0.799              1.385              0.830
 Vibration    17          0.834              1.301              0.718
 Vibration    18          0.843              1.278              0.690
 Vibration    19          0.892              1.168              0.572
 Vibration    20          0.915              1.120              0.526
 Vibration    21          0.971              1.007              0.430

 Optimization completed.
    -- Stationary point found.
 Normal termination of Gaussian 16 at Wed Dec  9 23:41:09 2020.

 ----------------------------------------------------------------------
 # B3LYP/6-311++G(d,p) empiricaldispersion=gd3bj scf=xqc pop=npa geom=c
 heck
 ----------------------------------------------------------------------

 ---------------------------------------
 CID_117217517_JID_3540_Energie_neutraal
 ---------------------------------------
 Structure from the checkpoint file:  "JID_3540.chk"
 Charge =  0 Multiplicity = 1

 SCF Done:  E(RB3LYP) =  -1402.25301678     A.U. after   18 cycles
 Normal termination of Gaussian 16 at Wed Dec  9 23:43:17 2020.

 ----------------------------------------------------------------------
 # B3LYP/6-311++G(d,p) empiricaldispersion=gd3bj scf=xqc pop=npa geom=c
 heck
 ----------------------------------------------------------------------

 -------------------------------------
 CID_117217517_JID_3540_Energie_kation
 -------------------------------------
 Structure from the checkpoint file:  "JID_3540.chk"
 Charge =  1 Multiplicity = 2

 SCF Done:  E(UB3LYP) =  -1401.91909118     A.U. after   27 cycles
 Normal termination of Gaussian 16 at Wed Dec  9 23:47:35 2020.
 Gaussian 16:  ES64L-G16RevA.03 25-Dec-2016

 ----------------------------------------------------------------------
 # B3LYP/6-311++G(d,p) empiricaldispersion=gd3bj scf=xqc pop=npa geom=c
 heck
 ----------------------------------------------------------------------

 ------------------------------------
 CID_117217517_JID_3540_Energie_anion
 ------------------------------------
 Structure from the checkpoint file:  "JID_3540.chk"
 Charge = -1 Multiplicity = 2

                         Standard orientation:
 ---------------------------------------------------------------------
 Center     Atomic      Atomic             Coordinates (Angstroms)
 Number     Number       Type             X           Y           Z
 ---------------------------------------------------------------------
      1          6           0        1.822895   -1.242681   -1.348993
      2         16           0        2.236363   -0.156899    0.026371
      3          8           0        3.380374   -0.713304    0.758955
      4          8           0        2.294834    1.233113   -0.485340
      5          6           0        0.765880   -0.225022    1.124607
      6          6           0       -0.468648    0.275149    0.480793
      7          6           0       -0.823349    1.528121    0.096412
      8          6           0       -2.221190    1.537337   -0.436200
      9          7           0       -2.869058    0.438343   -0.523822
     10         16           0       -1.808352   -0.823292    0.069865
     11          8           0       -1.442538   -1.679060   -1.063614
     12          8           0       -2.397527   -1.421115    1.265397
     13          7           0       -0.096242    2.673166    0.166805
     14          1           0        2.627841   -1.126991   -2.078014
     15          1           0        0.860791   -0.951908   -1.771642
     16          1           0        1.782320   -2.269189   -0.981101
     17          1           0        0.668552   -1.253560    1.482659
     18          1           0        1.072829    0.401851    1.971002
     19          1           0       -2.689985    2.467826   -0.760198
     20          1           0       -0.461791    3.486902   -0.309420
     21          1           0        0.913702    2.553052    0.103151
 ---------------------------------------------------------------------

 SCF Done:  E(UB3LYP) =  -1402.30379084     A.U. after   20 cycles

 The electronic state is 2-A.
 Alpha  occ. eigenvalues --  -88.93051 -88.89923 -19.00695 -19.00693 -18.96728
 Alpha  occ. eigenvalues --  -18.96721 -14.19854 -14.15316 -10.10339 -10.10012
 Alpha  occ. eigenvalues --  -10.08147 -10.05543 -10.03883  -7.99681  -7.96200
 Alpha  occ. eigenvalues --   -5.95949  -5.95823  -5.95739  -5.92442  -5.92413
 Alpha  occ. eigenvalues --   -5.92319  -0.99811  -0.96544  -0.89594  -0.85851
 Alpha  occ. eigenvalues --   -0.81031  -0.77248  -0.69827  -0.65811  -0.59941
 Alpha  occ. eigenvalues --   -0.54745  -0.49973  -0.45856  -0.43649  -0.40264
 Alpha  occ. eigenvalues --   -0.39101  -0.38043  -0.37745  -0.35884  -0.34705
 Alpha  occ. eigenvalues --   -0.32288  -0.32238  -0.31841  -0.31358  -0.30403
 Alpha  occ. eigenvalues --   -0.27334  -0.25723  -0.23066  -0.21675  -0.20784
 Alpha  occ. eigenvalues --   -0.20586  -0.19798  -0.19275  -0.17838  -0.17455
 Alpha  occ. eigenvalues --   -0.15452  -0.12925  -0.09317   0.01749
 Alpha virt. eigenvalues --    0.08290   0.09021   0.10633   0.11488   0.12048
 Alpha virt. eigenvalues --    0.13004   0.13808   0.14031   0.15054   0.15489
 Alpha virt. eigenvalues --    0.16117   0.16804   0.17194   0.17560   0.18102

  Beta  occ. eigenvalues --  -88.93024 -88.89927 -19.00690 -19.00675 -18.96637
  Beta  occ. eigenvalues --  -18.96633 -14.19695 -14.14691 -10.10349 -10.10009
  Beta  occ. eigenvalues --  -10.07918 -10.05179 -10.03707  -7.99653  -7.96204
  Beta  occ. eigenvalues --   -5.95930  -5.95801  -5.95681  -5.92435  -5.92426
  Beta  occ. eigenvalues --   -5.92325  -0.99768  -0.96344  -0.89568  -0.85633
  Beta  occ. eigenvalues --   -0.80476  -0.76415  -0.69625  -0.65649  -0.59566
  Beta  occ. eigenvalues --   -0.53891  -0.49834  -0.45386  -0.43319  -0.40055
  Beta  occ. eigenvalues --   -0.38974  -0.37913  -0.37628  -0.35679  -0.34616
  Beta  occ. eigenvalues --   -0.32138  -0.32046  -0.31502  -0.31146  -0.30282
  Beta  occ. eigenvalues --   -0.26939  -0.24160  -0.22991  -0.21601  -0.20096
  Beta  occ. eigenvalues --   -0.19927  -0.19559  -0.18658  -0.17449  -0.17054
  Beta  occ. eigenvalues --   -0.13995  -0.12374  -0.07819
  Beta virt. eigenvalues --    0.08282   0.09006   0.09146   0.10646   0.11484
  Beta virt. eigenvalues --    0.12077   0.13029   0.13823   0.14042   0.15268
  Beta virt. eigenvalues --    0.15885   0.16265   0.16879   0.17362   0.17663

 Mulliken charges and spin densities:
               1          2
     1  C   -0.655982   0.003145
     2  S    0.369527   0.012615
     3  O   -0.185957   0.005342
     4  O   -0.294346   0.001832
     5  C   -1.175414  -0.013725
     6  C   -0.184450   0.048887
     7  C    0.396648   0.245355
     8  C   -0.450959   0.257349
     9  N   -0.289393   0.291981
    10  S    0.356325   0.090413
    11  O   -0.191913   0.005993
    12  O   -0.149137   0.007635
    13  N   -0.362840   0.062758
    14  H    0.196911   0.000028
    15  H    0.273398  -0.000348
    16  H    0.201277   0.000600
    17  H    0.259898   0.000562
    18  H    0.237524   0.005912
    19  H    0.131278  -0.024229
    20  H    0.231899  -0.000809
    21  H    0.285706  -0.001296
 Sum of Mulliken charges =  -1.00000   1.00000

 Dipole moment (field-independent basis, Debye):
    X=              4.7302    Y=              2.0050    Z=             -1.1788  Tot=              5.2711
 Quadrupole moment (field-independent basis, Debye-Ang):
   XX=           -142.8278   YY=           -101.1001   ZZ=           -101.1139
   XY=            -10.0984   XZ=             -3.9459   YZ=              0.4844

 Summary of Natural Population Analysis:

                                       Natural Population
                Natural  -----------------------------------------------
    Atom  No    Charge         Core      Valence    Rydberg      Total
 -----------------------------------------------------------------------
      C    1   -0.39639      0.99961     2.38979    0.00699     3.39639
      S    2    1.01741      4.99934     1.89041    0.09284     6.98259
      O    3   -0.47631      0.99991     3.47009    0.00631     4.47631
      O    4   -0.48846      0.99990     3.48167    0.00689     4.48846
      C    5   -0.29108      0.99953     2.27770    0.01385     3.29108
      C    6   -0.18917      0.99935     2.17486    0.01496     3.18917
      C    7    0.12891      0.99941     1.85984    0.01184     2.87109
      C    8    0.09694      0.99964     1.88590    0.01752     2.90306
      N    9   -0.22627      0.99968     2.71438    0.01221     3.72627
      S   10    1.07561      4.99923     1.82252    0.10264     6.92439
      O   11   -0.47179      0.99990     3.46513    0.00675     4.47179
      O   12   -0.46153      0.99990     3.45522    0.00641     4.46153
      N   13   -0.37275      0.99968     2.86346    0.00960     3.87275
      H   14    0.11060      0.00000     0.38813    0.00127     0.38940
      H   15    0.13436      0.00000     0.36445    0.00119     0.36564
      H   16    0.11375      0.00000     0.38511    0.00114     0.38625
      H   17    0.11913      0.00000     0.37931    0.00155     0.38087
      H   18    0.11688      0.00000     0.38133    0.00179     0.38312
      H   19    0.07597      0.00000     0.42216    0.00188     0.42403
      H   20    0.18052      0.00000     0.31790    0.00157     0.31948
      H   21    0.20368      0.00000     0.29455    0.00177     0.29632
 =======================================================================
   * Total *    0.00000     20.99510    36.68395    0.32095    58.00000

 Normal termination of Gaussian 16 at Wed Dec  9 23:50:49 2020.
