 Gaussian 16, Revision A.03,

 -----------------------------------------------------------
 # opt freq B3LYP/6-31G(d) empiricaldispersion=gd3bj scf=xqc
 -----------------------------------------------------------

 -------------------------------
 CID_114237733_JID_8946_neutraal
 -------------------------------
 Symbolic Z-matrix:
 Charge =  0 Multiplicity = 1

 SCF Done:  E(RB3LYP) =  -1485.97802366     A.U. after   14 cycles
 SCF Done:  E(RB3LYP) =  -1485.98748180     A.U. after   12 cycles
 SCF Done:  E(RB3LYP) =  -1485.98914523     A.U. after   12 cycles
 SCF Done:  E(RB3LYP) =  -1485.98787163     A.U. after   12 cycles
 SCF Done:  E(RB3LYP) =  -1485.98929386     A.U. after   12 cycles
 SCF Done:  E(RB3LYP) =  -1485.98979915     A.U. after   12 cycles
 SCF Done:  E(RB3LYP) =  -1485.99006816     A.U. after   12 cycles
 SCF Done:  E(RB3LYP) =  -1485.99029751     A.U. after   12 cycles
 SCF Done:  E(RB3LYP) =  -1485.99035639     A.U. after   12 cycles
 SCF Done:  E(RB3LYP) =  -1485.99051851     A.U. after   10 cycles
 SCF Done:  E(RB3LYP) =  -1485.99098469     A.U. after   10 cycles
 SCF Done:  E(RB3LYP) =  -1485.99098503     A.U. after    9 cycles
 SCF Done:  E(RB3LYP) =  -1485.99098497     A.U. after    8 cycles
 SCF Done:  E(RB3LYP) =  -1485.99098551     A.U. after    8 cycles
 SCF Done:  E(RB3LYP) =  -1485.99098553     A.U. after    7 cycles
 SCF Done:  E(RB3LYP) =  -1485.99098552     A.U. after    6 cycles
 Optimization completed.
    -- Stationary point found.
 Normal termination of Gaussian 16 at Mon Dec 14 17:09:37 2020.

 --------------------------------------------------------------------
 #N Geom=AllCheck Guess=TCheck SCRF=Check GenChk RB3LYP/6-31G(d) Freq
 --------------------------------------------------------------------

 Structure from the checkpoint file:  "JID_8946.chk"
 -------------------------------
 CID_114237733_JID_8946_neutraal
 -------------------------------
 Charge =  0 Multiplicity = 1

 SCF Done:  E(RB3LYP) =  -1485.99098552     A.U. after    1 cycles

  Exact polarizability: 222.769 -13.794 175.110 -15.311  -0.234 151.754
 Approx polarizability: 303.921 -24.974 276.620 -33.839  -3.048 232.641

                      1                      2                      3
                      A                      A                      A
 Frequencies --     17.4725                40.3028                67.8432
 Red. masses --      5.6008                 5.0775                 3.7793
 Frc consts  --      0.0010                 0.0049                 0.0102
 IR Inten    --      0.2705                 1.0354                 2.3106

                      4                      5                      6
                      A                      A                      A
 Frequencies --     73.5745                87.9731               101.1728
 Red. masses --      3.9684                 3.5001                 4.4916
 Frc consts  --      0.0127                 0.0160                 0.0271
 IR Inten    --      0.1608                 1.4666                 1.0466

                      7                      8                      9
                      A                      A                      A
 Frequencies --    137.7828               162.6497               188.9650
 Red. masses --      3.3027                 3.4191                 3.6085
 Frc consts  --      0.0369                 0.0533                 0.0759
 IR Inten    --      1.1040                 0.1807                 0.1885

                     10                     11                     12
                      A                      A                      A
 Frequencies --    199.0923               199.7945               221.9770
 Red. masses --      2.7269                 3.4164                 3.2051
 Frc consts  --      0.0637                 0.0803                 0.0930
 IR Inten    --      3.0462                 0.5949                 1.7885

                     13                     14                     15
                      A                      A                      A
 Frequencies --    230.1876               233.0854               242.8885
 Red. masses --      1.3918                 2.3139                 1.1178
 Frc consts  --      0.0434                 0.0741                 0.0389
 IR Inten    --      0.6437                 0.9219                 0.2079

                     16                     17                     18
                      A                      A                      A
 Frequencies --    251.0458               288.1903               308.1097
 Red. masses --      1.1846                 3.6370                 2.7932
 Frc consts  --      0.0440                 0.1780                 0.1562
 IR Inten    --      1.8072                 3.1354                 1.0717

                     19                     20                     21
                      A                      A                      A
 Frequencies --    326.4640               340.9800               376.9801
 Red. masses --      2.6950                 2.3944                 3.5617
 Frc consts  --      0.1692                 0.1640                 0.2982
 IR Inten    --      1.7377                 0.6591                 8.3701

                     22                     23                     24
                      A                      A                      A
 Frequencies --    390.8899               416.5524               441.4642
 Red. masses --      3.2248                 2.3915                 3.0157
 Frc consts  --      0.2903                 0.2445                 0.3463
 IR Inten    --      2.5152                 1.0513                 0.7678

                     25                     26                     27
                      A                      A                      A
 Frequencies --    456.9461               459.3736               517.5236
 Red. masses --      3.6557                 3.5775                 1.3553
 Frc consts  --      0.4497                 0.4448                 0.2139
 IR Inten    --     10.0629                 3.7066                82.5900

                     28                     29                     30
                      A                      A                      A
 Frequencies --    540.3954               561.6912               614.9471
 Red. masses --      3.2706                 3.0441                 3.4398
 Frc consts  --      0.5627                 0.5659                 0.7664
 IR Inten    --      2.3426                 0.6182                10.0285

                     31                     32                     33
                      A                      A                      A
 Frequencies --    640.4440               674.5711               682.4049
 Red. masses --      4.9816                 4.3451                 3.4785
 Frc consts  --      1.2039                 1.1649                 0.9544
 IR Inten    --      7.3851                 8.2411                 6.8109

                     34                     35                     36
                      A                      A                      A
 Frequencies --    693.5709               720.7185               742.6488
 Red. masses --      2.9295                 4.8849                 7.0628
 Frc consts  --      0.8303                 1.4950                 2.2951
 IR Inten    --      5.6853                 1.8206                 3.2194

                     37                     38                     39
                      A                      A                      A
 Frequencies --    807.4724               837.4015               871.2141
 Red. masses --      3.1121                 1.7743                 2.4395
 Frc consts  --      1.1955                 0.7331                 1.0910
 IR Inten    --      5.5435                 4.5074                 2.4181

                     40                     41                     42
                      A                      A                      A
 Frequencies --    898.1686               906.4102               950.3726
 Red. masses --      2.8914                 2.7191                 1.6453
 Frc consts  --      1.3743                 1.3162                 0.8756
 IR Inten    --     21.7812                10.1446                 4.9809

                     43                     44                     45
                      A                      A                      A
 Frequencies --    955.2527               968.8251               970.6661
 Red. masses --      1.3518                 1.7618                 1.6231
 Frc consts  --      0.7268                 0.9743                 0.9010
 IR Inten    --      8.2083                 3.1015                 4.4797

                     46                     47                     48
                      A                      A                      A
 Frequencies --    987.9793              1000.5823              1009.2684
 Red. masses --      1.1905                 3.2242                 1.4615
 Frc consts  --      0.6846                 1.9018                 0.8771
 IR Inten    --      0.5859                 5.8486                14.8805

                     49                     50                     51
                      A                      A                      A
 Frequencies --   1037.1644              1057.0854              1085.5568
 Red. masses --      1.7366                 2.2148                 2.1730
 Frc consts  --      1.1006                 1.4582                 1.5087
 IR Inten    --      5.8859                 6.9124                 5.3226

                     52                     53                     54
                      A                      A                      A
 Frequencies --   1108.2047              1113.6903              1156.7233
 Red. masses --      2.2201                 2.8909                 2.5961
 Frc consts  --      1.6064                 2.1125                 2.0466
 IR Inten    --     11.0223                55.9935                 0.5192

                     55                     56                     57
                      A                      A                      A
 Frequencies --   1172.3682              1180.5178              1184.8237
 Red. masses --      2.2803                 2.1491                 2.7774
 Frc consts  --      1.8466                 1.7647                 2.2972
 IR Inten    --      3.1286                37.1386                28.9846

                     58                     59                     60
                      A                      A                      A
 Frequencies --   1199.8139              1233.2665              1237.7973
 Red. masses --      3.3148                 2.1204                 1.2274
 Frc consts  --      2.8115                 1.9001                 1.1080
 IR Inten    --     51.2946                 1.5482                 0.4606

                     61                     62                     63
                      A                      A                      A
 Frequencies --   1258.5920              1262.2252              1276.2070
 Red. masses --      1.8356                 1.2943                 1.7509
 Frc consts  --      1.7132                 1.2149                 1.6802
 IR Inten    --     22.1312                 1.8501                60.2967

                     64                     65                     66
                      A                      A                      A
 Frequencies --   1315.1794              1321.2087              1338.9382
 Red. masses --      1.3666                 3.4088                 1.2665
 Frc consts  --      1.3927                 3.5059                 1.3377
 IR Inten    --     16.2106               107.6069                10.1320

                     67                     68                     69
                      A                      A                      A
 Frequencies --   1361.8700              1367.9474              1380.4511
 Red. masses --      1.3797                 1.3309                 1.3072
 Frc consts  --      1.5077                 1.4673                 1.4677
 IR Inten    --     20.8815                 7.2876                 5.6397

                     70                     71                     72
                      A                      A                      A
 Frequencies --   1397.3915              1398.3021              1417.6162
 Red. masses --      1.2280                 1.2263                 1.3893
 Frc consts  --      1.4128                 1.4127                 1.6450
 IR Inten    --      0.6368                 8.0111                 8.6844

                     73                     74                     75
                      A                      A                      A
 Frequencies --   1419.0806              1423.5040              1427.3559
 Red. masses --      1.4340                 1.3895                 1.2740
 Frc consts  --      1.7015                 1.6590                 1.5293
 IR Inten    --     97.6062                15.0948                13.1914

                     76                     77                     78
                      A                      A                      A
 Frequencies --   1431.9947              1444.4442              1450.2326
 Red. masses --      1.3776                 1.3092                 1.2772
 Frc consts  --      1.6644                 1.6093                 1.5826
 IR Inten    --     17.8488                 6.7203                 7.6790

                     79                     80                     81
                      A                      A                      A
 Frequencies --   1456.7165              1499.7283              1502.4866
 Red. masses --      4.3507                 1.0952                 1.0710
 Frc consts  --      5.4395                 1.4514                 1.4245
 IR Inten    --    263.2389                 9.1382                 6.7186

                     82                     83                     84
                      A                      A                      A
 Frequencies --   1509.6663              1511.0249              1513.1505
 Red. masses --      1.0415                 1.1019                 1.5350
 Frc consts  --      1.3985                 1.4823                 2.0708
 IR Inten    --      0.9725                 6.4117               146.5428

                     85                     86                     87
                      A                      A                      A
 Frequencies --   1516.1195              1526.2839              1529.2961
 Red. masses --      1.0775                 1.0928                 1.0500
 Frc consts  --      1.4592                 1.4999                 1.4468
 IR Inten    --     13.9923                10.1572                 0.8509

                     88                     89                     90
                      A                      A                      A
 Frequencies --   1530.4144              1533.2407              1548.6711
 Red. masses --      1.2537                 1.0768                 1.0988
 Frc consts  --      1.7301                 1.4915                 1.5527
 IR Inten    --     17.7840                14.0015                35.1092

                     91                     92                     93
                      A                      A                      A
 Frequencies --   1553.4463              1628.9375              3013.4247
 Red. masses --      1.1048                 7.8382                 1.0707
 Frc consts  --      1.5709                12.2539                 5.7282
 IR Inten    --     11.7115               197.7179                22.6500

                     94                     95                     96
                      A                      A                      A
 Frequencies --   3035.7166              3040.6700              3045.3915
 Red. masses --      1.0647                 1.0643                 1.0741
 Frc consts  --      5.7808                 5.7979                 5.8694
 IR Inten    --     17.1135                23.4038                37.5518

                     97                     98                     99
                      A                      A                      A
 Frequencies --   3055.8102              3060.4504              3063.3174
 Red. masses --      1.0823                 1.0367                 1.0685
 Frc consts  --      5.9545                 5.7211                 5.9076
 IR Inten    --     10.1584                24.9706                61.3913

                    100                    101                    102
                      A                      A                      A
 Frequencies --   3064.7948              3072.5584              3078.7035
 Red. masses --      1.0391                 1.0311                 1.0995
 Frc consts  --      5.7506                 5.7354                 6.1403
 IR Inten    --     29.8959                12.6394                29.6330

                    103                    104                    105
                      A                      A                      A
 Frequencies --   3083.2156              3089.7507              3119.1777
 Red. masses --      1.0927                 1.0984                 1.0989
 Frc consts  --      6.1199                 6.1779                 6.2990
 IR Inten    --     22.0248                31.7556                15.9024

                    106                    107                    108
                      A                      A                      A
 Frequencies --   3124.2693              3125.9917              3129.3179
 Red. masses --      1.0851                 1.1028                 1.1026
 Frc consts  --      6.2407                 6.3492                 6.3617
 IR Inten    --      7.8428                13.5508                41.8951

                    109                    110                    111
                      A                      A                      A
 Frequencies --   3149.4950              3159.0386              3166.7635
 Red. masses --      1.1043                 1.1012                 1.0888
 Frc consts  --      6.4537                 6.4749                 6.4334
 IR Inten    --     10.3003                 4.7580                 9.4398

                    112                    113                    114
                      A                      A                      A
 Frequencies --   3170.9234              3174.7174              3677.5624
 Red. masses --      1.0997                 1.1055                 1.0819
 Frc consts  --      6.5148                 6.5650                 8.6213
 IR Inten    --      7.1159                 1.1585                87.7196

 - Thermochemistry -
 -------------------
 Temperature   298.150 Kelvin.  Pressure   1.00000 Atm.
 Atom     1 has atomic number  6 and mass  12.00000

 Molecular mass:   286.12859 amu.
 Principal axes and moments of inertia in atomic units:
                           1         2         3
     Eigenvalues --  2936.939088662.454419071.92924
           X            0.99974   0.01843  -0.01306
           Y           -0.01902   0.99872  -0.04681
           Z            0.01218   0.04704   0.99882
 This molecule is an asymmetric top.
 Rotational symmetry number  1.
 Warning -- assumption of classical behavior for rotation
           may cause significant error
 Rotational temperatures (Kelvin)      0.02949     0.01000     0.00955
 Rotational constants (GHZ):           0.61450     0.20834     0.19894
 Zero-point vibrational energy     911160.2 (Joules/Mol)
                                  217.77250 (Kcal/Mol)
 Warning -- explicit consideration of  30 degrees of freedom as
           vibrations may cause significant error
 Vibrational temperatures:     25.14    57.99    97.61   105.86   126.57
          (Kelvin)            145.57   198.24   234.02   271.88   286.45
                              287.46   319.38   331.19   335.36   349.46
                              361.20   414.64   443.30   469.71   490.59
                              542.39   562.40   599.33   635.17   657.44
                              660.94   744.60   777.51   808.15   884.77
                              921.46   970.56   981.83   997.89  1036.95
                             1068.51  1161.77  1204.83  1253.48  1292.26
                             1304.12  1367.37  1374.40  1393.92  1396.57
                             1421.48  1439.61  1452.11  1492.25  1520.91
                             1561.87  1594.46  1602.35  1664.27  1686.78
                             1698.50  1704.70  1726.26  1774.40  1780.91
                             1810.83  1816.06  1836.18  1892.25  1900.92
                             1926.43  1959.43  1968.17  1986.16  2010.53
                             2011.84  2039.63  2041.74  2048.10  2053.65
                             2060.32  2078.23  2086.56  2095.89  2157.77
                             2161.74  2172.07  2174.03  2177.09  2181.36
                             2195.98  2200.32  2201.92  2205.99  2228.19
                             2235.06  2343.68  4335.65  4367.72  4374.85
                             4381.64  4396.63  4403.31  4407.43  4409.56
                             4420.73  4429.57  4436.06  4445.46  4487.80
                             4495.13  4497.60  4502.39  4531.42  4545.15
                             4556.27  4562.25  4567.71  5291.19

 Zero-point correction=                           0.347043 (Hartree/Particle)
 Thermal correction to Energy=                    0.366074
 Thermal correction to Enthalpy=                  0.367018
 Thermal correction to Gibbs Free Energy=         0.299246
 Sum of electronic and zero-point Energies=          -1485.643943
 Sum of electronic and thermal Energies=             -1485.624911
 Sum of electronic and thermal Enthalpies=           -1485.623967
 Sum of electronic and thermal Free Energies=        -1485.691740

                     E (Thermal)             CV                S
                      KCal/Mol        Cal/Mol-Kelvin    Cal/Mol-Kelvin
 Total                  229.715             72.320            142.639
 Electronic               0.000              0.000              0.000
 Translational            0.889              2.981             42.852
 Rotational               0.889              2.981             33.800
 Vibrational            227.938             66.358             65.988
 Vibration     1          0.593              1.986              6.902
 Vibration     2          0.594              1.981              5.244
 Vibration     3          0.598              1.970              4.215
 Vibration     4          0.599              1.966              4.055
 Vibration     5          0.601              1.958              3.705
 Vibration     6          0.604              1.948              3.432
 Vibration     7          0.614              1.916              2.834
 Vibration     8          0.623              1.888              2.519
 Vibration     9          0.633              1.855              2.238
 Vibration    10          0.637              1.841              2.141
 Vibration    11          0.638              1.840              2.135
 Vibration    12          0.648              1.808              1.943
 Vibration    13          0.652              1.795              1.877
 Vibration    14          0.654              1.790              1.855
 Vibration    15          0.659              1.775              1.782
 Vibration    16          0.663              1.761              1.723
 Vibration    17          0.685              1.696              1.485
 Vibration    18          0.698              1.658              1.372
 Vibration    19          0.710              1.623              1.278
 Vibration    20          0.720              1.594              1.208
 Vibration    21          0.748              1.519              1.051
 Vibration    22          0.759              1.490              0.997
 Vibration    23          0.780              1.434              0.904
 Vibration    24          0.801              1.380              0.822
 Vibration    25          0.815              1.346              0.775
 Vibration    26          0.817              1.340              0.768
 Vibration    27          0.873              1.211              0.616
 Vibration    28          0.895              1.161              0.564
 Vibration    29          0.917              1.114              0.520
 Vibration    30          0.974              1.000              0.425

 Optimization completed.
    -- Stationary point found.
 Normal termination of Gaussian 16 at Mon Dec 14 17:34:56 2020.

 ----------------------------------------------------------------------
 # B3LYP/6-311++G(d,p) empiricaldispersion=gd3bj scf=xqc pop=npa geom=c
 heck
 ----------------------------------------------------------------------

 ---------------------------------------
 CID_114237733_JID_8946_Energie_neutraal
 ---------------------------------------
 Structure from the checkpoint file:  "JID_8946.chk"
 Charge =  0 Multiplicity = 1

 SCF Done:  E(RB3LYP) =  -1486.22859772     A.U. after   15 cycles
 Normal termination of Gaussian 16 at Mon Dec 14 17:46:53 2020.

 ----------------------------------------------------------------------
 # B3LYP/6-311++G(d,p) empiricaldispersion=gd3bj scf=xqc pop=npa geom=c
 heck
 ----------------------------------------------------------------------

 -------------------------------------
 CID_114237733_JID_8946_Energie_kation
 -------------------------------------
 Structure from the checkpoint file:  "JID_8946.chk"
 Charge =  1 Multiplicity = 2

 SCF Done:  E(UB3LYP) =  -1485.96236236     A.U. after   27 cycles
 Normal termination of Gaussian 16 at Mon Dec 14 18:17:44 2020.
 Gaussian 16:  ES64L-G16RevA.03 25-Dec-2016

 ----------------------------------------------------------------------
 # B3LYP/6-311++G(d,p) empiricaldispersion=gd3bj scf=xqc pop=npa geom=c
 heck
 ----------------------------------------------------------------------

 ------------------------------------
 CID_114237733_JID_8946_Energie_anion
 ------------------------------------
 Structure from the checkpoint file:  "JID_8946.chk"
 Charge = -1 Multiplicity = 2

                         Standard orientation:
 ---------------------------------------------------------------------
 Center     Atomic      Atomic             Coordinates (Angstroms)
 Number     Number       Type             X           Y           Z
 ---------------------------------------------------------------------
      1          6           0        3.528310    1.898005    0.616268
      2          6           0        2.310246    1.511589   -0.226521
      3          6           0        2.543419    1.650764   -1.731613
      4          7           0        1.831477    0.153919    0.111478
      5          6           0        2.588814   -1.011091    0.117535
      6         16           0        4.120250   -1.333851   -0.481333
      7          7           0        1.765013   -1.890333    0.741548
      8          7           0        0.524147   -1.390971    1.055764
      9          6           0        0.592444   -0.137758    0.674953
     10          7           0       -0.411463    0.798707    0.808356
     11          6           0       -1.280161    0.647476    1.983021
     12          6           0       -2.404514   -0.393621    1.874713
     13          6           0       -3.644481    0.058147    1.092255
     14          6           0       -3.455973    0.608843   -0.331206
     15          6           0       -2.420542    1.743582   -0.441569
     16          6           0       -0.942463    1.366963   -0.454256
     17         16           0       -3.295382   -0.639727   -1.692616
     18          6           0       -2.296725   -2.017023   -1.025819
     19          1           0        4.393263    1.279510    0.371650
     20          1           0        3.307813    1.789054    1.683217
     21          1           0        3.775107    2.947077    0.421296
     22          1           0        1.485390    2.158491    0.075912
     23          1           0        3.345264    0.983746   -2.056371
     24          1           0        1.635342    1.404931   -2.291790
     25          1           0        2.825606    2.682716   -1.965728
     26          1           0        1.980776   -2.863844    0.893043
     27          1           0       -1.693146    1.633492    2.226109
     28          1           0       -0.619934    0.371575    2.809193
     29          1           0       -2.734227   -0.626195    2.896396
     30          1           0       -1.979040   -1.315228    1.476938
     31          1           0       -4.373414   -0.759866    1.059726
     32          1           0       -4.121066    0.866706    1.666738
     33          1           0       -4.418484    1.058688   -0.601718
     34          1           0       -2.593728    2.265869   -1.389380
     35          1           0       -2.619575    2.479206    0.349340
     36          1           0       -0.780517    0.649859   -1.267347
     37          1           0       -0.381890    2.273635   -0.712774
     38          1           0       -1.309721   -1.709021   -0.678246
     39          1           0       -2.821680   -2.540891   -0.223847
     40          1           0       -2.174498   -2.706767   -1.865738
 ---------------------------------------------------------------------

 SCF Done:  E(UB3LYP) =  -1486.22303742     A.U. after   30 cycles

 The electronic state is 2-A.
 Alpha  occ. eigenvalues --  -88.74516 -88.70646 -14.30996 -14.29739 -14.26109
 Alpha  occ. eigenvalues --  -14.24786 -10.20179 -10.19549 -10.14075 -10.11748
 Alpha  occ. eigenvalues --  -10.11393 -10.11179 -10.10317 -10.08401 -10.08061
 Alpha  occ. eigenvalues --  -10.07845 -10.07739 -10.07331  -7.83121  -7.79409
 Alpha  occ. eigenvalues --   -5.79534  -5.79136  -5.78480  -5.75872  -5.75176
 Alpha  occ. eigenvalues --   -5.74949  -1.00992  -0.87950  -0.85666  -0.76874
 Alpha  occ. eigenvalues --   -0.73461  -0.71349  -0.69275  -0.67180  -0.63939
 Alpha  occ. eigenvalues --   -0.62217  -0.61075  -0.59627  -0.57377  -0.54999
 Alpha  occ. eigenvalues --   -0.53702  -0.49863  -0.49381  -0.46213  -0.45419
 Alpha  occ. eigenvalues --   -0.42736  -0.40936  -0.39855  -0.39253  -0.38590
 Alpha  occ. eigenvalues --   -0.36980  -0.35670  -0.34914  -0.33791  -0.33514
 Alpha  occ. eigenvalues --   -0.33053  -0.32490  -0.31460  -0.31255  -0.30850
 Alpha  occ. eigenvalues --   -0.29971  -0.29593  -0.28631  -0.27863  -0.26991
 Alpha  occ. eigenvalues --   -0.26393  -0.25863  -0.24067  -0.23823  -0.23409
 Alpha  occ. eigenvalues --   -0.23004  -0.22961  -0.20479  -0.15316  -0.13410
 Alpha  occ. eigenvalues --   -0.13246  -0.11954   0.03693
 Alpha virt. eigenvalues --    0.06106   0.06351   0.06849   0.07337   0.07916
 Alpha virt. eigenvalues --    0.08268   0.08583   0.08881   0.09099   0.09653
 Alpha virt. eigenvalues --    0.10303   0.10582   0.10940   0.11032   0.11628

  Beta  occ. eigenvalues --  -88.74512 -88.70645 -14.30992 -14.29738 -14.26098
  Beta  occ. eigenvalues --  -14.24789 -10.20178 -10.19547 -10.14064 -10.11729
  Beta  occ. eigenvalues --  -10.11386 -10.11146 -10.10307 -10.08368 -10.08035
  Beta  occ. eigenvalues --  -10.07830 -10.07722 -10.07319  -7.83117  -7.79409
  Beta  occ. eigenvalues --   -5.79529  -5.79134  -5.78478  -5.75872  -5.75175
  Beta  occ. eigenvalues --   -5.74949  -1.00983  -0.87939  -0.85654  -0.76857
  Beta  occ. eigenvalues --   -0.73426  -0.71326  -0.69233  -0.67156  -0.63930
  Beta  occ. eigenvalues --   -0.62181  -0.61042  -0.59578  -0.57360  -0.54963
  Beta  occ. eigenvalues --   -0.53666  -0.49838  -0.49342  -0.46181  -0.45375
  Beta  occ. eigenvalues --   -0.42699  -0.40908  -0.39833  -0.39216  -0.38554
  Beta  occ. eigenvalues --   -0.36944  -0.35633  -0.34882  -0.33765  -0.33498
  Beta  occ. eigenvalues --   -0.33015  -0.32449  -0.31436  -0.31222  -0.30828
  Beta  occ. eigenvalues --   -0.29941  -0.29574  -0.28591  -0.27841  -0.26961
  Beta  occ. eigenvalues --   -0.26362  -0.25825  -0.24027  -0.23797  -0.23367
  Beta  occ. eigenvalues --   -0.22976  -0.22936  -0.20457  -0.15304  -0.13399
  Beta  occ. eigenvalues --   -0.13242  -0.11940
  Beta virt. eigenvalues --    0.05901   0.06639   0.06900   0.07008   0.07681
  Beta virt. eigenvalues --    0.08180   0.08702   0.08856   0.09240   0.09476
  Beta virt. eigenvalues --    0.09863   0.10558   0.10821   0.11095   0.11226

 Mulliken charges and spin densities:
               1          2
     1  C    0.180592  -0.686353
     2  C   -0.778229   0.605344
     3  C    0.147725  -0.599320
     4  N    0.229500  -0.006058
     5  C    0.375607  -0.251308
     6  S   -0.804470  -0.107431
     7  N   -0.076023   0.078036
     8  N   -0.003219  -0.062789
     9  C   -0.313030  -0.447795
    10  N    0.171312   0.188606
    11  C    1.206786  -1.140928
    12  C   -1.290866   1.198118
    13  C    1.341406  -2.274532
    14  C   -0.049477   0.691357
    15  C    0.859523  -1.536578
    16  C   -0.454722   0.238771
    17  S   -0.102398   0.038252
    18  C   -0.391585  -0.254160
    19  H    0.133608   0.011019
    20  H   -0.011474   0.174187
    21  H   -0.099382   0.246514
    22  H   -0.133728   0.334521
    23  H    0.155588   0.014763
    24  H    0.023917   0.111508
    25  H   -0.105693   0.259121
    26  H    0.322447   0.039665
    27  H   -0.469366   0.689927
    28  H   -0.128647   0.305711
    29  H   -0.253510   0.437050
    30  H    0.117611   0.035199
    31  H   -0.044881   0.217532
    32  H   -0.295962   0.476048
    33  H   -0.203235   0.509651
    34  H   -0.284781   0.469347
    35  H   -0.265046   0.443109
    36  H    0.310104  -0.144096
    37  H   -0.307370   0.506830
    38  H    0.027556   0.076454
    39  H    0.097746   0.101645
    40  H    0.166065   0.013063
 Sum of Mulliken charges =  -1.00000   1.00000

 Dipole moment (field-independent basis, Debye):
    X=              3.0226    Y=             -5.5823    Z=             -1.4085  Tot=              6.5025
 Quadrupole moment (field-independent basis, Debye-Ang):
   XX=           -220.0342   YY=           -174.2327   ZZ=           -170.4961
   XY=             13.5229   XZ=              7.7916   YZ=             -5.5729

 Summary of Natural Population Analysis:

                                       Natural Population
                Natural  -----------------------------------------------
    Atom  No    Charge         Core      Valence    Rydberg      Total
 -----------------------------------------------------------------------
      C    1   -0.29241      0.99964     2.28679    0.00598     3.29241
      C    2   -0.00839      0.99959     1.99627    0.01253     3.00839
      C    3   -0.29181      0.99963     2.28635    0.00583     3.29181
      N    4   -0.23410      0.99957     2.72145    0.01308     3.73410
      C    5    0.12387      0.99962     1.85587    0.02064     2.87613
      S    6   -0.15079      4.99960     3.13770    0.01349     8.15079
      N    7   -0.19742      0.99963     2.68366    0.01412     3.69742
      N    8   -0.17030      0.99967     2.66211    0.00852     3.67030
      C    9    0.30403      0.99957     1.67933    0.01707     2.69597
      N   10   -0.27887      0.99965     2.76478    0.01443     3.77887
      C   11   -0.08162      0.99960     2.06953    0.01249     3.08162
      C   12   -0.20448      0.99960     2.19588    0.00900     3.20448
      C   13   -0.19483      0.99958     2.18504    0.01020     3.19483
      C   14   -0.16452      0.99953     2.14961    0.01538     3.16452
      C   15   -0.20297      0.99958     2.19211    0.01128     3.20297
      C   16   -0.08372      0.99957     2.07198    0.01218     3.08372
      S   17    0.08116      4.99961     2.90258    0.01664     7.91884
      C   18   -0.35377      0.99960     2.34852    0.00565     3.35377
      H   19    0.11183      0.00000     0.38714    0.00103     0.38817
      H   20    0.10274      0.00000     0.39640    0.00086     0.39726
      H   21    0.10295      0.00000     0.39631    0.00073     0.39705
      H   22    0.10953      0.00000     0.38745    0.00302     0.39047
      H   23    0.11097      0.00000     0.38813    0.00090     0.38903
      H   24    0.10204      0.00000     0.39701    0.00094     0.39796
      H   25    0.10260      0.00000     0.39664    0.00076     0.39740
      H   26    0.20382      0.00000     0.29418    0.00200     0.29618
      H   27    0.10137      0.00000     0.39655    0.00208     0.39863
      H   28    0.10476      0.00000     0.39381    0.00143     0.39524
      H   29    0.10170      0.00000     0.39717    0.00112     0.39830
      H   30    0.10467      0.00000     0.39250    0.00283     0.39533
      H   31    0.10337      0.00000     0.39556    0.00107     0.39663
      H   32    0.10444      0.00000     0.39330    0.00226     0.39556
      H   33    0.11040      0.00000     0.38787    0.00173     0.38960
      H   34    0.11046      0.00000     0.38786    0.00167     0.38954
      H   35    0.10788      0.00000     0.38919    0.00293     0.39212
      H   36    0.09666      0.00000     0.40155    0.00180     0.40334
      H   37    0.09704      0.00000     0.40073    0.00223     0.40296
      H   38    0.10665      0.00000     0.39155    0.00180     0.39335
      H   39    0.09993      0.00000     0.39878    0.00129     0.40007
      H   40    0.10526      0.00000     0.39380    0.00094     0.39474
 =======================================================================
   * Total *    0.00016     25.99286    50.75302    0.25396    76.99984

 Normal termination of Gaussian 16 at Mon Dec 14 18:50:05 2020.
