 Gaussian 16, Revision A.03,

 -----------------------------------------------------------
 # opt freq B3LYP/6-31G(d) empiricaldispersion=gd3bj scf=xqc
 -----------------------------------------------------------

 -------------------------------
 CID_47257309_JID_10736_neutraal
 -------------------------------
 Symbolic Z-matrix:
 Charge =  0 Multiplicity = 1

 SCF Done:  E(RB3LYP) =  -991.917785856     A.U. after   15 cycles
 SCF Done:  E(RB3LYP) =  -990.566787151     A.U. after   20 cycles
 SCF Done:  E(RB3LYP) =  -991.922837698     A.U. after   14 cycles
 SCF Done:  E(RB3LYP) =  -991.925138364     A.U. after   12 cycles
 SCF Done:  E(RB3LYP) =  -991.925257361     A.U. after   13 cycles
 SCF Done:  E(RB3LYP) =  -991.925882931     A.U. after   10 cycles
 SCF Done:  E(RB3LYP) =  -991.926047438     A.U. after   12 cycles
 SCF Done:  E(RB3LYP) =  -991.926100769     A.U. after   12 cycles
 SCF Done:  E(RB3LYP) =  -991.926382369     A.U. after   12 cycles
 SCF Done:  E(RB3LYP) =  -991.926449264     A.U. after   12 cycles
 SCF Done:  E(RB3LYP) =  -991.926512876     A.U. after    8 cycles
 SCF Done:  E(RB3LYP) =  -991.926513042     A.U. after    8 cycles
 SCF Done:  E(RB3LYP) =  -991.926513148     A.U. after    8 cycles
 SCF Done:  E(RB3LYP) =  -991.926513167     A.U. after    7 cycles
 Optimization completed.
    -- Stationary point found.
 Normal termination of Gaussian 16 at Sat Dec 12 16:48:34 2020.

 --------------------------------------------------------------------
 #N Geom=AllCheck Guess=TCheck SCRF=Check GenChk RB3LYP/6-31G(d) Freq
 --------------------------------------------------------------------

 Structure from the checkpoint file:  "JID_10736.chk"
 -------------------------------
 CID_47257309_JID_10736_neutraal
 -------------------------------
 Charge =  0 Multiplicity = 1

 SCF Done:  E(RB3LYP) =  -991.926513167     A.U. after    1 cycles

  Exact polarizability: 177.275  20.558 130.999   2.621  -5.830 154.476
 Approx polarizability: 244.530  29.764 178.380  21.360 -13.613 280.146

                      1                      2                      3
                      A                      A                      A
 Frequencies --     17.7672                34.7928                42.6298
 Red. masses --      4.5973                 6.2109                 6.0147
 Frc consts  --      0.0009                 0.0044                 0.0064
 IR Inten    --      0.3805                 1.1667                 3.2050

                      4                      5                      6
                      A                      A                      A
 Frequencies --     53.8218                53.9124                66.4745
 Red. masses --      7.4692                 8.0220                 4.2595
 Frc consts  --      0.0127                 0.0137                 0.0111
 IR Inten    --      3.5215                 0.9794                 0.7454

                      7                      8                      9
                      A                      A                      A
 Frequencies --     85.0426                95.3694               105.6240
 Red. masses --      4.5875                 4.0171                 4.2178
 Frc consts  --      0.0195                 0.0215                 0.0277
 IR Inten    --      0.2634                 3.6097                 1.4742

                     10                     11                     12
                      A                      A                      A
 Frequencies --    115.8070               133.3357               166.5902
 Red. masses --      3.6504                 5.6073                 4.6777
 Frc consts  --      0.0288                 0.0587                 0.0765
 IR Inten    --      3.1627                 0.4562                 4.7737

                     13                     14                     15
                      A                      A                      A
 Frequencies --    188.7412               194.3324               205.3285
 Red. masses --      3.0635                 4.7054                 1.7664
 Frc consts  --      0.0643                 0.1047                 0.0439
 IR Inten    --     10.5863                 0.8269                 0.6026

                     16                     17                     18
                      A                      A                      A
 Frequencies --    244.0208               255.0440               306.3972
 Red. masses --      4.1917                 1.8131                 2.3287
 Frc consts  --      0.1471                 0.0695                 0.1288
 IR Inten    --      4.8381                 1.2841                 3.2431

                     19                     20                     21
                      A                      A                      A
 Frequencies --    326.7968               341.4901               418.1230
 Red. masses --      2.5006                 2.8587                 3.4458
 Frc consts  --      0.1573                 0.1964                 0.3549
 IR Inten    --      0.2769                11.0107                 2.6175

                     22                     23                     24
                      A                      A                      A
 Frequencies --    420.9528               432.2760               438.0935
 Red. masses --      7.6933                 2.3357                 5.9550
 Frc consts  --      0.8032                 0.2572                 0.6734
 IR Inten    --      7.8554                 1.5963                 8.8542

                     25                     26                     27
                      A                      A                      A
 Frequencies --    494.0705               517.9871               563.2836
 Red. masses --      2.9804                 1.3731                 2.7542
 Frc consts  --      0.4286                 0.2171                 0.5149
 IR Inten    --      2.1460                63.7963                14.7000

                     28                     29                     30
                      A                      A                      A
 Frequencies --    592.1295               603.6496               608.9387
 Red. masses --      3.1309                 4.8205                 3.2228
 Frc consts  --      0.6468                 1.0349                 0.7041
 IR Inten    --     38.0654                 2.7478                 1.0946

                     31                     32                     33
                      A                      A                      A
 Frequencies --    633.3365               645.0778               658.4466
 Red. masses --      4.2999                 2.7283                 3.5023
 Frc consts  --      1.0162                 0.6689                 0.8946
 IR Inten    --     40.1542                 8.2187                 4.4622

                     34                     35                     36
                      A                      A                      A
 Frequencies --    678.0149               746.5851               755.7743
 Red. masses --      2.9910                 2.7127                 2.0722
 Frc consts  --      0.8101                 0.8909                 0.6974
 IR Inten    --     78.0489                 2.7852               115.7079

                     37                     38                     39
                      A                      A                      A
 Frequencies --    760.1285               778.5729               805.5416
 Red. masses --      1.7432                 2.2010                 1.3644
 Frc consts  --      0.5934                 0.7861                 0.5216
 IR Inten    --     55.6393                 1.8924                 5.7487

                     40                     41                     42
                      A                      A                      A
 Frequencies --    841.6220               861.1588               874.5811
 Red. masses --      1.3003                 2.1422                 2.6578
 Frc consts  --      0.5427                 0.9360                 1.1978
 IR Inten    --      8.0697                 5.3181                 2.7542

                     43                     44                     45
                      A                      A                      A
 Frequencies --    899.7831               904.5274               912.7993
 Red. masses --      1.3560                 3.0193                 4.5067
 Frc consts  --      0.6468                 1.4554                 2.2124
 IR Inten    --      1.8531                 0.4479                 8.2632

                     46                     47                     48
                      A                      A                      A
 Frequencies --    928.1718               939.0921               982.7593
 Red. masses --      2.6484                 3.9677                 2.0416
 Frc consts  --      1.3443                 2.0616                 1.1618
 IR Inten    --     10.9373                25.2627                18.0611

                     49                     50                     51
                      A                      A                      A
 Frequencies --   1001.9413              1039.8020              1057.6923
 Red. masses --      1.9925                 1.3184                 4.2276
 Frc consts  --      1.1785                 0.8398                 2.7865
 IR Inten    --      9.9727                28.9950                58.6396

                     52                     53                     54
                      A                      A                      A
 Frequencies --   1071.8180              1096.6802              1115.9488
 Red. masses --      1.7594                 2.5129                 2.4364
 Frc consts  --      1.1909                 1.7807                 1.7877
 IR Inten    --      1.4471                 8.7149                 2.9089

                     55                     56                     57
                      A                      A                      A
 Frequencies --   1128.1795              1133.2435              1162.6379
 Red. masses --      2.3252                 2.1001                 3.1433
 Frc consts  --      1.7437                 1.5890                 2.5034
 IR Inten    --     13.7545                22.3455                 8.5994

                     58                     59                     60
                      A                      A                      A
 Frequencies --   1178.7006              1209.9170              1214.9303
 Red. masses --      2.1437                 1.7255                 1.6281
 Frc consts  --      1.7548                 1.4882                 1.4159
 IR Inten    --      2.9031                 4.5216                44.1944

                     61                     62                     63
                      A                      A                      A
 Frequencies --   1224.1860              1251.3343              1257.1596
 Red. masses --      2.8509                 1.3457                 1.7046
 Frc consts  --      2.5172                 1.2415                 1.5872
 IR Inten    --      2.7247                 4.3426                 3.4824

                     64                     65                     66
                      A                      A                      A
 Frequencies --   1265.3097              1275.8319              1321.1666
 Red. masses --      1.3965                 3.1995                 1.2010
 Frc consts  --      1.3173                 3.0684                 1.2352
 IR Inten    --     73.0934               230.3648                16.1387

                     67                     68                     69
                      A                      A                      A
 Frequencies --   1336.0583              1345.5266              1374.2545
 Red. masses --      1.5842                 1.1343                 1.2929
 Frc consts  --      1.6662                 1.2100                 1.4386
 IR Inten    --     41.6439                14.1435                14.7747

                     70                     71                     72
                      A                      A                      A
 Frequencies --   1388.1211              1402.4024              1410.0107
 Red. masses --      1.7572                 1.5433                 2.5672
 Frc consts  --      1.9950                 1.7883                 3.0072
 IR Inten    --    162.8080                44.4082               149.9107

                     73                     74                     75
                      A                      A                      A
 Frequencies --   1421.5358              1432.4016              1434.5794
 Red. masses --      1.2717                 1.8737                 2.4874
 Frc consts  --      1.5141                 2.2650                 3.0161
 IR Inten    --      4.2427                54.7581                15.8521

                     76                     77                     78
                      A                      A                      A
 Frequencies --   1445.2066              1484.8421              1488.3617
 Red. masses --      1.3252                 1.3459                 1.2780
 Frc consts  --      1.6307                 1.7484                 1.6679
 IR Inten    --     15.4435                30.8809                31.5276

                     79                     80                     81
                      A                      A                      A
 Frequencies --   1507.5898              1514.3961              1516.7979
 Red. masses --      1.5200                 1.1047                 1.0477
 Frc consts  --      2.0354                 1.4927                 1.4201
 IR Inten    --     24.2250                 8.4966                11.6897

                     82                     83                     84
                      A                      A                      A
 Frequencies --   1521.8328              1526.7476              1528.8175
 Red. masses --      1.0837                 1.2168                 4.0580
 Frc consts  --      1.4788                 1.6712                 5.5883
 IR Inten    --      5.9966                44.0244                59.2967

                     85                     86                     87
                      A                      A                      A
 Frequencies --   1536.9551              1552.4072              1635.9123
 Red. masses --      1.0594                 1.0981                 6.2271
 Frc consts  --      1.4745                 1.5592                 9.8187
 IR Inten    --      4.8510                 5.6953                45.0620

                     88                     89                     90
                      A                      A                      A
 Frequencies --   1754.9899              1787.9703              1831.3448
 Red. masses --      7.9890                 7.6564                11.5493
 Frc consts  --     14.4974                14.4210                22.8216
 IR Inten    --    247.9306               320.3934               187.3332

                     91                     92                     93
                      A                      A                      A
 Frequencies --   3050.7986              3061.3184              3061.6306
 Red. masses --      1.0687                 1.0364                 1.0633
 Frc consts  --      5.8602                 5.7228                 5.8722
 IR Inten    --     24.2454                18.6878                28.5913

                     94                     95                     96
                      A                      A                      A
 Frequencies --   3077.7456              3082.6860              3110.8627
 Red. masses --      1.0698                 1.0639                 1.0980
 Frc consts  --      5.9705                 5.9565                 6.2604
 IR Inten    --     15.6016                15.0223                 8.7034

                     97                     98                     99
                      A                      A                      A
 Frequencies --   3116.2810              3117.0278              3128.8544
 Red. masses --      1.0663                 1.1011                 1.0995
 Frc consts  --      6.1007                 6.3032                 6.3418
 IR Inten    --      6.0717                13.8914                31.7413

                    100                    101                    102
                      A                      A                      A
 Frequencies --   3129.9005              3144.5043              3165.4798
 Red. masses --      1.0965                 1.1001                 1.0907
 Frc consts  --      6.3291                 6.4087                 6.4393
 IR Inten    --     25.8934                12.5783                 4.3231

                    103                    104                    105
                      A                      A                      A
 Frequencies --   3181.6963              3272.2069              3297.8362
 Red. masses --      1.1096                 1.0909                 1.0980
 Frc consts  --      6.6183                 6.8819                 7.0359
 IR Inten    --     10.1269                 1.8696                 0.5661

                    106                    107                    108
                      A                      A                      A
 Frequencies --   3302.9454              3570.5329              3591.1169
 Red. masses --      1.1050                 1.0747                 1.0754
 Frc consts  --      7.1024                 8.0723                 8.1709
 IR Inten    --      1.1137                17.7758                25.8781

 - Thermochemistry -
 -------------------
 Temperature   298.150 Kelvin.  Pressure   1.00000 Atm.
 Atom     1 has atomic number  6 and mass  12.00000

 Molecular mass:   282.12157 amu.
 Principal axes and moments of inertia in atomic units:
                           1         2         3
     Eigenvalues --  4002.030496330.256657728.77489
           X            0.99859   0.05089  -0.01485
           Y           -0.05092   0.99870  -0.00144
           Z            0.01476   0.00219   0.99989
 This molecule is an asymmetric top.
 Rotational symmetry number  1.
 Warning -- assumption of classical behavior for rotation
           may cause significant error
 Rotational temperatures (Kelvin)      0.02164     0.01368     0.01121
 Rotational constants (GHZ):           0.45096     0.28510     0.23351
 Zero-point vibrational energy     821701.5 (Joules/Mol)
                                  196.39137 (Kcal/Mol)
 Warning -- explicit consideration of  30 degrees of freedom as
           vibrations may cause significant error
 Vibrational temperatures:     25.56    50.06    61.33    77.44    77.57
          (Kelvin)             95.64   122.36   137.22   151.97   166.62
                              191.84   239.69   271.56   279.60   295.42
                              351.09   366.95   440.84   470.19   491.33
                              601.59   605.66   621.95   630.32   710.86
                              745.27   810.44   851.94   868.52   876.13
                              911.23   928.12   947.36   975.51  1074.17
                             1087.39  1093.66  1120.19  1158.99  1210.91
                             1239.02  1258.33  1294.59  1301.41  1313.31
                             1335.43  1351.14  1413.97  1441.57  1496.04
                             1521.78  1542.11  1577.88  1605.60  1623.20
                             1630.48  1672.78  1695.89  1740.80  1748.01
                             1761.33  1800.39  1808.77  1820.50  1835.64
                             1900.86  1922.29  1935.91  1977.25  1997.20
                             2017.74  2028.69  2045.27  2060.91  2064.04
                             2079.33  2136.36  2141.42  2169.09  2178.88
                             2182.33  2189.58  2196.65  2199.63  2211.34
                             2233.57  2353.71  2525.04  2572.49  2634.90
                             4389.42  4404.55  4405.00  4428.19  4435.30
                             4475.84  4483.63  4484.71  4501.72  4503.23
                             4524.24  4554.42  4577.75  4707.98  4744.85
                             4752.20  5137.20  5166.82

 Zero-point correction=                           0.312970 (Hartree/Particle)
 Thermal correction to Energy=                    0.333129
 Thermal correction to Enthalpy=                  0.334073
 Thermal correction to Gibbs Free Energy=         0.261686
 Sum of electronic and zero-point Energies=           -991.613544
 Sum of electronic and thermal Energies=              -991.593385
 Sum of electronic and thermal Enthalpies=            -991.592440
 Sum of electronic and thermal Free Energies=         -991.664827

                     E (Thermal)             CV                S
                      KCal/Mol        Cal/Mol-Kelvin    Cal/Mol-Kelvin
 Total                  209.041             73.475            152.351
 Electronic               0.000              0.000              0.000
 Translational            0.889              2.981             42.810
 Rotational               0.889              2.981             33.637
 Vibrational            207.264             67.513             75.904
 Vibration     1          0.593              1.986              6.869
 Vibration     2          0.594              1.983              5.535
 Vibration     3          0.595              1.980              5.133
 Vibration     4          0.596              1.976              4.672
 Vibration     5          0.596              1.976              4.668
 Vibration     6          0.598              1.970              4.255
 Vibration     7          0.601              1.960              3.771
 Vibration     8          0.603              1.952              3.547
 Vibration     9          0.605              1.945              3.348
 Vibration    10          0.608              1.936              3.169
 Vibration    11          0.613              1.920              2.897
 Vibration    12          0.624              1.884              2.474
 Vibration    13          0.633              1.855              2.240
 Vibration    14          0.635              1.848              2.186
 Vibration    15          0.640              1.832              2.085
 Vibration    16          0.659              1.773              1.773
 Vibration    17          0.665              1.754              1.695
 Vibration    18          0.697              1.662              1.382
 Vibration    19          0.710              1.622              1.276
 Vibration    20          0.721              1.593              1.205
 Vibration    21          0.781              1.431              0.898
 Vibration    22          0.783              1.425              0.889
 Vibration    23          0.793              1.400              0.851
 Vibration    24          0.798              1.387              0.833
 Vibration    25          0.850              1.263              0.673
 Vibration    26          0.873              1.210              0.615
 Vibration    27          0.919              1.111              0.517
 Vibration    28          0.950              1.049              0.463
 Vibration    29          0.962              1.024              0.443
 Vibration    30          0.968              1.013              0.435

 Optimization completed.
    -- Stationary point found.
 Normal termination of Gaussian 16 at Sat Dec 12 17:11:09 2020.

 ----------------------------------------------------------------------
 # B3LYP/6-311++G(d,p) empiricaldispersion=gd3bj scf=xqc pop=npa geom=c
 heck
 ----------------------------------------------------------------------

 ---------------------------------------
 CID_47257309_JID_10736_Energie_neutraal
 ---------------------------------------
 Structure from the checkpoint file:  "JID_10736.chk"
 Charge =  0 Multiplicity = 1

 SCF Done:  E(RB3LYP) =  -992.219700953     A.U. after   16 cycles
 Normal termination of Gaussian 16 at Sat Dec 12 17:21:13 2020.

 ----------------------------------------------------------------------
 # B3LYP/6-311++G(d,p) empiricaldispersion=gd3bj scf=xqc pop=npa geom=c
 heck
 ----------------------------------------------------------------------

 -------------------------------------
 CID_47257309_JID_10736_Energie_kation
 -------------------------------------
 Structure from the checkpoint file:  "JID_10736.chk"
 Charge =  1 Multiplicity = 2

 SCF Done:  E(UB3LYP) =  -991.906686136     A.U. after   33 cycles
 SCF Done:  E(UB3LYP) =  -991.906686136     a.u. after    2 cycles
 Normal termination of Gaussian 16 at Sat Dec 12 18:30:27 2020.
 Gaussian 16:  ES64L-G16RevA.03 25-Dec-2016

 ----------------------------------------------------------------------
 # B3LYP/6-311++G(d,p) empiricaldispersion=gd3bj scf=xqc pop=npa geom=c
 heck
 ----------------------------------------------------------------------

 ------------------------------------
 CID_47257309_JID_10736_Energie_anion
 ------------------------------------
 Structure from the checkpoint file:  "JID_10736.chk"
 Charge = -1 Multiplicity = 2

                         Standard orientation:
 ---------------------------------------------------------------------
 Center     Atomic      Atomic             Coordinates (Angstroms)
 Number     Number       Type             X           Y           Z
 ---------------------------------------------------------------------
      1          6           0        1.199225    3.639886   -0.559991
      2          6           0        1.074446    2.131309   -0.680529
      3          8           0       -0.239117    1.688341   -0.247711
      4          6           0       -0.395597    1.503974    1.076192
      5          8           0        0.473931    1.639223    1.906297
      6          6           0       -1.828034    1.111949    1.440538
      7          7           0       -2.785835    1.166689    0.357181
      8          6           0       -3.194079    0.143127   -0.466976
      9          8           0       -3.652257    0.381813   -1.577046
     10          6           0       -3.136045   -1.290830    0.045296
     11          6           0       -2.250579   -2.160206   -0.861914
     12          6           0       -0.770504   -1.775095   -0.847351
     13          7           0       -0.235671   -1.912827    0.508033
     14          6           0        1.017677   -1.674260    1.009247
     15          8           0        1.286897   -1.918623    2.183504
     16          6           0        2.067688   -1.114729    0.137456
     17          6           0        3.326337   -0.707506    0.486939
     18          6           0        3.973104   -0.295235   -0.717281
     19          6           0        3.066099   -0.485100   -1.719537
     20          8           0        1.900818   -0.980074   -1.221518
     21          1           0        0.408706    4.144616   -1.124809
     22          1           0        2.167491    3.963382   -0.958002
     23          1           0        1.141109    3.946735    0.488007
     24          1           0        1.138591    1.797522   -1.716842
     25          1           0        1.828766    1.617670   -0.084146
     26          1           0       -1.779138    0.108036    1.863030
     27          1           0       -2.134755    1.777017    2.255676
     28          1           0       -2.831442    2.055286   -0.130504
     29          1           0       -2.825172   -1.359837    1.090561
     30          1           0       -4.164080   -1.665221   -0.003750
     31          1           0       -2.357071   -3.213842   -0.572677
     32          1           0       -2.619313   -2.065871   -1.887646
     33          1           0       -0.222126   -2.412712   -1.550025
     34          1           0       -0.648468   -0.741252   -1.183373
     35          1           0       -0.799298   -2.423247    1.177046
     36          1           0        3.718464   -0.710931    1.492517
     37          1           0        4.978437    0.086393   -0.824904
     38          1           0        3.089230   -0.329910   -2.787396
 ---------------------------------------------------------------------

 SCF Done:  E(UB3LYP) =  -992.216926401     A.U. after   33 cycles
 SCF Done:  E(UB3LYP) =  -992.216926401     a.u. after    1 cycles

 The electronic state is 2-A.
 Alpha  occ. eigenvalues --  -19.07209 -19.06595 -19.01306 -18.99808 -18.94999
 Alpha  occ. eigenvalues --  -14.24972 -14.21444 -10.20524 -10.18390 -10.13938
 Alpha  occ. eigenvalues --  -10.13377 -10.12386 -10.10410 -10.10363 -10.09507
 Alpha  occ. eigenvalues --  -10.09311 -10.08758 -10.07067 -10.06070 -10.04767
 Alpha  occ. eigenvalues --   -1.01130  -0.99507  -0.95011  -0.92495  -0.90588
 Alpha  occ. eigenvalues --   -0.83773  -0.80493  -0.70342  -0.68562  -0.68214
 Alpha  occ. eigenvalues --   -0.64339  -0.63956  -0.61474  -0.56015  -0.53344
 Alpha  occ. eigenvalues --   -0.51545  -0.48376  -0.47936  -0.46344  -0.44421
 Alpha  occ. eigenvalues --   -0.44016  -0.42446  -0.40720  -0.40416  -0.38264
 Alpha  occ. eigenvalues --   -0.37584  -0.37207  -0.36624  -0.35752  -0.35008
 Alpha  occ. eigenvalues --   -0.34336  -0.33311  -0.33189  -0.31669  -0.30999
 Alpha  occ. eigenvalues --   -0.30473  -0.29660  -0.29041  -0.28416  -0.28080
 Alpha  occ. eigenvalues --   -0.27800  -0.27618  -0.26910  -0.26259  -0.25686
 Alpha  occ. eigenvalues --   -0.24589  -0.24446  -0.21042  -0.20453  -0.17237
 Alpha  occ. eigenvalues --   -0.16925  -0.16174  -0.13949  -0.13484  -0.12042
 Alpha  occ. eigenvalues --    0.04353
 Alpha virt. eigenvalues --    0.06057   0.06338   0.07108   0.08295   0.08626
 Alpha virt. eigenvalues --    0.08719   0.09174   0.09394   0.10176   0.10510
 Alpha virt. eigenvalues --    0.11214   0.11296   0.11743   0.12094   0.12571

  Beta  occ. eigenvalues --  -19.07206 -19.06381 -19.01290 -18.99791 -18.94813
  Beta  occ. eigenvalues --  -14.24967 -14.21386 -10.20499 -10.18374 -10.13774
  Beta  occ. eigenvalues --  -10.13370 -10.12375 -10.10364 -10.10227 -10.09396
  Beta  occ. eigenvalues --  -10.09304 -10.08747 -10.07042 -10.06126 -10.04637
  Beta  occ. eigenvalues --   -1.01104  -0.99154  -0.94980  -0.92469  -0.90253
  Beta  occ. eigenvalues --   -0.83753  -0.80335  -0.70295  -0.68363  -0.68172
  Beta  occ. eigenvalues --   -0.64254  -0.63629  -0.61425  -0.55972  -0.53281
  Beta  occ. eigenvalues --   -0.51126  -0.48254  -0.47894  -0.46305  -0.44173
  Beta  occ. eigenvalues --   -0.43997  -0.42358  -0.40674  -0.40341  -0.38187
  Beta  occ. eigenvalues --   -0.37511  -0.37131  -0.36575  -0.35534  -0.34877
  Beta  occ. eigenvalues --   -0.33742  -0.33246  -0.33046  -0.31596  -0.30838
  Beta  occ. eigenvalues --   -0.30428  -0.29552  -0.28897  -0.28312  -0.27863
  Beta  occ. eigenvalues --   -0.27749  -0.27337  -0.26826  -0.26116  -0.25277
  Beta  occ. eigenvalues --   -0.24542  -0.24295  -0.20988  -0.20424  -0.16931
  Beta  occ. eigenvalues --   -0.16516  -0.16133  -0.13421  -0.13168  -0.10900
  Beta virt. eigenvalues --    0.06303   0.06791   0.07408   0.08365   0.08603
  Beta virt. eigenvalues --    0.08843   0.08898   0.09306   0.09604   0.10274
  Beta virt. eigenvalues --    0.10743   0.11196   0.11397   0.11853   0.12135

 Mulliken charges and spin densities:
               1          2
     1  C    0.494132  -1.089401
     2  C   -0.518904   0.383715
     3  O    0.207622  -0.033404
     4  C   -0.642711   0.388686
     5  O   -0.108381  -0.020249
     6  C    0.086547  -0.439303
     7  N   -0.107702  -0.006356
     8  C   -0.131469  -0.198479
     9  O   -0.324733   0.030281
    10  C    0.285051  -0.245067
    11  C   -0.635549  -0.127696
    12  C    0.040885  -0.005139
    13  N   -0.295635   0.026651
    14  C   -0.329731  -0.160526
    15  O   -0.356327   0.072102
    16  C   -0.025928   0.102698
    17  C   -0.039516   0.320822
    18  C   -0.134009  -0.335559
    19  C    0.009898   0.259214
    20  O    0.017410   0.029989
    21  H   -0.071114   0.215971
    22  H   -0.111060   0.255188
    23  H   -0.027521   0.204716
    24  H   -0.137789   0.323213
    25  H    0.409627  -0.189336
    26  H    0.288006  -0.061667
    27  H   -0.132706   0.352683
    28  H    0.170991   0.143486
    29  H    0.024767   0.076495
    30  H   -0.034702   0.251727
    31  H   -0.040626   0.200176
    32  H    0.226152  -0.019387
    33  H    0.202499   0.008126
    34  H    0.210178   0.008445
    35  H    0.293183   0.038961
    36  H    0.177836   0.005312
    37  H    0.059477   0.085929
    38  H    0.001850   0.146983
 Sum of Mulliken charges =  -1.00000   1.00000

 Dipole moment (field-independent basis, Debye):
    X=             -1.3448    Y=             -0.5868    Z=             -1.3533  Tot=              1.9961
 Quadrupole moment (field-independent basis, Debye-Ang):
   XX=           -169.5769   YY=           -157.8115   ZZ=           -155.2085
   XY=              5.0515   XZ=            -12.1079   YZ=             10.2375

 Summary of Natural Population Analysis:

                                       Natural Population
                Natural  -----------------------------------------------
    Atom  No    Charge         Core      Valence    Rydberg      Total
 -----------------------------------------------------------------------
      C    1   -0.29893      0.99966     2.29468    0.00460     3.29893
      C    2   -0.02236      0.99957     2.01051    0.01229     3.02236
      O    3   -0.28296      0.99986     3.27362    0.00948     4.28296
      C    4    0.40299      0.99970     1.57173    0.02558     2.59701
      O    5   -0.29715      0.99987     3.29189    0.00539     4.29715
      C    6   -0.13645      0.99956     2.12561    0.01127     3.13645
      N    7   -0.31608      0.99967     2.80641    0.01000     3.81608
      C    8    0.35044      0.99967     1.62734    0.02255     2.64956
      O    9   -0.32290      0.99988     3.31712    0.00591     4.32290
      C   10   -0.23488      0.99958     2.22663    0.00867     3.23488
      C   11   -0.19214      0.99962     2.18233    0.01018     3.19214
      C   12   -0.09131      0.99961     2.08251    0.00919     3.09131
      N   13   -0.32237      0.99968     2.81320    0.00950     3.82237
      C   14    0.33506      0.99961     1.64437    0.02097     2.66494
      O   15   -0.30983      0.99988     3.30512    0.00482     4.30983
      C   16    0.11478      0.99940     1.87246    0.01336     2.88522
      C   17   -0.10311      0.99952     2.09522    0.00838     3.10311
      C   18   -0.17570      0.99957     2.16691    0.00922     3.17570
      C   19    0.09009      0.99953     1.89524    0.01515     2.90991
      O   20   -0.22130      0.99986     3.21350    0.00795     4.22130
      H   21    0.09859      0.00000     0.40030    0.00110     0.40141
      H   22    0.10373      0.00000     0.39525    0.00102     0.39627
      H   23    0.10361      0.00000     0.39556    0.00083     0.39639
      H   24    0.09400      0.00000     0.40465    0.00134     0.40600
      H   25    0.10504      0.00000     0.39218    0.00278     0.39496
      H   26    0.11828      0.00000     0.38053    0.00119     0.38172
      H   27    0.10807      0.00000     0.39092    0.00101     0.39193
      H   28    0.19490      0.00000     0.30228    0.00282     0.30510
      H   29    0.09838      0.00000     0.40019    0.00143     0.40162
      H   30    0.11348      0.00000     0.38546    0.00106     0.38652
      H   31    0.09659      0.00000     0.40233    0.00108     0.40341
      H   32    0.10927      0.00000     0.38979    0.00095     0.39073
      H   33    0.09491      0.00000     0.40394    0.00115     0.40509
      H   34    0.10320      0.00000     0.39509    0.00171     0.39680
      H   35    0.18580      0.00000     0.31139    0.00282     0.31420
      H   36    0.11284      0.00000     0.38637    0.00079     0.38716
      H   37    0.10385      0.00000     0.39549    0.00066     0.39615
      H   38    0.08958      0.00000     0.40955    0.00088     0.41042
 =======================================================================
   * Total *    0.00000     19.99329    54.75765    0.24907    75.00000

 Normal termination of Gaussian 16 at Sat Dec 12 18:58:35 2020.
