 Gaussian 16, Revision A.03,

 ----------------------------------------------------------------------
 # opt=(cartesian,calcfc) freq B3LYP/6-31G(d) empiricaldispersion=gd3bj
  scf=xqc
 ----------------------------------------------------------------------

 ------------------------------
 CID_91425595_JID_4914_neutraal
 ------------------------------
 Symbolic Z-matrix:
 Charge =  0 Multiplicity = 1

 SCF Done:  E(RB3LYP) =  -580.055367470     A.U. after   13 cycles
 SCF Done:  E(RB3LYP) =  -580.058155721     A.U. after   11 cycles
 SCF Done:  E(RB3LYP) =  -580.060587226     A.U. after   12 cycles
 SCF Done:  E(RB3LYP) =  -580.060967650     A.U. after   11 cycles
 SCF Done:  E(RB3LYP) =  -580.061202130     A.U. after   10 cycles
 SCF Done:  E(RB3LYP) =  -580.061176569     A.U. after   11 cycles
 SCF Done:  E(RB3LYP) =  -580.061284866     A.U. after    9 cycles
 SCF Done:  E(RB3LYP) =  -580.061261265     A.U. after   11 cycles
 SCF Done:  E(RB3LYP) =  -580.061318373     A.U. after   10 cycles
 SCF Done:  E(RB3LYP) =  -580.061322585     A.U. after   10 cycles
 SCF Done:  E(RB3LYP) =  -580.061408318     A.U. after    7 cycles
 SCF Done:  E(RB3LYP) =  -580.061408350     A.U. after    6 cycles
 SCF Done:  E(RB3LYP) =  -580.061408307     A.U. after    7 cycles
 SCF Done:  E(RB3LYP) =  -580.061408357     A.U. after    5 cycles
 SCF Done:  E(RB3LYP) =  -580.061408313     A.U. after    7 cycles
 SCF Done:  E(RB3LYP) =  -580.061408349     A.U. after    6 cycles
 Optimization completed on the basis of negligible forces.
    -- Stationary point found.
 Normal termination of Gaussian 16 at Mon Dec 21 15:13:28 2020.

 --------------------------------------------------------------------
 #N Geom=AllCheck Guess=TCheck SCRF=Check GenChk RB3LYP/6-31G(d) Freq
 --------------------------------------------------------------------

 Structure from the checkpoint file:  "JID_4914.chk"
 ------------------------------
 CID_91425595_JID_4914_neutraal
 ------------------------------
 Charge =  0 Multiplicity = 1

 SCF Done:  E(RB3LYP) =  -580.061408349     A.U. after    1 cycles

  Exact polarizability: 143.351  -0.370 140.685   0.478   0.040 118.511
 Approx polarizability: 188.964  -6.963 206.357  -0.426   1.855 171.803

                      1                      2                      3
                      A                      A                      A
 Frequencies --     28.1758                37.2727                81.7503
 Red. masses --      3.1236                 3.0162                 3.7474
 Frc consts  --      0.0015                 0.0025                 0.0148
 IR Inten    --      0.5085                 0.2156                 0.0252

                      4                      5                      6
                      A                      A                      A
 Frequencies --    147.9114               155.9234               204.6277
 Red. masses --      3.1141                 2.9813                 2.8490
 Frc consts  --      0.0401                 0.0427                 0.0703
 IR Inten    --      1.8332                 0.3724                 1.4484

                      7                      8                      9
                      A                      A                      A
 Frequencies --    222.0148               265.2304               299.8785
 Red. masses --      2.6431                 1.9319                 2.4542
 Frc consts  --      0.0768                 0.0801                 0.1300
 IR Inten    --      1.1242                 0.6459                 0.3524

                     10                     11                     12
                      A                      A                      A
 Frequencies --    309.0319               315.3578               373.1372
 Red. masses --      1.9694                 3.1134                 1.8195
 Frc consts  --      0.1108                 0.1824                 0.1493
 IR Inten    --      0.4584                 1.0316                 1.6974

                     13                     14                     15
                      A                      A                      A
 Frequencies --    389.5614               418.5515               450.1972
 Red. masses --      2.2426                 2.8931                 2.9919
 Frc consts  --      0.2005                 0.2986                 0.3573
 IR Inten    --      2.1265                 1.5219                 1.3648

                     16                     17                     18
                      A                      A                      A
 Frequencies --    464.0742               492.8014               527.2876
 Red. masses --      2.9290                 2.3057                 1.7316
 Frc consts  --      0.3717                 0.3299                 0.2837
 IR Inten    --      0.2929                21.5646                17.9835

                     19                     20                     21
                      A                      A                      A
 Frequencies --    543.2555               689.4146               704.4231
 Red. masses --      1.7951                 3.0959                 2.4304
 Frc consts  --      0.3121                 0.8669                 0.7106
 IR Inten    --      2.3988                17.2435                 8.1696

                     22                     23                     24
                      A                      A                      A
 Frequencies --    723.5445               756.8103               800.1670
 Red. masses --      2.0255                 1.5383                 1.9639
 Frc consts  --      0.6248                 0.5191                 0.7409
 IR Inten    --      8.2447                 3.1001                72.9355

                     25                     26                     27
                      A                      A                      A
 Frequencies --    817.7165               830.0642               838.2583
 Red. masses --      1.5949                 1.4970                 2.8840
 Frc consts  --      0.6283                 0.6077                 1.1940
 IR Inten    --      1.1156                 1.3657                 6.1535

                     28                     29                     30
                      A                      A                      A
 Frequencies --    860.0694               881.6222               894.4088
 Red. masses --      2.8734                 1.4145                 2.3144
 Frc consts  --      1.2523                 0.6478                 1.0909
 IR Inten    --      6.4031                 3.4749                 0.9887

                     31                     32                     33
                      A                      A                      A
 Frequencies --    903.5704               905.6155               930.9951
 Red. masses --      1.8237                 1.4399                 2.1599
 Frc consts  --      0.8772                 0.6958                 1.1030
 IR Inten    --      2.5457                30.0644                 1.2060

                     34                     35                     36
                      A                      A                      A
 Frequencies --    946.6383               987.8188               992.9818
 Red. masses --      2.3457                 1.4777                 1.7687
 Frc consts  --      1.2385                 0.8496                 1.0275
 IR Inten    --      3.5171                 8.3780                13.5668

                     37                     38                     39
                      A                      A                      A
 Frequencies --   1039.9394              1057.7422              1070.5766
 Red. masses --      1.4837                 2.1286                 2.0206
 Frc consts  --      0.9454                 1.4031                 1.3645
 IR Inten    --      0.2427                19.1695                 2.1706

                     40                     41                     42
                      A                      A                      A
 Frequencies --   1075.9691              1084.9986              1089.8376
 Red. masses --      1.8976                 1.5432                 1.9364
 Frc consts  --      1.2944                 1.0704                 1.3551
 IR Inten    --     15.1021                 3.3729                 6.2103

                     43                     44                     45
                      A                      A                      A
 Frequencies --   1107.3014              1128.4995              1141.8332
 Red. masses --      1.8734                 2.1651                 2.8654
 Frc consts  --      1.3534                 1.6245                 2.2011
 IR Inten    --      8.3352                19.3759                17.0460

                     46                     47                     48
                      A                      A                      A
 Frequencies --   1148.3467              1180.3265              1185.3012
 Red. masses --      3.7126                 2.1846                 1.1871
 Frc consts  --      2.8845                 1.7932                 0.9827
 IR Inten    --     14.2457                 3.9024                 2.9912

                     49                     50                     51
                      A                      A                      A
 Frequencies --   1197.2884              1224.5721              1249.0217
 Red. masses --      1.2554                 1.0786                 1.8108
 Frc consts  --      1.0603                 0.9530                 1.6644
 IR Inten    --      2.7433                 7.4600                18.9218

                     52                     53                     54
                      A                      A                      A
 Frequencies --   1267.0161              1303.7602              1312.3129
 Red. masses --      1.8186                 1.2473                 1.1897
 Frc consts  --      1.7201                 1.2491                 1.2072
 IR Inten    --     13.6588                 3.3039                 8.6114

                     55                     56                     57
                      A                      A                      A
 Frequencies --   1318.7928              1336.9892              1339.1026
 Red. masses --      1.3080                 1.2822                 1.4388
 Frc consts  --      1.3403                 1.3504                 1.5201
 IR Inten    --     16.0783                 3.0305                 1.3139

                     58                     59                     60
                      A                      A                      A
 Frequencies --   1360.2592              1370.3803              1370.9754
 Red. masses --      1.5491                 1.3141                 1.3320
 Frc consts  --      1.6888                 1.4540                 1.4750
 IR Inten    --     20.6858                 2.9508                15.2691

                     61                     62                     63
                      A                      A                      A
 Frequencies --   1376.0549              1390.4179              1400.1432
 Red. masses --      1.5212                 1.3133                 1.3745
 Frc consts  --      1.6971                 1.4959                 1.5876
 IR Inten    --     12.5961                13.0163                 1.0116

                     64                     65                     66
                      A                      A                      A
 Frequencies --   1402.9797              1405.3394              1409.5684
 Red. masses --      1.4818                 1.4429                 1.4299
 Frc consts  --      1.7185                 1.6789                 1.6739
 IR Inten    --      1.2794                 4.2890                13.2327

                     67                     68                     69
                      A                      A                      A
 Frequencies --   1434.0092              1451.1073              1478.9553
 Red. masses --      1.4389                 1.4253                 1.2417
 Frc consts  --      1.7434                 1.7683                 1.6002
 IR Inten    --     18.2308                 2.7522                 3.4703

                     70                     71                     72
                      A                      A                      A
 Frequencies --   1497.6367              1503.5555              1506.1931
 Red. masses --      1.1704                 1.1081                 1.1571
 Frc consts  --      1.5467                 1.4760                 1.5467
 IR Inten    --      5.1322                 1.5038                 0.3076

                     73                     74                     75
                      A                      A                      A
 Frequencies --   1512.4685              1515.2882              1521.0112
 Red. masses --      1.0862                 1.0945                 1.1045
 Frc consts  --      1.4639                 1.4806                 1.5055
 IR Inten    --      3.9882                 6.1714                 0.8918

                     76                     77                     78
                      A                      A                      A
 Frequencies --   1521.9821              1526.4081              1537.8242
 Red. masses --      1.1041                 1.1031                 1.1034
 Frc consts  --      1.5069                 1.5143                 1.5374
 IR Inten    --     11.0358                 1.9110                10.5130

                     79                     80                     81
                      A                      A                      A
 Frequencies --   1539.8073              1706.0545              2929.6526
 Red. masses --      1.0974                 4.6327                 1.0738
 Frc consts  --      1.5330                 7.9445                 5.4302
 IR Inten    --      2.8927                38.6968                22.1204

                     82                     83                     84
                      A                      A                      A
 Frequencies --   2936.3105              2991.2763              3016.9370
 Red. masses --      1.0733                 1.0687                 1.0640
 Frc consts  --      5.4525                 5.6339                 5.7059
 IR Inten    --    100.9339                48.7349                61.6871

                     85                     86                     87
                      A                      A                      A
 Frequencies --   3026.2363              3036.7165              3043.1750
 Red. masses --      1.0670                 1.0734                 1.0602
 Frc consts  --      5.7575                 5.8322                 5.7848
 IR Inten    --     27.8324                 3.2003                38.7022

                     88                     89                     90
                      A                      A                      A
 Frequencies --   3043.6455              3044.3430              3055.1725
 Red. masses --      1.0622                 1.0615                 1.0759
 Frc consts  --      5.7976                 5.7964                 5.9166
 IR Inten    --      7.0328                15.3529                52.1128

                     91                     92                     93
                      A                      A                      A
 Frequencies --   3069.7527              3072.1804              3078.2050
 Red. masses --      1.0930                 1.0908                 1.0941
 Frc consts  --      6.0686                 6.0659                 6.1080
 IR Inten    --     78.4933                70.1646                61.9186

                     94                     95                     96
                      A                      A                      A
 Frequencies --   3084.8287              3087.6216              3090.7777
 Red. masses --      1.1043                 1.1039                 1.1049
 Frc consts  --      6.1915                 6.2003                 6.2191
 IR Inten    --     34.3500                42.2700                64.3633

                     97                     98                     99
                      A                      A                      A
 Frequencies --   3092.1255              3102.3815              3122.5242
 Red. masses --      1.1040                 1.0891                 1.0865
 Frc consts  --      6.2191                 6.1762                 6.2415
 IR Inten    --     54.4000                32.5474                24.4000

                    100                    101                    102
                      A                      A                      A
 Frequencies --   3173.1382              3248.5722              3492.2390
 Red. masses --      1.0600                 1.1158                 1.0745
 Frc consts  --      6.2884                 6.9377                 7.7207
 IR Inten    --      6.3439                17.2465                 3.4811

 - Thermochemistry -
 -------------------
 Temperature   298.150 Kelvin.  Pressure   1.00000 Atm.
 Atom     1 has atomic number  6 and mass  12.00000

 Molecular mass:   194.17830 amu.
 Principal axes and moments of inertia in atomic units:
                           1         2         3
     Eigenvalues --  1811.447913392.037843855.39010
           X            0.99994   0.01027   0.00223
           Y           -0.01024   0.99983  -0.01521
           Z           -0.00239   0.01519   0.99988
 This molecule is an asymmetric top.
 Rotational symmetry number  1.
 Warning -- assumption of classical behavior for rotation
           may cause significant error
 Rotational temperatures (Kelvin)      0.04781     0.02553     0.02247
 Rotational constants (GHZ):           0.99630     0.53205     0.46811
 Zero-point vibrational energy     877017.8 (Joules/Mol)
                                  209.61227 (Kcal/Mol)
 Warning -- explicit consideration of  19 degrees of freedom as
           vibrations may cause significant error
 Vibrational temperatures:     40.54    53.63   117.62   212.81   224.34
          (Kelvin)            294.41   319.43   381.61   431.46   444.63
                              453.73   536.86   560.49   602.20   647.73
                              667.70   709.03   758.65   781.62   991.91
                             1013.51  1041.02  1088.88  1151.26  1176.51
                             1194.28  1206.07  1237.45  1268.46  1286.85
                             1300.04  1302.98  1339.49  1362.00  1421.25
                             1428.68  1496.24  1521.86  1540.32  1548.08
                             1561.07  1568.03  1593.16  1623.66  1642.84
                             1652.21  1698.23  1705.38  1722.63  1761.89
                             1797.06  1822.95  1875.82  1888.13  1897.45
                             1923.63  1926.67  1957.11  1971.67  1972.53
                             1979.84  2000.50  2014.49  2018.57  2021.97
                             2028.05  2063.22  2087.82  2127.89  2154.77
                             2163.28  2167.08  2176.10  2180.16  2188.40
                             2189.79  2196.16  2212.59  2215.44  2454.63
                             4215.12  4224.70  4303.78  4340.70  4354.08
                             4369.16  4378.45  4379.13  4380.13  4395.71
                             4416.69  4420.18  4428.85  4438.38  4442.40
                             4446.94  4448.88  4463.64  4492.62  4565.44
                             4673.97  5024.55

 Zero-point correction=                           0.334038 (Hartree/Particle)
 Thermal correction to Energy=                    0.347237
 Thermal correction to Enthalpy=                  0.348181
 Thermal correction to Gibbs Free Energy=         0.293893
 Sum of electronic and zero-point Energies=           -579.727370
 Sum of electronic and thermal Energies=              -579.714172
 Sum of electronic and thermal Enthalpies=            -579.713227
 Sum of electronic and thermal Free Energies=         -579.767515

                     E (Thermal)             CV                S
                      KCal/Mol        Cal/Mol-Kelvin    Cal/Mol-Kelvin
 Total                  217.894             53.408            114.258
 Electronic               0.000              0.000              0.000
 Translational            0.889              2.981             41.696
 Rotational               0.889              2.981             31.538
 Vibrational            216.117             47.447             41.024
 Vibration     1          0.593              1.984              5.954
 Vibration     2          0.594              1.982              5.399
 Vibration     3          0.600              1.962              3.848
 Vibration     4          0.617              1.905              2.699
 Vibration     5          0.620              1.896              2.599
 Vibration     6          0.640              1.833              2.091
 Vibration     7          0.648              1.808              1.943
 Vibration     8          0.671              1.737              1.627
 Vibration     9          0.692              1.674              1.418
 Vibration    10          0.698              1.657              1.368
 Vibration    11          0.703              1.644              1.334
 Vibration    12          0.745              1.527              1.067
 Vibration    13          0.757              1.492              1.002
 Vibration    14          0.781              1.430              0.897
 Vibration    15          0.809              1.360              0.795
 Vibration    16          0.822              1.330              0.754
 Vibration    17          0.848              1.266              0.676
 Vibration    18          0.882              1.190              0.593
 Vibration    19          0.898              1.154              0.558

 Optimization completed on the basis of negligible forces.
    -- Stationary point found.
 Normal termination of Gaussian 16 at Mon Dec 21 15:27:43 2020.

 ----------------------------------------------------------------------
 # B3LYP/6-311++G(d,p) empiricaldispersion=gd3bj scf=xqc pop=npa geom=c
 heck
 ----------------------------------------------------------------------

 --------------------------------------
 CID_91425595_JID_4914_Energie_neutraal
 --------------------------------------
 Structure from the checkpoint file:  "JID_4914.chk"
 Charge =  0 Multiplicity = 1

 SCF Done:  E(RB3LYP) =  -580.220486203     A.U. after   13 cycles
 Normal termination of Gaussian 16 at Mon Dec 21 15:34:01 2020.

 ----------------------------------------------------------------------
 # B3LYP/6-311++G(d,p) empiricaldispersion=gd3bj scf=xqc pop=npa geom=c
 heck
 ----------------------------------------------------------------------

 ------------------------------------
 CID_91425595_JID_4914_Energie_kation
 ------------------------------------
 Structure from the checkpoint file:  "JID_4914.chk"
 Charge =  1 Multiplicity = 2

 SCF Done:  E(UB3LYP) =  -579.947208217     A.U. after   22 cycles
 Normal termination of Gaussian 16 at Mon Dec 21 15:49:05 2020.
 Gaussian 16:  ES64L-G16RevA.03 25-Dec-2016

 ----------------------------------------------------------------------
 # B3LYP/6-311++G(d,p) empiricaldispersion=gd3bj scf=xqc pop=npa geom=c
 heck
 ----------------------------------------------------------------------

 -----------------------------------
 CID_91425595_JID_4914_Energie_anion
 -----------------------------------
 Structure from the checkpoint file:  "JID_4914.chk"
 Charge = -1 Multiplicity = 2

                         Standard orientation:
 ---------------------------------------------------------------------
 Center     Atomic      Atomic             Coordinates (Angstroms)
 Number     Number       Type             X           Y           Z
 ---------------------------------------------------------------------
      1          6           0       -0.036111    2.778752    0.348204
      2          6           0        0.267195    1.476605    0.277839
      3          6           0        1.715572    1.019077    0.333503
      4          6           0        2.247318    0.620157   -1.069671
      5          6           0        1.883724   -0.810467   -1.469789
      6          7           0        2.398188   -1.733820   -0.453278
      7          6           0        1.743396   -1.517965    0.839935
      8          6           0        2.060026   -0.104916    1.341382
      9          7           0       -0.742088    0.476162    0.041497
     10          6           0       -1.383664    0.006664    1.277689
     11          6           0       -2.238825   -1.233884    1.011273
     12          6           0       -3.270491   -0.963531   -0.089363
     13          6           0       -2.581291   -0.392510   -1.333765
     14          6           0       -1.743952    0.834216   -0.967369
     15          1           0        0.736602    3.530492    0.477487
     16          1           0       -1.055448    3.141493    0.261871
     17          1           0        2.281685    1.904406    0.647235
     18          1           0        1.882145    1.330696   -1.820165
     19          1           0        3.342117    0.692445   -1.048949
     20          1           0        0.792020   -0.891404   -1.601486
     21          1           0        2.359110   -1.054368   -2.427423
     22          1           0        2.233304   -2.692009   -0.754493
     23          1           0        2.141348   -2.249894    1.553326
     24          1           0        0.654222   -1.666632    0.784998
     25          1           0        3.141771   -0.059209    1.518410
     26          1           0        1.571212    0.077989    2.305484
     27          1           0       -2.012751    0.808136    1.711962
     28          1           0       -0.607875   -0.217763    2.013427
     29          1           0       -2.732717   -1.541768    1.941145
     30          1           0       -1.581196   -2.056524    0.702457
     31          1           0       -3.822926   -1.878367   -0.334980
     32          1           0       -4.008377   -0.235458    0.277942
     33          1           0       -1.922250   -1.151523   -1.774657
     34          1           0       -3.321381   -0.116258   -2.094868
     35          1           0       -1.216529    1.223466   -1.843184
     36          1           0       -2.424179    1.632467   -0.612285
 ---------------------------------------------------------------------

 SCF Done:  E(UB3LYP) =  -580.204129514     A.U. after   32 cycles

 The electronic state is 2-A.
 Alpha  occ. eigenvalues --  -14.20726 -14.19023 -10.10390 -10.09313 -10.09096
 Alpha  occ. eigenvalues --  -10.08260 -10.08116 -10.07679 -10.06485 -10.06377
 Alpha  occ. eigenvalues --  -10.06342 -10.06284 -10.06281 -10.05821  -0.83577
 Alpha  occ. eigenvalues --   -0.80384  -0.71624  -0.68353  -0.65557  -0.64653
 Alpha  occ. eigenvalues --   -0.63523  -0.54889  -0.53696  -0.52462  -0.51700
 Alpha  occ. eigenvalues --   -0.47963  -0.44668  -0.43250  -0.40892  -0.38483
 Alpha  occ. eigenvalues --   -0.36364  -0.35929  -0.35681  -0.34397  -0.34070
 Alpha  occ. eigenvalues --   -0.32529  -0.31960  -0.31068  -0.29969  -0.29557
 Alpha  occ. eigenvalues --   -0.28773  -0.28557  -0.28000  -0.25026  -0.24605
 Alpha  occ. eigenvalues --   -0.24173  -0.22972  -0.22330  -0.21378  -0.21176
 Alpha  occ. eigenvalues --   -0.20803  -0.15963  -0.12966  -0.11261   0.04532
 Alpha virt. eigenvalues --    0.06661   0.06884   0.07221   0.08408   0.08619
 Alpha virt. eigenvalues --    0.08923   0.09152   0.09506   0.10342   0.10775
 Alpha virt. eigenvalues --    0.11292   0.11649   0.11718   0.12159   0.12382

  Beta  occ. eigenvalues --  -14.20720 -14.19006 -10.10388 -10.09301 -10.09083
  Beta  occ. eigenvalues --  -10.08247 -10.08104 -10.07676 -10.06471 -10.06356
  Beta  occ. eigenvalues --  -10.06323 -10.06273 -10.06262 -10.05805  -0.83562
  Beta  occ. eigenvalues --   -0.80356  -0.71600  -0.68323  -0.65527  -0.64624
  Beta  occ. eigenvalues --   -0.63498  -0.54852  -0.53662  -0.52417  -0.51660
  Beta  occ. eigenvalues --   -0.47920  -0.44616  -0.43212  -0.40834  -0.38448
  Beta  occ. eigenvalues --   -0.36336  -0.35899  -0.35655  -0.34371  -0.34046
  Beta  occ. eigenvalues --   -0.32497  -0.31934  -0.31046  -0.29946  -0.29521
  Beta  occ. eigenvalues --   -0.28744  -0.28523  -0.27966  -0.24994  -0.24581
  Beta  occ. eigenvalues --   -0.24145  -0.22936  -0.22298  -0.21345  -0.21147
  Beta  occ. eigenvalues --   -0.20772  -0.15940  -0.12937  -0.11226
  Beta virt. eigenvalues --    0.06558   0.07366   0.07575   0.07891   0.08915
  Beta virt. eigenvalues --    0.09025   0.09345   0.09477   0.09744   0.10615
  Beta virt. eigenvalues --    0.11328   0.11633   0.11953   0.12053   0.12361

 Mulliken charges and spin densities:
               1          2
     1  C    0.817422  -1.411581
     2  C   -0.839616   0.449095
     3  C   -0.361582   1.004752
     4  C   -0.199971  -0.439674
     5  C    0.099937  -0.426144
     6  N   -0.326842   0.147061
     7  C    0.361640  -0.536785
     8  C   -0.179106  -0.517778
     9  N    0.332802   0.084395
    10  C   -0.270773   0.036869
    11  C    0.654257  -0.931203
    12  C    0.071904  -0.431372
    13  C    0.814120  -1.173161
    14  C   -0.159112   0.002442
    15  H   -0.228578   0.358266
    16  H   -0.045200   0.158424
    17  H   -0.139871   0.360722
    18  H   -0.015843   0.164067
    19  H    0.001561   0.139624
    20  H    0.210232  -0.064906
    21  H   -0.140838   0.309246
    22  H   -0.126643   0.376382
    23  H   -0.202563   0.378488
    24  H    0.103348  -0.008528
    25  H    0.046611   0.094548
    26  H   -0.127029   0.270861
    27  H   -0.120012   0.269517
    28  H    0.128724   0.011180
    29  H   -0.347225   0.517145
    30  H   -0.005941   0.132222
    31  H   -0.603093   0.781010
    32  H    0.209328  -0.097757
    33  H    0.002269   0.121375
    34  H   -0.369698   0.543697
    35  H   -0.007553   0.182473
    36  H   -0.037067   0.145029
 Sum of Mulliken charges =  -1.00000   1.00000

 Dipole moment (field-independent basis, Debye):
    X=              1.1860    Y=              2.4667    Z=              0.6368  Tot=              2.8101
 Quadrupole moment (field-independent basis, Debye-Ang):
   XX=           -154.2761   YY=           -138.4791   ZZ=           -130.2953
   XY=             -3.9508   XZ=             -2.0151   YZ=              0.6499

 Summary of Natural Population Analysis:

                                       Natural Population
                Natural  -----------------------------------------------
    Atom  No    Charge         Core      Valence    Rydberg      Total
 -----------------------------------------------------------------------
      C    1   -0.21422      0.99947     2.20728    0.00747     3.21422
      C    2    0.11524      0.99945     1.87007    0.01524     2.88476
      C    3   -0.12518      0.99953     2.11300    0.01266     3.12518
      C    4   -0.18759      0.99961     2.17892    0.00907     3.18759
      C    5   -0.09118      0.99961     2.08098    0.01058     3.09118
      N    6   -0.34335      0.99974     2.83138    0.01222     3.84335
      C    7   -0.09013      0.99961     2.07990    0.01062     3.09013
      C    8   -0.19075      0.99961     2.18193    0.00922     3.19075
      N    9   -0.30375      0.99967     2.78947    0.01461     3.80375
      C   10   -0.07944      0.99960     2.06945    0.01040     3.07944
      C   11   -0.19375      0.99962     2.18525    0.00887     3.19375
      C   12   -0.18841      0.99963     2.18077    0.00801     3.18841
      C   13   -0.19305      0.99962     2.18442    0.00901     3.19305
      C   14   -0.07983      0.99961     2.06863    0.01159     3.07983
      H   15    0.09556      0.00000     0.40324    0.00120     0.40444
      H   16    0.09566      0.00000     0.40337    0.00097     0.40434
      H   17    0.10039      0.00000     0.39789    0.00172     0.39961
      H   18    0.10047      0.00000     0.39845    0.00108     0.39953
      H   19    0.09826      0.00000     0.40034    0.00140     0.40174
      H   20    0.08669      0.00000     0.41059    0.00272     0.41331
      H   21    0.09161      0.00000     0.40725    0.00114     0.40839
      H   22    0.17473      0.00000     0.32257    0.00270     0.32527
      H   23    0.09206      0.00000     0.40667    0.00126     0.40794
      H   24    0.08418      0.00000     0.41284    0.00297     0.41582
      H   25    0.09999      0.00000     0.39862    0.00139     0.40001
      H   26    0.09964      0.00000     0.39927    0.00109     0.40036
      H   27    0.08168      0.00000     0.41690    0.00142     0.41832
      H   28    0.10012      0.00000     0.39835    0.00153     0.39988
      H   29    0.09950      0.00000     0.39936    0.00114     0.40050
      H   30    0.09715      0.00000     0.40083    0.00203     0.40285
      H   31    0.10092      0.00000     0.39759    0.00149     0.39908
      H   32    0.09145      0.00000     0.40713    0.00142     0.40855
      H   33    0.09721      0.00000     0.40082    0.00197     0.40279
      H   34    0.09920      0.00000     0.39962    0.00119     0.40080
      H   35    0.10055      0.00000     0.39829    0.00116     0.39945
      H   36    0.07838      0.00000     0.41999    0.00162     0.42162
 =======================================================================
   * Total *    0.00000     13.99437    39.82146    0.18417    54.00000

 Normal termination of Gaussian 16 at Mon Dec 21 16:10:45 2020.
