 Gaussian 16, Revision A.03,

 -----------------------------------------------------------
 # opt freq B3LYP/6-31G(d) empiricaldispersion=gd3bj scf=xqc
 -----------------------------------------------------------

 -------------------------------
 CID_136952152_JID_1988_neutraal
 -------------------------------
 Symbolic Z-matrix:
 Charge =  0 Multiplicity = 1

 SCF Done:  E(RB3LYP) =  -531.444361706     A.U. after   15 cycles
 SCF Done:  E(RB3LYP) =  -531.451823343     A.U. after   13 cycles
 SCF Done:  E(RB3LYP) =  -531.451124381     A.U. after   13 cycles
 SCF Done:  E(RB3LYP) =  -531.451474444     A.U. after   13 cycles
 SCF Done:  E(RB3LYP) =  -531.452844284     A.U. after   10 cycles
 SCF Done:  E(RB3LYP) =  -531.453206557     A.U. after   12 cycles
 SCF Done:  E(RB3LYP) =  -531.452392085     A.U. after   13 cycles
 SCF Done:  E(RB3LYP) =  -531.453211706     A.U. after   12 cycles
 SCF Done:  E(RB3LYP) =  -531.453359519     A.U. after   12 cycles
 SCF Done:  E(RB3LYP) =  -531.453364511     A.U. after    9 cycles
 SCF Done:  E(RB3LYP) =  -531.453366036     A.U. after    8 cycles
 SCF Done:  E(RB3LYP) =  -531.453366882     A.U. after    8 cycles
 SCF Done:  E(RB3LYP) =  -531.453367260     A.U. after    8 cycles
 SCF Done:  E(RB3LYP) =  -531.453367481     A.U. after    8 cycles
 SCF Done:  E(RB3LYP) =  -531.453367666     A.U. after    8 cycles
 Optimization completed.
    -- Stationary point found.
 Normal termination of Gaussian 16 at Tue Dec  8 21:48:28 2020.

 --------------------------------------------------------------------
 #N Geom=AllCheck Guess=TCheck SCRF=Check GenChk RB3LYP/6-31G(d) Freq
 --------------------------------------------------------------------

 Structure from the checkpoint file:  "JID_1988.chk"
 -------------------------------
 CID_136952152_JID_1988_neutraal
 -------------------------------
 Charge =  0 Multiplicity = 1

 SCF Done:  E(RB3LYP) =  -531.453367666     A.U. after    1 cycles

  Exact polarizability:  93.284   2.554  95.309  -1.230  10.460  58.202
 Approx polarizability: 129.546   2.896 162.075  -2.953  30.148  88.332

                      1                      2                      3
                      A                      A                      A
 Frequencies --     52.6243                94.4401               105.7989
 Red. masses --      6.2457                 5.6192                 3.6658
 Frc consts  --      0.0102                 0.0295                 0.0242
 IR Inten    --      3.0077                 0.8830                 2.3879

                      4                      5                      6
                      A                      A                      A
 Frequencies --    153.5554               187.7541               237.8722
 Red. masses --      3.7431                 3.5357                 6.4781
 Frc consts  --      0.0520                 0.0734                 0.2160
 IR Inten    --      0.5723                 0.7356                 0.1625

                      7                      8                      9
                      A                      A                      A
 Frequencies --    241.8950               303.7365               361.7819
 Red. masses --      1.1372                 3.3186                 2.6035
 Frc consts  --      0.0392                 0.1804                 0.2008
 IR Inten    --      0.3282                 0.4371                 3.4371

                     10                     11                     12
                      A                      A                      A
 Frequencies --    394.7941               438.5469               514.6286
 Red. masses --      7.0137                 5.5974                 7.3141
 Frc consts  --      0.6441                 0.6343                 1.1413
 IR Inten    --      1.2359                 7.0527                12.4544

                     13                     14                     15
                      A                      A                      A
 Frequencies --    554.0252               585.9918               618.9023
 Red. masses --      1.1724                 3.9069                 1.2173
 Frc consts  --      0.2120                 0.7904                 0.2747
 IR Inten    --     80.0223                 3.4275                62.6517

                     16                     17                     18
                      A                      A                      A
 Frequencies --    644.3491               684.8082               714.1553
 Red. masses --      1.2238                 3.5893                 5.9258
 Frc consts  --      0.2994                 0.9918                 1.7807
 IR Inten    --     58.4298                 2.7399                16.1218

                     19                     20                     21
                      A                      A                      A
 Frequencies --    753.7328               768.3195               856.4240
 Red. masses --      8.3609                 6.6253                 3.7091
 Frc consts  --      2.7986                 2.3043                 1.6029
 IR Inten    --      1.8445                 5.5938                 1.4538

                     22                     23                     24
                      A                      A                      A
 Frequencies --    907.0348               926.0164               956.1259
 Red. masses --      8.0040                 2.0259                 2.3296
 Frc consts  --      3.8798                 1.0235                 1.2548
 IR Inten    --     28.4466                 0.7616                13.3781

                     25                     26                     27
                      A                      A                      A
 Frequencies --    967.5463              1024.2242              1054.6695
 Red. masses --      5.0937                 2.7285                 2.1777
 Frc consts  --      2.8095                 1.6864                 1.4272
 IR Inten    --     26.5953                 0.1054                 7.1335

                     28                     29                     30
                      A                      A                      A
 Frequencies --   1113.5724              1123.1945              1207.0250
 Red. masses --      1.6752                 2.1629                 4.1235
 Frc consts  --      1.2239                 1.6077                 3.5396
 IR Inten    --      5.4138                 3.6928                35.6110

                     31                     32                     33
                      A                      A                      A
 Frequencies --   1242.9776              1301.1062              1310.6151
 Red. masses --      1.2747                 1.6272                 1.5079
 Frc consts  --      1.1604                 1.6230                 1.5261
 IR Inten    --     10.7806                47.3144                 1.0410

                     34                     35                     36
                      A                      A                      A
 Frequencies --   1370.3134              1388.8974              1441.2762
 Red. masses --      1.4658                 1.3955                 1.2263
 Frc consts  --      1.6217                 1.5861                 1.5008
 IR Inten    --      3.9486                13.2766                 5.2312

                     37                     38                     39
                      A                      A                      A
 Frequencies --   1499.0204              1509.1792              1527.0202
 Red. masses --      1.1568                 2.2783                 1.0427
 Frc consts  --      1.5316                 3.0574                 1.4325
 IR Inten    --      9.5782                61.0742                 7.0095

                     40                     41                     42
                      A                      A                      A
 Frequencies --   1534.9756              1662.8347              1909.8771
 Red. masses --      1.2538                 7.8593                11.9315
 Frc consts  --      1.7405                12.8037                25.6422
 IR Inten    --     36.8969                42.2141               667.1214

                     43                     44                     45
                      A                      A                      A
 Frequencies --   2233.7441              3049.8108              3064.7671
 Red. masses --      5.9687                 1.0594                 1.0353
 Frc consts  --     17.5468                 5.8057                 5.7294
 IR Inten    --      0.4088                10.0304                14.8974

                     46                     47                     48
                      A                      A                      A
 Frequencies --   3087.0572              3091.3500              3135.8346
 Red. masses --      1.1034                 1.0850                 1.1021
 Frc consts  --      6.1956                 6.1093                 6.3854
 IR Inten    --      7.6647                 5.2982                19.6139

                     49                     50                     51
                      A                      A                      A
 Frequencies --   3147.3647              3488.4739              3635.9482
 Red. masses --      1.1036                 1.1601                 1.0816
 Frc consts  --      6.4411                 8.3182                 8.4247
 IR Inten    --     14.7636                66.8271               135.7382

 - Thermochemistry -
 -------------------
 Temperature   298.150 Kelvin.  Pressure   1.00000 Atm.
 Atom     1 has atomic number  6 and mass  12.00000

 Molecular mass:   152.05858 amu.
 Principal axes and moments of inertia in atomic units:
                           1         2         3
     Eigenvalues --   999.917522202.212262796.61352
           X            0.99988   0.01419  -0.00563
           Y           -0.01427   0.99980  -0.01368
           Z            0.00544   0.01376   0.99989
 This molecule is an asymmetric top.
 Rotational symmetry number  1.
 Warning -- assumption of classical behavior for rotation
           may cause significant error
 Rotational temperatures (Kelvin)      0.08662     0.03933     0.03097
 Rotational constants (GHZ):           1.80489     0.81951     0.64533
 Zero-point vibrational energy     383881.6 (Joules/Mol)
                                   91.74990 (Kcal/Mol)
 Warning -- explicit consideration of  15 degrees of freedom as
           vibrations may cause significant error
 Vibrational temperatures:     75.71   135.88   152.22   220.93   270.14
          (Kelvin)            342.25   348.03   437.01   520.52   568.02
                              630.97   740.44   797.12   843.11   890.46
                              927.07   985.29  1027.51  1084.45  1105.44
                             1232.20  1305.02  1332.33  1375.65  1392.08
                             1473.63  1517.43  1602.18  1616.03  1736.64
                             1788.37  1872.00  1885.68  1971.58  1998.31
                             2073.67  2156.76  2171.37  2197.04  2208.49
                             2392.45  2747.89  3213.86  4388.00  4409.52
                             4441.59  4447.76  4511.77  4528.36  5019.14
                             5231.32

 Zero-point correction=                           0.146213 (Hartree/Particle)
 Thermal correction to Energy=                    0.156634
 Thermal correction to Enthalpy=                  0.157578
 Thermal correction to Gibbs Free Energy=         0.109929
 Sum of electronic and zero-point Energies=           -531.307155
 Sum of electronic and thermal Energies=              -531.296734
 Sum of electronic and thermal Enthalpies=            -531.295790
 Sum of electronic and thermal Free Energies=         -531.343439

                     E (Thermal)             CV                S
                      KCal/Mol        Cal/Mol-Kelvin    Cal/Mol-Kelvin
 Total                   98.289             38.568            100.287
 Electronic               0.000              0.000              0.000
 Translational            0.889              2.981             40.967
 Rotational               0.889              2.981             30.200
 Vibrational             96.512             32.607             29.120
 Vibration     1          0.596              1.977              4.716
 Vibration     2          0.603              1.953              3.566
 Vibration     3          0.605              1.945              3.345
 Vibration     4          0.619              1.899              2.628
 Vibration     5          0.632              1.857              2.250
 Vibration     6          0.656              1.783              1.819
 Vibration     7          0.658              1.776              1.789
 Vibration     8          0.695              1.667              1.396
 Vibration     9          0.736              1.551              1.114
 Vibration    10          0.762              1.481              0.982
 Vibration    11          0.799              1.386              0.831
 Vibration    12          0.870              1.218              0.623
 Vibration    13          0.909              1.131              0.536
 Vibration    14          0.943              1.062              0.474
 Vibration    15          0.979              0.992              0.418

 Optimization completed.
    -- Stationary point found.
 Normal termination of Gaussian 16 at Tue Dec  8 21:52:21 2020.

 ----------------------------------------------------------------------
 # B3LYP/6-311++G(d,p) empiricaldispersion=gd3bj scf=xqc pop=npa geom=c
 heck
 ----------------------------------------------------------------------

 ---------------------------------------
 CID_136952152_JID_1988_Energie_neutraal
 ---------------------------------------
 Structure from the checkpoint file:  "JID_1988.chk"
 Charge =  0 Multiplicity = 1

 SCF Done:  E(RB3LYP) =  -531.609056777     A.U. after   16 cycles
 Normal termination of Gaussian 16 at Tue Dec  8 21:53:57 2020.

 ----------------------------------------------------------------------
 # B3LYP/6-311++G(d,p) empiricaldispersion=gd3bj scf=xqc pop=npa geom=c
 heck
 ----------------------------------------------------------------------

 -------------------------------------
 CID_136952152_JID_1988_Energie_kation
 -------------------------------------
 Structure from the checkpoint file:  "JID_1988.chk"
 Charge =  1 Multiplicity = 2

 SCF Done:  E(UB3LYP) =  -531.262418150     A.U. after   29 cycles
 Normal termination of Gaussian 16 at Tue Dec  8 21:58:07 2020.
 Gaussian 16:  ES64L-G16RevA.03 25-Dec-2016

 ----------------------------------------------------------------------
 # B3LYP/6-311++G(d,p) empiricaldispersion=gd3bj scf=xqc pop=npa geom=c
 heck
 ----------------------------------------------------------------------

 ------------------------------------
 CID_136952152_JID_1988_Energie_anion
 ------------------------------------
 Structure from the checkpoint file:  "JID_1988.chk"
 Charge = -1 Multiplicity = 2

                         Standard orientation:
 ---------------------------------------------------------------------
 Center     Atomic      Atomic             Coordinates (Angstroms)
 Number     Number       Type             X           Y           Z
 ---------------------------------------------------------------------
      1          6           0       -1.669828   -1.320605    1.328392
      2          6           0       -1.153219   -1.168588   -0.111661
      3          6           0       -2.062998   -0.239366   -0.962544
      4          6           0       -2.216905    1.106266   -0.407686
      5          6           0       -2.315819    2.209934    0.074708
      6          6           0        0.273417   -0.712833   -0.131590
      7          7           0        1.257494   -1.480075   -0.480457
      8          8           0        2.426825   -0.677148   -0.327931
      9          6           0        2.085794    0.582219    0.108251
     10          8           0        2.850940    1.489384    0.308542
     11          7           0        0.705197    0.531757    0.250849
     12          1           0       -1.688396   -0.356578    1.845437
     13          1           0       -1.033083   -2.007114    1.893252
     14          1           0       -2.689514   -1.719783    1.320855
     15          1           0       -1.151644   -2.149994   -0.596783
     16          1           0       -1.665683   -0.175287   -1.983080
     17          1           0       -3.050874   -0.710954   -1.038375
     18          1           0       -2.441933    3.189398    0.478603
     19          1           0        0.117525    1.328503    0.455239
 ---------------------------------------------------------------------

 SCF Done:  E(UB3LYP) =  -531.601972767     A.U. after   33 cycles
 SCF Done:  E(UB3LYP) =  -531.601972768     a.u. after    1 cycles

 The electronic state is 2-A.
 Alpha  occ. eigenvalues --  -19.11432 -19.02512 -14.29001 -14.27906 -10.24548
 Alpha  occ. eigenvalues --  -10.17538 -10.11787 -10.11060 -10.09196 -10.07752
 Alpha  occ. eigenvalues --  -10.07491  -1.07038  -0.96452  -0.88397  -0.78706
 Alpha  occ. eigenvalues --   -0.73536  -0.67064  -0.61342  -0.57893  -0.56877
 Alpha  occ. eigenvalues --   -0.52301  -0.47226  -0.44332  -0.41800  -0.40271
 Alpha  occ. eigenvalues --   -0.38154  -0.36906  -0.35637  -0.33613  -0.32805
 Alpha  occ. eigenvalues --   -0.29451  -0.28352  -0.28037  -0.27304  -0.26220
 Alpha  occ. eigenvalues --   -0.25928  -0.20536  -0.19403  -0.18868  -0.17044
 Alpha  occ. eigenvalues --    0.04151
 Alpha virt. eigenvalues --    0.06580   0.07917   0.08092   0.08574   0.09610
 Alpha virt. eigenvalues --    0.10420   0.11116   0.11173   0.11954   0.12296
 Alpha virt. eigenvalues --    0.12943   0.14113   0.14581   0.14775   0.15777

  Beta  occ. eigenvalues --  -19.11429 -19.02509 -14.28978 -14.27902 -10.24547
  Beta  occ. eigenvalues --  -10.17538 -10.11773 -10.11001 -10.09200 -10.07699
  Beta  occ. eigenvalues --  -10.07437  -1.07030  -0.96446  -0.88371  -0.78687
  Beta  occ. eigenvalues --   -0.73482  -0.67014  -0.61244  -0.57853  -0.56839
  Beta  occ. eigenvalues --   -0.52246  -0.47193  -0.44231  -0.41779  -0.40217
  Beta  occ. eigenvalues --   -0.38086  -0.36895  -0.35577  -0.33566  -0.32760
  Beta  occ. eigenvalues --   -0.29420  -0.28321  -0.27984  -0.27244  -0.26199
  Beta  occ. eigenvalues --   -0.25900  -0.20518  -0.19330  -0.18826  -0.17029
  Beta virt. eigenvalues --    0.06884   0.07817   0.08280   0.08572   0.09115
  Beta virt. eigenvalues --    0.10369   0.11025   0.11239   0.11623   0.12222
  Beta virt. eigenvalues --    0.12720   0.13216   0.14342   0.14616   0.15111

 Mulliken charges and spin densities:
               1          2
     1  C    1.503169  -2.156799
     2  C   -3.119768   3.926331
     3  C    3.248357  -3.621790
     4  C    5.908388  -4.506469
     5  C   -6.759168   5.090646
     6  C    2.366052  -2.729480
     7  N   -0.363898   0.076705
     8  O    0.065521  -0.022629
     9  C    0.349778  -0.258059
    10  O   -0.340950  -0.008043
    11  N   -0.300691   0.007266
    12  H   -0.038415   0.195304
    13  H   -0.035847   0.179136
    14  H   -0.740758   0.932637
    15  H   -0.439981   0.698982
    16  H   -0.184312   0.355261
    17  H   -0.887522   1.124590
    18  H   -1.517389   1.679559
    19  H    0.287436   0.036849
 Sum of Mulliken charges =  -1.00000   1.00000

 Dipole moment (field-independent basis, Debye):
    X=              5.9456    Y=             -0.1123    Z=              0.6492  Tot=              5.9820
 Quadrupole moment (field-independent basis, Debye-Ang):
   XX=           -139.8340   YY=           -115.1925   ZZ=            -91.4668
   XY=             -3.6457   XZ=             -0.4948   YZ=             -2.4446

 Summary of Natural Population Analysis:

                                       Natural Population
                Natural  -----------------------------------------------
    Atom  No    Charge         Core      Valence    Rydberg      Total
 -----------------------------------------------------------------------
      C    1   -0.28260      0.99964     2.27646    0.00649     3.28260
      C    2   -0.12752      0.99956     2.11548    0.01247     3.12752
      C    3   -0.22920      0.99955     2.21734    0.01231     3.22920
      C    4   -0.00747      0.99938     1.99823    0.00987     3.00747
      C    5   -0.11902      0.99925     2.11557    0.00419     3.11902
      C    6    0.20465      0.99960     1.77711    0.01864     2.79535
      N    7   -0.08968      0.99965     2.57841    0.01162     3.58968
      O    8   -0.19583      0.99987     3.18856    0.00740     4.19583
      C    9    0.44639      0.99974     1.52827    0.02560     2.55361
      O   10   -0.30761      0.99986     3.30162    0.00612     4.30761
      N   11   -0.31808      0.99962     2.81109    0.00738     3.81808
      H   12    0.10314      0.00000     0.39548    0.00138     0.39686
      H   13    0.10382      0.00000     0.39511    0.00107     0.39618
      H   14    0.11111      0.00000     0.38577    0.00312     0.38889
      H   15    0.11971      0.00000     0.37726    0.00304     0.38029
      H   16    0.11836      0.00000     0.37960    0.00204     0.38164
      H   17    0.12874      0.00000     0.36348    0.00778     0.37126
      H   18    0.11682      0.00000     0.37981    0.00338     0.38318
      H   19    0.22428      0.00000     0.27316    0.00257     0.27572
 =======================================================================
   * Total *   -0.00000     10.99572    28.85781    0.14647    40.00000

 Normal termination of Gaussian 16 at Tue Dec  8 22:02:56 2020.
