 Gaussian 16, Revision A.03,

 -----------------------------------------------------------
 # opt freq B3LYP/6-31G(d) empiricaldispersion=gd3bj scf=xqc
 -----------------------------------------------------------

 -------------------------------
 CID_150728863_JID_7917_neutraal
 -------------------------------
 Symbolic Z-matrix:
 Charge =  0 Multiplicity = 1

 SCF Done:  E(RB3LYP) =  -736.425996636     A.U. after   17 cycles
 SCF Done:  E(RB3LYP) =  -736.434110081     A.U. after   16 cycles
 SCF Done:  E(RB3LYP) =  -736.435115650     A.U. after   13 cycles
 SCF Done:  E(RB3LYP) =  -736.436157971     A.U. after   13 cycles
 SCF Done:  E(RB3LYP) =  -736.436429916     A.U. after   13 cycles
 SCF Done:  E(RB3LYP) =  -736.436436871     A.U. after   13 cycles
 SCF Done:  E(RB3LYP) =  -736.436559286     A.U. after   12 cycles
 SCF Done:  E(RB3LYP) =  -736.436582426     A.U. after   12 cycles
 SCF Done:  E(RB3LYP) =  -736.436594046     A.U. after   11 cycles
 SCF Done:  E(RB3LYP) =  -736.436598394     A.U. after   10 cycles
 SCF Done:  E(RB3LYP) =  -736.436600745     A.U. after   10 cycles
 SCF Done:  E(RB3LYP) =  -736.436601169     A.U. after    8 cycles
 Optimization completed.
    -- Stationary point found.

 1\1\GINC-NODE300\FOpt\RB3LYP\6-31G(d)\C12H9N5\VSC10255\11-Dec-2020\0\\
 # opt freq B3LYP/6-31G(d) empiricaldispersion=gd3bj scf=xqc\\CID_15072
 8863_JID_7917_neutraal\\0,1\C,0.9587541959,-1.3500244677,-0.2716322579
 \C,2.1384120901,-0.6237629758,-0.3025685134\C,2.152936621,0.790488277,
 -0.1836971508\C,0.9491198151,1.4796108806,-0.0091642776\C,-0.234510675
 4,0.7430080013,0.0327288137\C,-0.2609585317,-0.6744158469,-0.103402749
 1\C,-1.637543044,-1.0775247465,-0.0241290064\C,-2.3819963374,0.0596469
 546,0.1496289872\N,-1.5419613012,1.1597809152,0.185662022\C,3.42242486

 Normal termination of Gaussian 16 at Fri Dec 11 12:57:51 2020.

 --------------------------------------------------------------------
 #N Geom=AllCheck Guess=TCheck SCRF=Check GenChk RB3LYP/6-31G(d) Freq
 --------------------------------------------------------------------

 Structure from the checkpoint file:  "JID_7917.chk"
 -------------------------------
 CID_150728863_JID_7917_neutraal
 -------------------------------
 Charge =  0 Multiplicity = 1

 SCF Done:  E(RB3LYP) =  -736.436601169     A.U. after    1 cycles

  Exact polarizability: 236.506  16.144 159.800 -12.110  12.083  80.177
 Approx polarizability: 377.787  38.233 296.623 -37.490  24.329 141.539

                      1                      2                      3
                      A                      A                      A
 Frequencies --     38.1246                61.3037                70.5716
 Red. masses --      6.5940                 8.0146                 5.2955
 Frc consts  --      0.0056                 0.0177                 0.0155
 IR Inten    --      0.9251                 0.3001                 0.6050

                      4                      5                      6
                      A                      A                      A
 Frequencies --    102.8382               131.4982               195.9549
 Red. masses --      5.8132                 7.6839                 6.4079
 Frc consts  --      0.0362                 0.0783                 0.1450
 IR Inten    --      2.5716                 0.2096                 3.0689

                      7                      8                      9
                      A                      A                      A
 Frequencies --    249.5072               252.6933               268.6818
 Red. masses --      4.8045                 6.7781                 6.8831
 Frc consts  --      0.1762                 0.2550                 0.2928
 IR Inten    --      1.8779                 0.9946                 2.5849

                     10                     11                     12
                      A                      A                      A
 Frequencies --    327.1225               343.3246               392.3629
 Red. masses --      4.9126                 2.3717                 1.9515
 Frc consts  --      0.3097                 0.1647                 0.1770
 IR Inten    --      6.2702                52.1464                30.3763

                     13                     14                     15
                      A                      A                      A
 Frequencies --    433.3079               445.2322               449.1383
 Red. masses --      4.0024                 1.4918                 2.7072
 Frc consts  --      0.4428                 0.1742                 0.3218
 IR Inten    --      2.9441                55.2011                30.0697

                     16                     17                     18
                      A                      A                      A
 Frequencies --    481.8752               506.1764               545.1956
 Red. masses --      4.8214                13.2301                 8.4757
 Frc consts  --      0.6596                 1.9972                 1.4843
 IR Inten    --      4.6980                11.3472                 1.2263

                     19                     20                     21
                      A                      A                      A
 Frequencies --    593.1528               616.4480               630.3272
 Red. masses --      6.3952                 2.8453                 2.9766
 Frc consts  --      1.3257                 0.6371                 0.6968
 IR Inten    --      1.2586                 2.1472                 2.4918

                     22                     23                     24
                      A                      A                      A
 Frequencies --    652.9809               678.1396               694.9693
 Red. masses --      3.6488                 1.7181                 6.2998
 Frc consts  --      0.9166                 0.4655                 1.7927
 IR Inten    --      9.7989                27.6746                 4.1791

                     25                     26                     27
                      A                      A                      A
 Frequencies --    721.6043               726.0593               764.4781
 Red. masses --      2.6676                 1.4227                 7.4076
 Frc consts  --      0.8184                 0.4419                 2.5507
 IR Inten    --     21.8258                29.0914                 6.1110

                     28                     29                     30
                      A                      A                      A
 Frequencies --    782.2854               800.3711               832.1650
 Red. masses --      2.9877                 4.9122                 1.2779
 Frc consts  --      1.0773                 1.8540                 0.5214
 IR Inten    --      2.9067                 5.5695                27.8630

                     31                     32                     33
                      A                      A                      A
 Frequencies --    839.5657               853.8053               870.3962
 Red. masses --      1.3364                 1.4620                 1.5170
 Frc consts  --      0.5550                 0.6279                 0.6771
 IR Inten    --      1.9655                15.4329                 9.7852

                     34                     35                     36
                      A                      A                      A
 Frequencies --    904.4746               916.7016               931.4958
 Red. masses --      6.0177                 4.0899                 4.3819
 Frc consts  --      2.9005                 2.0250                 2.2401
 IR Inten    --     15.9525                12.4085                 8.7930

                     37                     38                     39
                      A                      A                      A
 Frequencies --    954.5569              1030.7821              1099.6452
 Red. masses --      1.2684                 2.2317                 1.5556
 Frc consts  --      0.6809                 1.3971                 1.1083
 IR Inten    --      0.2228                 4.9393                 8.0144

                     40                     41                     42
                      A                      A                      A
 Frequencies --   1106.9171              1112.0188              1124.7763
 Red. masses --      1.6630                 1.4878                 1.4165
 Frc consts  --      1.2005                 1.0840                 1.0558
 IR Inten    --     41.1031                 7.2625                16.0946

                     43                     44                     45
                      A                      A                      A
 Frequencies --   1164.5885              1176.0485              1231.5500
 Red. masses --      1.5241                 3.4265                 1.8361
 Frc consts  --      1.2179                 2.7922                 1.6408
 IR Inten    --      0.0877                 4.4528                 1.4003

                     46                     47                     48
                      A                      A                      A
 Frequencies --   1242.4011              1264.4030              1304.5676
 Red. masses --      2.1038                 1.7945                 2.1677
 Frc consts  --      1.9133                 1.6903                 2.1736
 IR Inten    --      8.0564                 8.1717                 5.2831

                     49                     50                     51
                      A                      A                      A
 Frequencies --   1347.8589              1361.5380              1370.1890
 Red. masses --      3.3940                 3.8481                 6.0267
 Frc consts  --      3.6329                 4.2029                 6.6664
 IR Inten    --     30.8274                13.3405                19.6546

                     52                     53                     54
                      A                      A                      A
 Frequencies --   1389.9115              1437.1250              1449.5927
 Red. masses --      2.3483                 3.3547                 3.5967
 Frc consts  --      2.6729                 4.0822                 4.4530
 IR Inten    --     30.0254                12.2761                 7.3206

                     55                     56                     57
                      A                      A                      A
 Frequencies --   1497.0478              1509.5628              1520.7121
 Red. masses --      3.1527                 5.5925                 3.5357
 Frc consts  --      4.1630                 7.5086                 4.8174
 IR Inten    --     23.4140                20.9464                37.0130

                     58                     59                     60
                      A                      A                      A
 Frequencies --   1551.4237              1571.2041              1616.1390
 Red. masses --      4.5492                 3.3705                 5.7219
 Frc consts  --      6.4512                 4.9023                 8.8054
 IR Inten    --     12.9216                19.9807                14.5544

                     61                     62                     63
                      A                      A                      A
 Frequencies --   1624.6376              1684.9015              2276.7582
 Red. masses --      5.6104                 6.4090                13.9877
 Frc consts  --      8.7248                10.7199                42.7199
 IR Inten    --     17.3144                14.8917               559.6186

                     64                     65                     66
                      A                      A                      A
 Frequencies --   3187.6696              3192.9582              3205.2547
 Red. masses --      1.0868                 1.0906                 1.0946
 Frc consts  --      6.5067                 6.5508                 6.6260
 IR Inten    --      9.0231                11.4848                16.6910

                     67                     68                     69
                      A                      A                      A
 Frequencies --   3259.6942              3260.5784              3279.6841
 Red. masses --      1.0898                 1.0917                 1.1035
 Frc consts  --      6.8225                 6.8380                 6.9935
 IR Inten    --      2.8698                 2.6224                 7.0441

                     70                     71                     72
                      A                      A                      A
 Frequencies --   3290.0160              3668.7957              3673.8943
 Red. masses --      1.1016                 1.0805                 1.0800
 Frc consts  --      7.0254                 8.5688                 8.5889
 IR Inten    --      2.6084                99.8329                54.8207

 - Thermochemistry -
 -------------------
 Temperature   298.150 Kelvin.  Pressure   1.00000 Atm.
 Atom     1 has atomic number  6 and mass  12.00000

 Molecular mass:   223.08580 amu.
 Principal axes and moments of inertia in atomic units:
                           1         2         3
     Eigenvalues --  1847.673945845.910847132.44677
           X            0.99991   0.01286  -0.00240
           Y           -0.01278   0.99951   0.02849
           Z            0.00276  -0.02846   0.99959
 This molecule is an asymmetric top.
 Rotational symmetry number  1.
 Warning -- assumption of classical behavior for rotation
           may cause significant error
 Rotational temperatures (Kelvin)      0.04688     0.01482     0.01214
 Rotational constants (GHZ):           0.97676     0.30872     0.25303
 Zero-point vibrational energy     515253.9 (Joules/Mol)
                                  123.14865 (Kcal/Mol)
 Warning -- explicit consideration of  20 degrees of freedom as
           vibrations may cause significant error
 Vibrational temperatures:     54.85    88.20   101.54   147.96   189.20
          (Kelvin)            281.94   358.99   363.57   386.57   470.66
                              493.97   564.52   623.43   640.59   646.21
                              693.31   728.27   784.41   853.41   886.93
                              906.90   939.49   975.69   999.91  1038.23
                             1044.64  1099.91  1125.53  1151.56  1197.30
                             1207.95  1228.44  1252.31  1301.34  1318.93
                             1340.21  1373.39  1483.07  1582.14  1592.61
                             1599.95  1618.30  1675.58  1692.07  1771.93
                             1787.54  1819.19  1876.98  1939.27  1958.95
                             1971.40  1999.77  2067.70  2085.64  2153.92
                             2171.92  2187.97  2232.15  2260.61  2325.26
                             2337.49  2424.20  3275.75  4586.35  4593.95
                             4611.65  4689.97  4691.25  4718.73  4733.60
                             5278.58  5285.91

 Zero-point correction=                           0.196250 (Hartree/Particle)
 Thermal correction to Energy=                    0.209523
 Thermal correction to Enthalpy=                  0.210467
 Thermal correction to Gibbs Free Energy=         0.155575
 Sum of electronic and zero-point Energies=           -736.240351
 Sum of electronic and thermal Energies=              -736.227078
 Sum of electronic and thermal Enthalpies=            -736.226134
 Sum of electronic and thermal Free Energies=         -736.281026

                     E (Thermal)             CV                S
                      KCal/Mol        Cal/Mol-Kelvin    Cal/Mol-Kelvin
 Total                  131.478             52.455            115.531
 Electronic               0.000              0.000              0.000
 Translational            0.889              2.981             42.110
 Rotational               0.889              2.981             32.710
 Vibrational            129.700             46.493             40.711
 Vibration     1          0.594              1.982              5.354
 Vibration     2          0.597              1.973              4.415
 Vibration     3          0.598              1.968              4.137
 Vibration     4          0.605              1.947              3.400
 Vibration     5          0.612              1.922              2.924
 Vibration     6          0.636              1.846              2.171
 Vibration     7          0.662              1.764              1.734
 Vibration     8          0.664              1.758              1.712
 Vibration     9          0.673              1.731              1.605
 Vibration    10          0.711              1.621              1.274
 Vibration    11          0.722              1.589              1.197
 Vibration    12          0.760              1.487              0.991
 Vibration    13          0.794              1.398              0.848
 Vibration    14          0.805              1.371              0.810
 Vibration    15          0.808              1.363              0.798
 Vibration    16          0.838              1.290              0.705
 Vibration    17          0.861              1.236              0.643
 Vibration    18          0.900              1.150              0.554
 Vibration    19          0.951              1.046              0.462
 Vibration    20          0.976              0.997              0.422

                           ! Non-Optimized Parameters !

 1\1\GINC-NODE300\Freq\RB3LYP\6-31G(d)\C12H9N5\VSC10255\11-Dec-2020\0\\
 #N Geom=AllCheck Guess=TCheck SCRF=Check GenChk RB3LYP/6-31G(d) Freq\\
 CID_150728863_JID_7917_neutraal\\0,1\C,0.9587541959,-1.3500244677,-0.2
 716322579\C,2.1384120901,-0.6237629758,-0.3025685134\C,2.152936621,0.7
 90488277,-0.1836971508\C,0.9491198151,1.4796108806,-0.0091642776\C,-0.
 2345106754,0.7430080013,0.0327288137\C,-0.2609585317,-0.6744158469,-0.
 1034027491\C,-1.637543044,-1.0775247465,-0.0241290064\C,-2.3819963374,
 0.0596469546,0.1496289872\N,-1.5419613012,1.1597809152,0.185662022\C,3

 Normal termination of Gaussian 16 at Fri Dec 11 13:06:04 2020.

 ----------------------------------------------------------------------
 # B3LYP/6-311++G(d,p) empiricaldispersion=gd3bj scf=xqc pop=npa geom=c
 heck
 ----------------------------------------------------------------------

 ---------------------------------------
 CID_150728863_JID_7917_Energie_neutraal
 ---------------------------------------
 Structure from the checkpoint file:  "JID_7917.chk"
 Charge =  0 Multiplicity = 1

 SCF Done:  E(RB3LYP) =  -736.630563701     A.U. after   17 cycles
 Normal termination of Gaussian 16 at Fri Dec 11 13:09:20 2020.

 ----------------------------------------------------------------------
 # B3LYP/6-311++G(d,p) empiricaldispersion=gd3bj scf=xqc pop=npa geom=c
 heck
 ----------------------------------------------------------------------

 -------------------------------------
 CID_150728863_JID_7917_Energie_kation
 -------------------------------------
 Structure from the checkpoint file:  "JID_7917.chk"
 Charge =  1 Multiplicity = 2

 SCF Done:  E(UB3LYP) =  -736.378525217     A.U. after   26 cycles
 Normal termination of Gaussian 16 at Fri Dec 11 13:16:05 2020.
 Gaussian 16:  ES64L-G16RevA.03 25-Dec-2016

 ------------------------------------
 CID_150728863_JID_7917_Energie_anion
 ------------------------------------
 Structure from the checkpoint file:  "JID_7917.chk"
 Charge = -1 Multiplicity = 2

                         Standard orientation:
 ---------------------------------------------------------------------
 Center     Atomic      Atomic             Coordinates (Angstroms)
 Number     Number       Type             X           Y           Z
 ---------------------------------------------------------------------
      1          6           0        1.606608    1.188062    1.139191
      2          6           0        0.284394    0.789138    1.026882
      3          6           0       -0.096824   -0.337916    0.253013
      4          6           0        0.884532   -1.087186   -0.402778
      5          6           0        2.215105   -0.688246   -0.277320
      6          6           0        2.605717    0.451385    0.482276
      7          6           0        4.034134    0.558439    0.373053
      8          6           0        4.457260   -0.476297   -0.419315
      9          7           0        3.365708   -1.231560   -0.813452
     10          6           0       -1.507081   -0.741114    0.163225
     11          6           0       -2.620144    0.081835    0.011016
     12          7           0       -3.749127   -0.700885    0.025314
     13          6           0       -3.392387   -2.023659    0.161326
     14          6           0       -2.020558   -2.076777    0.243708
     15          7           0       -2.822491    1.458455   -0.159054
     16          7           0       -1.908723    2.156549   -0.620053
     17          7           0       -1.166381    2.933365   -1.003077
     18          1           0        1.867423    2.055980    1.738416
     19          1           0       -0.485424    1.333438    1.565370
     20          1           0        0.603779   -1.944352   -1.008274
     21          1           0        4.664378    1.310597    0.826419
     22          1           0        5.452911   -0.745844   -0.742157
     23          1           0        3.403470   -2.044056   -1.407895
     24          1           0       -4.679873   -0.337678   -0.111325
     25          1           0       -4.140465   -2.800285    0.210262
     26          1           0       -1.423633   -2.965254    0.395779
 ---------------------------------------------------------------------

 SCF Done:  E(UB3LYP) =  -736.624793412     A.U. after   33 cycles
 SCF Done:  E(UB3LYP) =  -736.626731620     a.u. after    9 cycles

 The electronic state is 2-A.
 Alpha  occ. eigenvalues --  -14.34573 -14.25633 -14.25406 -14.25243 -14.25120
 Alpha  occ. eigenvalues --  -10.13186 -10.10691 -10.10429 -10.09247 -10.07840
 Alpha  occ. eigenvalues --  -10.07023 -10.06969 -10.06783 -10.06570 -10.06374
 Alpha  occ. eigenvalues --  -10.06293 -10.05823  -1.01784  -0.89300  -0.88114
 Alpha  occ. eigenvalues --   -0.85301  -0.74650  -0.69660  -0.67452  -0.64846
 Alpha  occ. eigenvalues --   -0.63560  -0.61674  -0.53793  -0.52425  -0.50682
 Alpha  occ. eigenvalues --   -0.49164  -0.48403  -0.45484  -0.43533  -0.39486
 Alpha  occ. eigenvalues --   -0.39392  -0.37623  -0.37179  -0.36446  -0.34595
 Alpha  occ. eigenvalues --   -0.33224  -0.33136  -0.32505  -0.32374  -0.32061
 Alpha  occ. eigenvalues --   -0.31095  -0.29861  -0.28785  -0.26134  -0.24165
 Alpha  occ. eigenvalues --   -0.23812  -0.20450  -0.18808  -0.18207  -0.15500
 Alpha  occ. eigenvalues --   -0.12361  -0.11252  -0.08459   0.03861
 Alpha virt. eigenvalues --    0.05137   0.06355   0.07551   0.07661   0.08441
 Alpha virt. eigenvalues --    0.08774   0.09562   0.10411   0.10533   0.11424
 Alpha virt. eigenvalues --    0.11750   0.12635   0.13166   0.13408   0.14199

  Beta  occ. eigenvalues --  -14.34294 -14.25595 -14.25371 -14.25174 -14.24869
  Beta  occ. eigenvalues --  -10.13126 -10.10659 -10.10435 -10.09241 -10.07828
  Beta  occ. eigenvalues --  -10.07009 -10.06956 -10.06757 -10.06573 -10.06383
  Beta  occ. eigenvalues --  -10.06296 -10.05817  -1.01250  -0.89188  -0.88064
  Beta  occ. eigenvalues --   -0.85083  -0.74618  -0.69619  -0.67412  -0.64730
  Beta  occ. eigenvalues --   -0.63514  -0.61600  -0.53694  -0.52347  -0.50593
  Beta  occ. eigenvalues --   -0.49117  -0.48362  -0.45410  -0.43456  -0.39242
  Beta  occ. eigenvalues --   -0.38587  -0.37341  -0.37010  -0.36339  -0.34518
  Beta  occ. eigenvalues --   -0.33179  -0.32759  -0.32362  -0.32160  -0.31946
  Beta  occ. eigenvalues --   -0.30913  -0.29732  -0.28754  -0.26112  -0.24127
  Beta  occ. eigenvalues --   -0.23745  -0.19855  -0.18740  -0.18054  -0.15464
  Beta  occ. eigenvalues --   -0.12298  -0.11179  -0.08367
  Beta virt. eigenvalues --    0.06482   0.06805   0.07407   0.08075   0.08585
  Beta virt. eigenvalues --    0.08823   0.09700   0.09924   0.10595   0.10958
  Beta virt. eigenvalues --    0.11468   0.11814   0.12642   0.13185   0.13387

 Mulliken charges and spin densities:
               1          2
     1  C   -0.574264  -0.031904
     2  C   -0.362219  -0.033375
     3  C    1.085299  -0.481758
     4  C   -0.702610   0.172375
     5  C   -0.893167  -0.370335
     6  C    1.476053   0.105268
     7  C    0.396622  -0.703367
     8  C   -0.194261   0.222051
     9  N   -0.170523   0.092319
    10  C    1.111540  -1.256104
    11  C   -1.166082   0.782696
    12  N   -0.061799  -0.065774
    13  C   -0.172150  -0.417685
    14  C    0.621214  -0.254342
    15  N    0.071333  -0.144710
    16  N    0.351258   0.177966
    17  N   -0.522666   0.223749
    18  H    0.118075   0.013084
    19  H    0.096259   0.067874
    20  H   -0.004627   0.173053
    21  H    0.121694  -0.000755
    22  H   -0.659628   0.827567
    23  H   -0.317668   0.620725
    24  H   -0.268150   0.603057
    25  H   -0.389163   0.532434
    26  H    0.009630   0.145891
 Sum of Mulliken charges =  -1.00000   1.00000

 Dipole moment (field-independent basis, Debye):
    X=              0.7942    Y=              0.9736    Z=              2.1072  Tot=              2.4533
 Quadrupole moment (field-independent basis, Debye-Ang):
   XX=           -178.2472   YY=           -135.4269   ZZ=           -118.8907
   XY=             11.6302   XZ=              6.9253   YZ=              2.0868

 Summary of Natural Population Analysis:

                                       Natural Population
                Natural  -----------------------------------------------
    Atom  No    Charge         Core      Valence    Rydberg      Total
 -----------------------------------------------------------------------
      C    1   -0.08889      0.99953     2.08166    0.00769     3.08889
      C    2   -0.10559      0.99954     2.09798    0.00807     3.10559
      C    3   -0.02193      0.99951     2.01354    0.00887     3.02193
      C    4   -0.10789      0.99949     2.10012    0.00827     3.10789
      C    5    0.07911      0.99948     1.90985    0.01156     2.92089
      C    6   -0.05118      0.99949     2.04222    0.00947     3.05118
      C    7   -0.14850      0.99953     2.13998    0.00899     3.14850
      C    8    0.00022      0.99957     1.98709    0.01312     2.99978
      N    9   -0.27307      0.99966     2.76305    0.01036     3.77307
      C   10   -0.08348      0.99946     2.07371    0.01031     3.08348
      C   11    0.16479      0.99941     1.82011    0.01569     2.83521
      N   12   -0.26617      0.99966     2.75636    0.01015     3.76617
      C   13   -0.03086      0.99958     2.01713    0.01415     3.03086
      C   14   -0.13310      0.99954     2.12572    0.00784     3.13310
      N   15   -0.20421      0.99963     2.69088    0.01369     3.70421
      N   16    0.14285      0.99970     2.34243    0.01502     3.35715
      N   17    0.01109      0.99982     2.47666    0.01244     3.48891
      H   18    0.09692      0.00000     0.40194    0.00115     0.40308
      H   19    0.10082      0.00000     0.39794    0.00123     0.39918
      H   20    0.10314      0.00000     0.39545    0.00141     0.39686
      H   21    0.10324      0.00000     0.39609    0.00067     0.39676
      H   22    0.09994      0.00000     0.39878    0.00128     0.40006
      H   23    0.20340      0.00000     0.28911    0.00749     0.29660
      H   24    0.20578      0.00000     0.28742    0.00681     0.29422
      H   25    0.09905      0.00000     0.39979    0.00116     0.40095
      H   26    0.10451      0.00000     0.39467    0.00082     0.39549
 =======================================================================
   * Total *   -0.00000     16.99261    40.79969    0.20770    58.00000

 Normal termination of Gaussian 16 at Fri Dec 11 14:22:13 2020.
