 Gaussian 16, Revision A.03,

 -----------------------------------------------------------
 # opt freq B3LYP/6-31G(d) empiricaldispersion=gd3bj scf=xqc
 -----------------------------------------------------------

 ------------------------------
 CID_54988212_JID_8483_neutraal
 ------------------------------
 Symbolic Z-matrix:
 Charge =  0 Multiplicity = 1

 SCF Done:  E(RB3LYP) =  -859.903173607     A.U. after   16 cycles
 SCF Done:  E(RB3LYP) =  -859.930414851     A.U. after   13 cycles
 SCF Done:  E(RB3LYP) =  -859.926990296     A.U. after   13 cycles
 SCF Done:  E(RB3LYP) =  -859.929320358     A.U. after   14 cycles
 SCF Done:  E(RB3LYP) =  -859.932956504     A.U. after   11 cycles
 SCF Done:  E(RB3LYP) =  -859.933755445     A.U. after   12 cycles
 SCF Done:  E(RB3LYP) =  -859.934470800     A.U. after   12 cycles
 SCF Done:  E(RB3LYP) =  -859.934834766     A.U. after   11 cycles
 SCF Done:  E(RB3LYP) =  -859.934989087     A.U. after   12 cycles
 SCF Done:  E(RB3LYP) =  -859.935043812     A.U. after   12 cycles
 SCF Done:  E(RB3LYP) =  -859.935639075     A.U. after   10 cycles
 SCF Done:  E(RB3LYP) =  -859.935645632     A.U. after    8 cycles
 SCF Done:  E(RB3LYP) =  -859.935656558     A.U. after   11 cycles
 SCF Done:  E(RB3LYP) =  -859.935658823     A.U. after   10 cycles
 SCF Done:  E(RB3LYP) =  -859.935659222     A.U. after    9 cycles
 SCF Done:  E(RB3LYP) =  -859.935659336     A.U. after    8 cycles
 Optimization completed.
    -- Stationary point found.
 Normal termination of Gaussian 16 at Fri Dec 11 21:26:58 2020.

 --------------------------------------------------------------------
 #N Geom=AllCheck Guess=TCheck SCRF=Check GenChk RB3LYP/6-31G(d) Freq
 --------------------------------------------------------------------

 Structure from the checkpoint file:  "JID_8483.chk"
 ------------------------------
 CID_54988212_JID_8483_neutraal
 ------------------------------
 Charge =  0 Multiplicity = 1

 SCF Done:  E(RB3LYP) =  -859.935659336     A.U. after    1 cycles

  Exact polarizability: 169.154  -2.644 144.156 -10.740   5.299 127.535
 Approx polarizability: 233.777  -2.883 206.896 -12.916  12.931 194.350

                      1                      2                      3
                      A                      A                      A
 Frequencies --     25.8695                28.9764                38.8599
 Red. masses --      4.7668                 5.3697                 4.8551
 Frc consts  --      0.0019                 0.0027                 0.0043
 IR Inten    --      4.3856                 0.0020                 1.3769

                      4                      5                      6
                      A                      A                      A
 Frequencies --     44.1784                75.3274                75.7514
 Red. masses --      5.3104                 3.3966                 5.1073
 Frc consts  --      0.0061                 0.0114                 0.0173
 IR Inten    --      2.6953                 0.3054                 1.1612

                      7                      8                      9
                      A                      A                      A
 Frequencies --     85.4789                94.8190               101.4614
 Red. masses --      3.2751                 3.9874                 3.6915
 Frc consts  --      0.0141                 0.0211                 0.0224
 IR Inten    --      0.5287                 0.9538                 4.7503

                     10                     11                     12
                      A                      A                      A
 Frequencies --    140.9761               151.0310               174.4874
 Red. masses --      3.3001                 3.2500                 5.1442
 Frc consts  --      0.0386                 0.0437                 0.0923
 IR Inten    --      3.8984                 2.8217                 9.4484

                     13                     14                     15
                      A                      A                      A
 Frequencies --    186.1141               200.6348               231.3077
 Red. masses --      2.4196                 3.6522                 1.1573
 Frc consts  --      0.0494                 0.0866                 0.0365
 IR Inten    --      0.4021                 2.4274                 1.4176

                     16                     17                     18
                      A                      A                      A
 Frequencies --    247.5924               253.9802               275.1763
 Red. masses --      1.1798                 1.4115                 2.4479
 Frc consts  --      0.0426                 0.0536                 0.1092
 IR Inten    --      0.8232                 0.7435                 1.0664

                     19                     20                     21
                      A                      A                      A
 Frequencies --    304.8222               330.2447               360.0725
 Red. masses --      2.6727                 3.3961                 2.6030
 Frc consts  --      0.1463                 0.2182                 0.1988
 IR Inten    --      3.7423                 3.9333                 4.4427

                     22                     23                     24
                      A                      A                      A
 Frequencies --    372.2246               380.7859               392.7849
 Red. masses --      3.0374                 2.5310                 3.1943
 Frc consts  --      0.2480                 0.2162                 0.2904
 IR Inten    --      1.6433                 0.6630                 7.5283

                     25                     26                     27
                      A                      A                      A
 Frequencies --    457.5842               473.4776               497.2872
 Red. masses --      3.2428                 2.9579                 1.9051
 Frc consts  --      0.4000                 0.3907                 0.2776
 IR Inten    --      1.2443                 2.4768                14.2528

                     28                     29                     30
                      A                      A                      A
 Frequencies --    514.3428               524.2247               554.4234
 Red. masses --      2.9160                 3.6640                 2.8753
 Frc consts  --      0.4545                 0.5933                 0.5207
 IR Inten    --      6.9607                27.4651                30.4477

                     31                     32                     33
                      A                      A                      A
 Frequencies --    578.3211               610.1524               620.9501
 Red. masses --      3.3531                 3.3031                 3.5271
 Frc consts  --      0.6607                 0.7245                 0.8013
 IR Inten    --      2.2939                21.4151                17.8861

                     34                     35                     36
                      A                      A                      A
 Frequencies --    678.1273               716.2190               780.9192
 Red. masses --      1.5502                 3.4703                 5.1803
 Frc consts  --      0.4200                 1.0488                 1.8613
 IR Inten    --     82.3317                20.0720                12.1695

                     37                     38                     39
                      A                      A                      A
 Frequencies --    806.0258               813.4325               829.8383
 Red. masses --      1.6526                 2.2624                 2.4252
 Frc consts  --      0.6326                 0.8820                 0.9840
 IR Inten    --      1.7682                 4.3977                 4.4903

                     40                     41                     42
                      A                      A                      A
 Frequencies --    843.0699               898.2870               934.5483
 Red. masses --      2.8424                 2.4555                 2.4924
 Frc consts  --      1.1903                 1.1674                 1.2825
 IR Inten    --      9.8629                 0.9104                 3.3350

                     43                     44                     45
                      A                      A                      A
 Frequencies --    950.7428               963.8442               964.6776
 Red. masses --      1.1630                 1.9122                 1.8521
 Frc consts  --      0.6194                 1.0466                 1.0155
 IR Inten    --      1.7765                 1.5684                 6.5943

                     46                     47                     48
                      A                      A                      A
 Frequencies --    978.7831              1010.2933              1034.1277
 Red. masses --      2.1851                 2.7722                 2.0438
 Frc consts  --      1.2334                 1.6672                 1.2878
 IR Inten    --      7.3349                 8.1470                17.5719

                     49                     50                     51
                      A                      A                      A
 Frequencies --   1042.8379              1058.5333              1088.0219
 Red. masses --      2.3587                 3.0653                 2.2387
 Frc consts  --      1.5113                 2.0237                 1.5614
 IR Inten    --     36.7180                11.9195                42.8824

                     52                     53                     54
                      A                      A                      A
 Frequencies --   1133.0419              1151.2673              1166.3305
 Red. masses --      1.9124                 2.0909                 2.2720
 Frc consts  --      1.4465                 1.6328                 1.8210
 IR Inten    --     17.6848                12.1393                 6.1936

                     55                     56                     57
                      A                      A                      A
 Frequencies --   1172.8140              1180.2729              1197.7763
 Red. masses --      2.2857                 2.6276                 1.9607
 Frc consts  --      1.8524                 2.1566                 1.6573
 IR Inten    --     37.0340               363.5441                 2.4931

                     58                     59                     60
                      A                      A                      A
 Frequencies --   1229.3311              1245.1016              1252.1525
 Red. masses --      2.0451                 1.9439                 1.4670
 Frc consts  --      1.8210                 1.7756                 1.3552
 IR Inten    --      9.9778                46.0496                98.6987

                     61                     62                     63
                      A                      A                      A
 Frequencies --   1266.3087              1287.5217              1329.8661
 Red. masses --      1.3384                 1.5523                 1.4557
 Frc consts  --      1.2645                 1.5161                 1.5169
 IR Inten    --      4.8114                60.4203                 1.8305

                     64                     65                     66
                      A                      A                      A
 Frequencies --   1338.9284              1360.2277              1379.9050
 Red. masses --      1.5049                 1.2334                 1.3661
 Frc consts  --      1.5895                 1.3445                 1.5326
 IR Inten    --     13.9685                12.5277                20.5754

                     67                     68                     69
                      A                      A                      A
 Frequencies --   1385.3675              1392.7059              1410.9581
 Red. masses --      1.3038                 1.5363                 1.2592
 Frc consts  --      1.4743                 1.7557                 1.4770
 IR Inten    --     24.5395               169.9768                17.0315

                     70                     71                     72
                      A                      A                      A
 Frequencies --   1413.3163              1422.3566              1427.4837
 Red. masses --      1.3967                 1.2887                 1.2861
 Frc consts  --      1.6438                 1.5361                 1.5440
 IR Inten    --      6.8252                11.9748                49.4326

                     73                     74                     75
                      A                      A                      A
 Frequencies --   1438.0068              1441.3080              1449.3033
 Red. masses --      1.6961                 1.2888                 1.3391
 Frc consts  --      2.0665                 1.5774                 1.6572
 IR Inten    --     69.7166                21.8001                30.8258

                     76                     77                     78
                      A                      A                      A
 Frequencies --   1481.0662              1488.8813              1491.3453
 Red. masses --      1.0920                 1.0963                 1.4734
 Frc consts  --      1.4113                 1.4318                 1.9308
 IR Inten    --     16.4897                 8.5144                35.4779

                     79                     80                     81
                      A                      A                      A
 Frequencies --   1509.9324              1513.0839              1517.2733
 Red. masses --      1.0779                 1.0440                 1.0538
 Frc consts  --      1.4479                 1.4083                 1.4294
 IR Inten    --      8.4136                 0.6115                 3.8559

                     82                     83                     84
                      A                      A                      A
 Frequencies --   1525.9098              1532.0003              1535.0595
 Red. masses --      1.0533                 1.0752                 1.0694
 Frc consts  --      1.4450                 1.4868                 1.4847
 IR Inten    --     11.0611                 9.8142                 6.4021

                     85                     86                     87
                      A                      A                      A
 Frequencies --   1540.1662              1547.2531              1555.1490
 Red. masses --      1.1190                 1.0947                 1.0648
 Frc consts  --      1.5639                 1.5440                 1.5172
 IR Inten    --     22.6858                21.5727                14.1364

                     88                     89                     90
                      A                      A                      A
 Frequencies --   1744.0808              1840.6375              2367.0244
 Red. masses --      9.1536                 9.3236                12.5826
 Frc consts  --     16.4050                18.6110                41.5361
 IR Inten    --    260.5617               244.1920                11.4121

                     91                     92                     93
                      A                      A                      A
 Frequencies --   3047.9095              3053.5696              3055.5654
 Red. masses --      1.0601                 1.0384                 1.0661
 Frc consts  --      5.8021                 5.7047                 5.8646
 IR Inten    --     32.7668                21.4661                 9.0894

                     94                     95                     96
                      A                      A                      A
 Frequencies --   3060.4036              3063.4128              3065.9175
 Red. masses --      1.0381                 1.0629                 1.0424
 Frc consts  --      5.7284                 5.8767                 5.7730
 IR Inten    --     28.2460                 4.6950                27.6740

                     97                     98                     99
                      A                      A                      A
 Frequencies --   3072.8250              3089.3854              3098.5879
 Red. masses --      1.0702                 1.0914                 1.0799
 Frc consts  --      5.9539                 6.1373                 6.1088
 IR Inten    --     14.5329                 0.2410                48.9957

                    100                    101                    102
                      A                      A                      A
 Frequencies --   3110.8862              3112.8581              3113.2186
 Red. masses --      1.0962                 1.0999                 1.1011
 Frc consts  --      6.2506                 6.2796                 6.2880
 IR Inten    --      0.2616                 6.5511                34.7452

                    103                    104                    105
                      A                      A                      A
 Frequencies --   3117.7522              3124.8607              3137.8141
 Red. masses --      1.0849                 1.1027                 1.0961
 Frc consts  --      6.2134                 6.3443                 6.3584
 IR Inten    --      0.5592                35.7850                15.2334

                    106                    107                    108
                      A                      A                      A
 Frequencies --   3156.0216              3159.9513              3162.4865
 Red. masses --      1.0951                 1.1007                 1.0999
 Frc consts  --      6.4264                 6.4758                 6.4812
 IR Inten    --      6.6266                18.2059                 7.9454

                    109                    110                    111
                      A                      A                      A
 Frequencies --   3169.4672              3176.1091              3685.1998
 Red. masses --      1.0948                 1.1010                 1.0640
 Frc consts  --      6.4798                 6.5440                 8.5138
 IR Inten    --     11.9181                10.0111                54.4174

 - Thermochemistry -
 -------------------
 Temperature   298.150 Kelvin.  Pressure   1.00000 Atm.
 Atom     1 has atomic number  6 and mass  12.00000

 Molecular mass:   255.15829 amu.
 Principal axes and moments of inertia in atomic units:
                           1         2         3
     Eigenvalues --  3409.674725952.584876807.13635
           X            0.99970  -0.00728  -0.02354
           Y            0.00862   0.99832   0.05734
           Z            0.02308  -0.05752   0.99808
 This molecule is an asymmetric top.
 Rotational symmetry number  1.
 Warning -- assumption of classical behavior for rotation
           may cause significant error
 Rotational temperatures (Kelvin)      0.02540     0.01455     0.01272
 Rotational constants (GHZ):           0.52930     0.30319     0.26512
 Zero-point vibrational energy     880994.4 (Joules/Mol)
                                  210.56272 (Kcal/Mol)
 Warning -- explicit consideration of  32 degrees of freedom as
           vibrations may cause significant error
 Vibrational temperatures:     37.22    41.69    55.91    63.56   108.38
          (Kelvin)            108.99   122.99   136.42   145.98   202.83
                              217.30   251.05   267.78   288.67   332.80
                              356.23   365.42   395.92   438.57   475.15
                              518.06   535.55   547.87   565.13   658.36
                              681.23   715.49   740.02   754.24   797.69
                              832.08   877.87   893.41   975.67  1030.48
                             1123.57  1159.69  1170.35  1193.95  1212.99
                             1292.43  1344.61  1367.91  1386.76  1387.96
                             1408.25  1453.59  1487.88  1500.41  1522.99
                             1565.42  1630.19  1656.42  1678.09  1687.42
                             1698.15  1723.33  1768.73  1791.42  1801.57
                             1821.94  1852.46  1913.38  1926.42  1957.06
                             1985.38  1993.23  2003.79  2030.05  2033.45
                             2046.45  2053.83  2068.97  2073.72  2085.22
                             2130.92  2142.17  2145.71  2172.46  2176.99
                             2183.02  2195.44  2204.21  2208.61  2215.96
                             2226.15  2237.51  2509.34  2648.27  3405.62
                             4385.26  4393.41  4396.28  4403.24  4407.57
                             4411.17  4421.11  4444.94  4458.18  4475.87
                             4478.71  4479.23  4485.75  4495.98  4514.61
                             4540.81  4546.47  4550.11  4560.16  4569.71
                             5302.18

 Zero-point correction=                           0.335553 (Hartree/Particle)
 Thermal correction to Energy=                    0.355948
 Thermal correction to Enthalpy=                  0.356892
 Thermal correction to Gibbs Free Energy=         0.284813
 Sum of electronic and zero-point Energies=           -859.600106
 Sum of electronic and thermal Energies=              -859.579712
 Sum of electronic and thermal Enthalpies=            -859.578767
 Sum of electronic and thermal Free Energies=         -859.650847

                     E (Thermal)             CV                S
                      KCal/Mol        Cal/Mol-Kelvin    Cal/Mol-Kelvin
 Total                  223.361             73.590            151.704
 Electronic               0.000              0.000              0.000
 Translational            0.889              2.981             42.510
 Rotational               0.889              2.981             33.290
 Vibrational            221.583             67.628             75.903
 Vibration     1          0.593              1.985              6.123
 Vibration     2          0.593              1.984              5.898
 Vibration     3          0.594              1.981              5.316
 Vibration     4          0.595              1.980              5.062
 Vibration     5          0.599              1.965              4.009
 Vibration     6          0.599              1.965              3.998
 Vibration     7          0.601              1.959              3.761
 Vibration     8          0.603              1.953              3.558
 Vibration     9          0.604              1.948              3.426
 Vibration    10          0.615              1.912              2.791
 Vibration    11          0.618              1.902              2.659
 Vibration    12          0.627              1.874              2.387
 Vibration    13          0.632              1.859              2.266
 Vibration    14          0.638              1.839              2.127
 Vibration    15          0.653              1.793              1.869
 Vibration    16          0.661              1.767              1.748
 Vibration    17          0.665              1.756              1.703
 Vibration    18          0.677              1.719              1.563
 Vibration    19          0.696              1.665              1.390
 Vibration    20          0.713              1.615              1.259
 Vibration    21          0.735              1.555              1.122
 Vibration    22          0.744              1.529              1.071
 Vibration    23          0.751              1.511              1.036
 Vibration    24          0.760              1.486              0.990
 Vibration    25          0.816              1.344              0.773
 Vibration    26          0.830              1.309              0.728
 Vibration    27          0.853              1.256              0.665
 Vibration    28          0.869              1.218              0.623
 Vibration    29          0.879              1.196              0.600
 Vibration    30          0.910              1.130              0.535
 Vibration    31          0.935              1.078              0.488
 Vibration    32          0.969              1.010              0.433

 Optimization completed.
    -- Stationary point found.
 Normal termination of Gaussian 16 at Fri Dec 11 21:49:30 2020.

 ----------------------------------------------------------------------
 # B3LYP/6-311++G(d,p) empiricaldispersion=gd3bj scf=xqc pop=npa geom=c
 heck
 ----------------------------------------------------------------------

 --------------------------------------
 CID_54988212_JID_8483_Energie_neutraal
 --------------------------------------
 Structure from the checkpoint file:  "JID_8483.chk"
 Charge =  0 Multiplicity = 1

 SCF Done:  E(RB3LYP) =  -860.189962132     A.U. after   15 cycles
 Normal termination of Gaussian 16 at Fri Dec 11 21:59:31 2020.

 ----------------------------------------------------------------------
 # B3LYP/6-311++G(d,p) empiricaldispersion=gd3bj scf=xqc pop=npa geom=c
 heck
 ----------------------------------------------------------------------

 ------------------------------------
 CID_54988212_JID_8483_Energie_kation
 ------------------------------------
 Structure from the checkpoint file:  "JID_8483.chk"
 Charge =  1 Multiplicity = 2

 SCF Done:  E(UB3LYP) =  -859.885096982     A.U. after   24 cycles
 Normal termination of Gaussian 16 at Fri Dec 11 22:23:19 2020.
 Gaussian 16:  ES64L-G16RevA.03 25-Dec-2016

 ----------------------------------------------------------------------
 # B3LYP/6-311++G(d,p) empiricaldispersion=gd3bj scf=xqc pop=npa geom=c
 heck
 ----------------------------------------------------------------------

 -----------------------------------
 CID_54988212_JID_8483_Energie_anion
 -----------------------------------
 Structure from the checkpoint file:  "JID_8483.chk"
 Charge = -1 Multiplicity = 2

                         Standard orientation:
 ---------------------------------------------------------------------
 Center     Atomic      Atomic             Coordinates (Angstroms)
 Number     Number       Type             X           Y           Z
 ---------------------------------------------------------------------
      1          6           0        3.729502    1.182537   -1.515460
      2          6           0        3.367673   -0.117771   -0.803472
      3          7           0        1.909053   -0.335190   -0.761475
      4          6           0        1.518726   -1.739278   -0.751253
      5          6           0        1.751206   -2.483839    0.596368
      6          6           0        0.629349   -2.327356    1.521667
      7          7           0       -0.300896   -2.227192    2.208781
      8          6           0        1.241242    0.571026    0.115721
      9          8           0        1.884534    1.226986    0.932439
     10          7           0       -0.117632    0.685787   -0.028633
     11          6           0       -0.813293    0.317654   -1.259679
     12          6           0       -1.846139   -0.810249   -1.075396
     13          6           0       -3.265711   -0.321843   -0.874795
     14          8           0       -3.647885    0.827419   -0.927928
     15          8           0       -4.104360   -1.356554   -0.638580
     16          6           0       -0.859608    1.611061    0.872450
     17          6           0       -0.708264    1.252859    2.351996
     18          6           0       -0.511317    3.073911    0.573596
     19          1           0        3.321470    1.191432   -2.531777
     20          1           0        4.818446    1.286692   -1.576593
     21          1           0        3.335447    2.041267   -0.967884
     22          1           0        3.793682   -0.964194   -1.352128
     23          1           0        3.793035   -0.119351    0.207670
     24          1           0        0.473701   -1.853487   -1.036929
     25          1           0        2.110850   -2.245417   -1.518594
     26          1           0        1.878185   -3.556480    0.405736
     27          1           0        2.671276   -2.128016    1.071897
     28          1           0       -1.331095    1.203444   -1.644386
     29          1           0       -0.063948    0.035775   -1.998568
     30          1           0       -1.868740   -1.467765   -1.954269
     31          1           0       -1.587582   -1.444340   -0.220553
     32          1           0       -4.991891   -0.967746   -0.523102
     33          1           0       -1.907093    1.459545    0.604418
     34          1           0        0.308605    1.436297    2.701405
     35          1           0       -1.397575    1.871779    2.937644
     36          1           0       -0.953957    0.201849    2.525699
     37          1           0       -0.667559    3.304340   -0.486790
     38          1           0       -1.157636    3.737548    1.158670
     39          1           0        0.530198    3.277920    0.829807
 ---------------------------------------------------------------------

 SCF Done:  E(UB3LYP) =  -860.185494997     A.U. after   31 cycles

 The electronic state is 2-A.
 Alpha  occ. eigenvalues --  -19.08787 -19.03585 -18.99336 -14.24798 -14.23886
 Alpha  occ. eigenvalues --  -14.22011 -10.22576 -10.20129 -10.12652 -10.12274
 Alpha  occ. eigenvalues --  -10.12217 -10.12142 -10.11897 -10.10718 -10.10118
 Alpha  occ. eigenvalues --  -10.07081 -10.07026 -10.05980  -1.02993  -0.96027
 Alpha  occ. eigenvalues --   -0.94111  -0.85233  -0.83591  -0.81782  -0.70766
 Alpha  occ. eigenvalues --   -0.70499  -0.68583  -0.65433  -0.60246  -0.59541
 Alpha  occ. eigenvalues --   -0.57730  -0.55529  -0.51384  -0.51064  -0.43965
 Alpha  occ. eigenvalues --   -0.43506  -0.43113  -0.41942  -0.41032  -0.40750
 Alpha  occ. eigenvalues --   -0.39527  -0.38046  -0.36685  -0.35840  -0.35361
 Alpha  occ. eigenvalues --   -0.34470  -0.34121  -0.33641  -0.32863  -0.31414
 Alpha  occ. eigenvalues --   -0.30991  -0.30676  -0.30065  -0.29389  -0.28897
 Alpha  occ. eigenvalues --   -0.28164  -0.28019  -0.27513  -0.26526  -0.25982
 Alpha  occ. eigenvalues --   -0.25644  -0.25478  -0.24295  -0.24059  -0.23567
 Alpha  occ. eigenvalues --   -0.20556  -0.18283  -0.15746  -0.14704   0.03703
 Alpha virt. eigenvalues --    0.05369   0.06847   0.06956   0.07618   0.08184
 Alpha virt. eigenvalues --    0.08825   0.09077   0.09528   0.09721   0.10250
 Alpha virt. eigenvalues --    0.10940   0.11534   0.11668   0.12054   0.12354

  Beta  occ. eigenvalues --  -19.08753 -19.03570 -18.99335 -14.24795 -14.23888
  Beta  occ. eigenvalues --  -14.21993 -10.22556 -10.20127 -10.12608 -10.12238
  Beta  occ. eigenvalues --  -10.12208 -10.12135 -10.11895 -10.10696 -10.10093
  Beta  occ. eigenvalues --  -10.07080 -10.07016 -10.05979  -1.02936  -0.96023
  Beta  occ. eigenvalues --   -0.94065  -0.85224  -0.83575  -0.81749  -0.70735
  Beta  occ. eigenvalues --   -0.70432  -0.68561  -0.65398  -0.60208  -0.59518
  Beta  occ. eigenvalues --   -0.57655  -0.55498  -0.51341  -0.51006  -0.43930
  Beta  occ. eigenvalues --   -0.43464  -0.43075  -0.41890  -0.40990  -0.40723
  Beta  occ. eigenvalues --   -0.39488  -0.37991  -0.36667  -0.35783  -0.35332
  Beta  occ. eigenvalues --   -0.34448  -0.34100  -0.33600  -0.32830  -0.31364
  Beta  occ. eigenvalues --   -0.30975  -0.30640  -0.30041  -0.29370  -0.28875
  Beta  occ. eigenvalues --   -0.28133  -0.27997  -0.27486  -0.26508  -0.25965
  Beta  occ. eigenvalues --   -0.25623  -0.25450  -0.24245  -0.24014  -0.23533
  Beta  occ. eigenvalues --   -0.20527  -0.18275  -0.15732  -0.14686
  Beta virt. eigenvalues --    0.06166   0.06602   0.07216   0.07380   0.07914
  Beta virt. eigenvalues --    0.08485   0.09032   0.09345   0.09849   0.10129
  Beta virt. eigenvalues --    0.10407   0.11135   0.11621   0.11735   0.12249

 Mulliken charges and spin densities:
               1          2
     1  C   -0.082282  -0.366155
     2  C    0.211852  -0.319019
     3  N    0.057624   0.096843
     4  C    0.125990  -0.232253
     5  C    0.553531  -1.086404
     6  C    0.376532  -0.121663
     7  N   -0.355988   0.045159
     8  C    0.008863  -0.647780
     9  O   -0.248632   0.010908
    10  N    0.276685  -0.018455
    11  C   -0.463240   0.069680
    12  C    0.223846  -0.434854
    13  C    0.434428  -0.645884
    14  O   -0.237898  -0.000845
    15  O   -0.132535   0.032758
    16  C    0.095556  -0.118075
    17  C   -0.624476   0.064123
    18  C   -0.361365  -0.086263
    19  H    0.051183   0.078816
    20  H    0.004697   0.138649
    21  H    0.139300   0.027125
    22  H   -0.364871   0.537253
    23  H    0.148452   0.023560
    24  H    0.052016   0.083503
    25  H   -1.102313   1.343972
    26  H   -0.828292   1.090609
    27  H    0.150696   0.014177
    28  H    0.139098   0.057405
    29  H    0.190025   0.036368
    30  H   -0.603868   0.834452
    31  H    0.235167   0.017768
    32  H   -0.157045   0.437974
    33  H    0.221755  -0.030181
    34  H    0.204029  -0.011714
    35  H    0.120203   0.018065
    36  H    0.114425   0.041917
    37  H    0.090762   0.027020
    38  H    0.144020  -0.000586
    39  H    0.192068  -0.007977
 Sum of Mulliken charges =  -1.00000   1.00000

 Dipole moment (field-independent basis, Debye):
    X=             -0.8307    Y=              7.6574    Z=              2.4530  Tot=              8.0835
 Quadrupole moment (field-independent basis, Debye-Ang):
   XX=           -178.4003   YY=           -169.7820   ZZ=           -152.4062
   XY=              7.9314   XZ=              3.7375   YZ=             -9.1934

 Summary of Natural Population Analysis:

                                       Natural Population
                Natural  -----------------------------------------------
    Atom  No    Charge         Core      Valence    Rydberg      Total
 -----------------------------------------------------------------------
      C    1   -0.28908      0.99966     2.28423    0.00520     3.28908
      C    2   -0.08547      0.99962     2.07462    0.01123     3.08547
      N    3   -0.28910      0.99967     2.77590    0.01353     3.78910
      C    4   -0.07923      0.99958     2.06432    0.01533     3.07923
      C    5   -0.25833      0.99953     2.24891    0.00989     3.25833
      C    6    0.16665      0.99965     1.81772    0.01598     2.83335
      N    7   -0.18930      0.99978     2.67911    0.01040     3.68930
      C    8    0.42272      0.99963     1.55297    0.02468     2.57728
      O    9   -0.33887      0.99988     3.33451    0.00449     4.33887
      N   10   -0.26574      0.99962     2.75360    0.01253     3.76574
      C   11   -0.08999      0.99959     2.07925    0.01114     3.08999
      C   12   -0.25820      0.99956     2.24960    0.00903     3.25820
      C   13    0.41256      0.99972     1.56257    0.02515     2.58744
      O   14   -0.31253      0.99987     3.30672    0.00594     4.31253
      O   15   -0.34005      0.99987     3.33417    0.00601     4.34005
      C   16   -0.00740      0.99960     1.99700    0.01080     3.00740
      C   17   -0.29409      0.99964     2.28948    0.00497     3.29409
      C   18   -0.29215      0.99964     2.28769    0.00482     3.29215
      H   19    0.09810      0.00000     0.40093    0.00097     0.40190
      H   20    0.09763      0.00000     0.40174    0.00063     0.40237
      H   21    0.10509      0.00000     0.39395    0.00096     0.39491
      H   22    0.09785      0.00000     0.40033    0.00182     0.40215
      H   23    0.09455      0.00000     0.40419    0.00126     0.40545
      H   24    0.10096      0.00000     0.39581    0.00323     0.39904
      H   25    0.11088      0.00000     0.38082    0.00830     0.38912
      H   26    0.13034      0.00000     0.36584    0.00381     0.36966
      H   27    0.12198      0.00000     0.37649    0.00153     0.37802
      H   28    0.10509      0.00000     0.39372    0.00119     0.39491
      H   29    0.11219      0.00000     0.38635    0.00146     0.38781
      H   30    0.12248      0.00000     0.37559    0.00193     0.37752
      H   31    0.12612      0.00000     0.37185    0.00203     0.37388
      H   32    0.24132      0.00000     0.25224    0.00643     0.25868
      H   33    0.10318      0.00000     0.39481    0.00201     0.39682
      H   34    0.10996      0.00000     0.38918    0.00085     0.39004
      H   35    0.09375      0.00000     0.40552    0.00073     0.40625
      H   36    0.11297      0.00000     0.38602    0.00101     0.38703
      H   37    0.09744      0.00000     0.40178    0.00077     0.40256
      H   38    0.09626      0.00000     0.40298    0.00076     0.40374
      H   39    0.10945      0.00000     0.38952    0.00103     0.39055
 =======================================================================
   * Total *    0.00000     17.99412    50.76206    0.24382    69.00000

 Normal termination of Gaussian 16 at Fri Dec 11 22:52:54 2020.
