 Gaussian 16, Revision A.03,

 -----------------------------------------------------------
 # opt freq B3LYP/6-31G(d) empiricaldispersion=gd3bj scf=xqc
 -----------------------------------------------------------

 -------------------------------
 CID_115202361_JID_8725_neutraal
 -------------------------------
 Symbolic Z-matrix:
 Charge =  0 Multiplicity = 1

 SCF Done:  E(RB3LYP) =  -821.599153380     A.U. after   15 cycles
 SCF Done:  E(RB3LYP) =  -821.607168452     A.U. after   12 cycles
 SCF Done:  E(RB3LYP) =  -821.607991183     A.U. after   12 cycles
 SCF Done:  E(RB3LYP) =  -821.608071048     A.U. after   11 cycles
 SCF Done:  E(RB3LYP) =  -821.608112552     A.U. after   11 cycles
 SCF Done:  E(RB3LYP) =  -821.608260058     A.U. after   11 cycles
 SCF Done:  E(RB3LYP) =  -821.608314376     A.U. after   11 cycles
 SCF Done:  E(RB3LYP) =  -821.608330295     A.U. after   10 cycles
 SCF Done:  E(RB3LYP) =  -821.608336837     A.U. after    9 cycles
 SCF Done:  E(RB3LYP) =  -821.608344027     A.U. after    9 cycles
 SCF Done:  E(RB3LYP) =  -821.608346906     A.U. after    9 cycles
 SCF Done:  E(RB3LYP) =  -821.608347478     A.U. after    9 cycles
 SCF Done:  E(RB3LYP) =  -821.608348251     A.U. after    8 cycles
 SCF Done:  E(RB3LYP) =  -821.608348400     A.U. after    8 cycles
 SCF Done:  E(RB3LYP) =  -821.608348435     A.U. after    6 cycles
 Optimization completed.
    -- Stationary point found.
 Normal termination of Gaussian 16 at Fri Dec 11 22:11:06 2020.

 --------------------------------------------------------------------
 #N Geom=AllCheck Guess=TCheck SCRF=Check GenChk RB3LYP/6-31G(d) Freq
 --------------------------------------------------------------------

 Structure from the checkpoint file:  "JID_8725.chk"
 -------------------------------
 CID_115202361_JID_8725_neutraal
 -------------------------------
 Charge =  0 Multiplicity = 1

 SCF Done:  E(RB3LYP) =  -821.608348435     A.U. after    1 cycles

  Exact polarizability: 250.051   3.530 157.904   8.988  -0.880  94.005
 Approx polarizability: 326.690  -4.625 258.209  19.025  -2.018 143.572

                      1                      2                      3
                      A                      A                      A
 Frequencies --     22.6198                26.6321                38.1390
 Red. masses --      4.4478                 3.5799                 3.2941
 Frc consts  --      0.0013                 0.0015                 0.0028
 IR Inten    --      1.4280                 1.1319                 0.5130

                      4                      5                      6
                      A                      A                      A
 Frequencies --     58.8808                90.3997               111.8188
 Red. masses --      3.7091                 4.1765                 2.9565
 Frc consts  --      0.0076                 0.0201                 0.0218
 IR Inten    --      2.0843                 0.5509                 2.6095

                      7                      8                      9
                      A                      A                      A
 Frequencies --    132.0470               140.4701               156.3243
 Red. masses --      2.1449                 1.3993                 4.0593
 Frc consts  --      0.0220                 0.0163                 0.0584
 IR Inten    --      3.0745                 2.3793                 6.0028

                     10                     11                     12
                      A                      A                      A
 Frequencies --    192.7127               215.3894               220.8340
 Red. masses --      2.4426                 2.8830                 2.0979
 Frc consts  --      0.0534                 0.0788                 0.0603
 IR Inten    --      2.6343                20.0334                15.5051

                     13                     14                     15
                      A                      A                      A
 Frequencies --    238.5603               249.5301               282.1277
 Red. masses --      1.5713                 1.9280                 1.8578
 Frc consts  --      0.0527                 0.0707                 0.0871
 IR Inten    --     12.8709                15.6087                21.7555

                     16                     17                     18
                      A                      A                      A
 Frequencies --    292.8698               296.2605               341.9197
 Red. masses --      2.7591                 3.9851                 4.7821
 Frc consts  --      0.1394                 0.2061                 0.3294
 IR Inten    --     11.9713                 6.1961                17.1289

                     19                     20                     21
                      A                      A                      A
 Frequencies --    365.8622               396.0439               415.5900
 Red. masses --      4.5060                 2.7924                 2.4441
 Frc consts  --      0.3554                 0.2581                 0.2487
 IR Inten    --      6.2796                11.6061                32.6674

                     22                     23                     24
                      A                      A                      A
 Frequencies --    432.4081               438.7436               472.6085
 Red. masses --      1.9169                 3.1289                 2.1601
 Frc consts  --      0.2112                 0.3549                 0.2843
 IR Inten    --      3.5508                 2.5438                77.0155

                     25                     26                     27
                      A                      A                      A
 Frequencies --    549.1256               581.7748               609.3360
 Red. masses --      4.4324                 2.8796                 3.1289
 Frc consts  --      0.7875                 0.5742                 0.6845
 IR Inten    --     25.2931                23.2164                 2.8494

                     28                     29                     30
                      A                      A                      A
 Frequencies --    631.6770               635.3980               708.7086
 Red. masses --      4.8273                 3.4419                 5.3555
 Frc consts  --      1.1349                 0.8187                 1.5848
 IR Inten    --      9.6680                 3.7245                 0.9797

                     31                     32                     33
                      A                      A                      A
 Frequencies --    714.4343               735.4969               749.1202
 Red. masses --      6.4021                10.9897                 5.7956
 Frc consts  --      1.9253                 3.5026                 1.9163
 IR Inten    --     11.9213                13.7097                 1.8563

                     34                     35                     36
                      A                      A                      A
 Frequencies --    785.1872               798.8205               829.0105
 Red. masses --      3.8348                 1.4828                 3.0296
 Frc consts  --      1.3930                 0.5575                 1.2267
 IR Inten    --      2.3694                29.4493                 4.4439

                     37                     38                     39
                      A                      A                      A
 Frequencies --    839.4794               865.6617               875.0801
 Red. masses --      1.5828                 1.9390                 1.3443
 Frc consts  --      0.6572                 0.8561                 0.6065
 IR Inten    --     25.9472                24.5228                63.2061

                     40                     41                     42
                      A                      A                      A
 Frequencies --    899.8096               904.0199               942.5265
 Red. masses --      1.3847                 1.6549                 1.2757
 Frc consts  --      0.6606                 0.7968                 0.6677
 IR Inten    --      6.7341                18.3327                 7.6172

                     43                     44                     45
                      A                      A                      A
 Frequencies --    948.7106               974.2783               994.8664
 Red. masses --      3.9437                 2.9145                 1.7980
 Frc consts  --      2.0913                 1.6300                 1.0485
 IR Inten    --     29.7664                44.6172                 3.7011

                     46                     47                     48
                      A                      A                      A
 Frequencies --   1021.0877              1055.9031              1064.8515
 Red. masses --      1.8130                 1.8142                 3.7254
 Frc consts  --      1.1137                 1.1917                 2.4889
 IR Inten    --      8.7510                 5.1125                93.4617

                     49                     50                     51
                      A                      A                      A
 Frequencies --   1107.2748              1124.9437              1140.6150
 Red. masses --      3.9400                 2.7241                 1.9366
 Frc consts  --      2.8461                 2.0311                 1.4844
 IR Inten    --     14.3093                 4.8255                 5.3335

                     52                     53                     54
                      A                      A                      A
 Frequencies --   1159.9362              1169.6937              1178.1304
 Red. masses --      1.9364                 1.2841                 1.4124
 Frc consts  --      1.5350                 1.0351                 1.1550
 IR Inten    --     21.9478                 0.2506                20.8485

                     55                     56                     57
                      A                      A                      A
 Frequencies --   1193.0138              1204.2558              1220.7797
 Red. masses --      1.8916                 1.3996                 2.1930
 Frc consts  --      1.5863                 1.1958                 1.9256
 IR Inten    --      2.7831                 5.3988               152.3242

                     58                     59                     60
                      A                      A                      A
 Frequencies --   1269.2438              1279.2562              1289.8514
 Red. masses --      1.6465                 1.2434                 1.2235
 Frc consts  --      1.5628                 1.1989                 1.1994
 IR Inten    --      1.5283                16.1752                75.1045

                     61                     62                     63
                      A                      A                      A
 Frequencies --   1312.7385              1346.3284              1353.7000
 Red. masses --      2.9605                 1.5692                 1.8815
 Frc consts  --      3.0059                 1.6758                 2.0315
 IR Inten    --     54.5426                30.8474                48.6238

                     64                     65                     66
                      A                      A                      A
 Frequencies --   1375.4926              1392.6130              1410.3477
 Red. masses --      1.1880                 1.5380                 1.3626
 Frc consts  --      1.3243                 1.7573                 1.5968
 IR Inten    --      7.8209                 1.1216                13.6735

                     67                     68                     69
                      A                      A                      A
 Frequencies --   1411.2057              1415.1073              1435.2006
 Red. masses --      6.1775                 1.9394                 2.0051
 Frc consts  --      7.2485                 2.2882                 2.4334
 IR Inten    --    120.2172                 4.3193                 9.1137

                     70                     71                     72
                      A                      A                      A
 Frequencies --   1447.7638              1454.2372              1471.1969
 Red. masses --      1.3142                 1.4100                 1.2968
 Frc consts  --      1.6229                 1.7568                 1.6538
 IR Inten    --     15.7391                 5.7534                 0.3757

                     73                     74                     75
                      A                      A                      A
 Frequencies --   1489.0181              1503.6988              1519.2407
 Red. masses --      2.0262                 1.1186                 1.0425
 Frc consts  --      2.6469                 1.4902                 1.4177
 IR Inten    --     13.9901                 5.1039                 9.1284

                     76                     77                     78
                      A                      A                      A
 Frequencies --   1523.5336              1528.0751              1536.3364
 Red. masses --      1.1097                 1.1055                 1.3674
 Frc consts  --      1.5175                 1.5209                 1.9016
 IR Inten    --     16.1572                 7.0539                86.1883

                     79                     80                     81
                      A                      A                      A
 Frequencies --   1541.7627              1545.2982              1549.4409
 Red. masses --      1.0907                 1.1854                 1.4864
 Frc consts  --      1.5276                 1.6678                 2.1025
 IR Inten    --     16.2060               107.0416                 4.4132

                     82                     83                     84
                      A                      A                      A
 Frequencies --   1570.0121              1670.3381              1701.6328
 Red. masses --      2.1665                 6.6010                 1.5350
 Frc consts  --      3.1464                10.8510                 2.6188
 IR Inten    --    297.0556                42.2148                63.4449

                     85                     86                     87
                      A                      A                      A
 Frequencies --   1705.6052              1892.9396              2961.9949
 Red. masses --      2.5242                12.2013                 1.0722
 Frc consts  --      4.3265                25.7590                 5.5423
 IR Inten    --     79.3871               838.8941                85.7809

                     88                     89                     90
                      A                      A                      A
 Frequencies --   2972.0473              3020.8409              3038.3574
 Red. masses --      1.0730                 1.0797                 1.0659
 Frc consts  --      5.5844                 5.8052                 5.7973
 IR Inten    --     63.6034                18.4162                41.4526

                     91                     92                     93
                      A                      A                      A
 Frequencies --   3046.6100              3050.8198              3075.6823
 Red. masses --      1.0377                 1.0355                 1.0893
 Frc consts  --      5.6746                 5.6784                 6.0714
 IR Inten    --     22.3259                50.2259                57.5015

                     94                     95                     96
                      A                      A                      A
 Frequencies --   3077.8077              3086.3412              3104.8867
 Red. masses --      1.0905                 1.0982                 1.1008
 Frc consts  --      6.0865                 6.1632                 6.2527
 IR Inten    --      3.1170                50.8426                52.2196

                     97                     98                     99
                      A                      A                      A
 Frequencies --   3106.1839              3117.3325              3175.6643
 Red. masses --      1.1062                 1.1022                 1.1000
 Frc consts  --      6.2885                 6.3107                 6.5359
 IR Inten    --     25.6564                36.9406                 0.5126

                    100                    101                    102
                      A                      A                      A
 Frequencies --   3208.6162              3212.6973              3233.2421
 Red. masses --      1.0895                 1.0915                 1.0917
 Frc consts  --      6.6085                 6.6379                 6.7240
 IR Inten    --     13.7001                 2.6352                 8.7207

                    103                    104                    105
                      A                      A                      A
 Frequencies --   3476.0851              3558.1828              3586.7368
 Red. masses --      1.0503                 1.0918                 1.0751
 Frc consts  --      7.4771                 8.1444                 8.1492
 IR Inten    --      2.9202                 0.2705                12.5387

 - Thermochemistry -
 -------------------
 Temperature   298.150 Kelvin.  Pressure   1.00000 Atm.
 Atom     1 has atomic number  6 and mass  12.00000

 Molecular mass:   249.14773 amu.
 Principal axes and moments of inertia in atomic units:
                           1         2         3
     Eigenvalues --  1494.88317********************
           X            0.99994   0.01083  -0.00341
           Y           -0.01084   0.99994  -0.00107
           Z            0.00339   0.00110   0.99999
 This molecule is an asymmetric top.
 Rotational symmetry number  1.
 Warning -- assumption of classical behavior for rotation
           may cause significant error
 Rotational temperatures (Kelvin)      0.05794     0.00708     0.00648
 Rotational constants (GHZ):           1.20728     0.14750     0.13498
 Zero-point vibrational energy     830765.5 (Joules/Mol)
                                  198.55772 (Kcal/Mol)
 Warning -- explicit consideration of  27 degrees of freedom as
           vibrations may cause significant error
 Vibrational temperatures:     32.54    38.32    54.87    84.72   130.07
          (Kelvin)            160.88   189.99   202.11   224.92   277.27
                              309.90   317.73   343.24   359.02   405.92
                              421.37   426.25   491.95   526.39   569.82
                              597.94   622.14   631.25   679.98   790.07
                              837.04   876.70   908.84   914.20  1019.67
                             1027.91  1058.22  1077.82  1129.71  1149.32
                             1192.76  1207.82  1245.49  1259.05  1294.63
                             1300.68  1356.09  1364.98  1401.77  1431.39
                             1469.12  1519.21  1532.08  1593.12  1618.54
                             1641.09  1668.89  1682.93  1695.07  1716.48
                             1732.66  1756.43  1826.16  1840.56  1855.81
                             1888.74  1937.07  1947.67  1979.03  2003.66
                             2029.18  2030.41  2036.02  2064.93  2083.01
                             2092.32  2116.72  2142.36  2163.49  2185.85
                             2192.03  2198.56  2210.45  2218.25  2223.34
                             2229.30  2258.90  2403.24  2448.27  2453.99
                             2723.52  4261.65  4276.11  4346.32  4371.52
                             4383.39  4389.45  4425.22  4428.28  4440.56
                             4467.24  4469.11  4485.15  4569.07  4616.48
                             4622.35  4651.91  5001.31  5119.43  5160.51

 Zero-point correction=                           0.316422 (Hartree/Particle)
 Thermal correction to Energy=                    0.334538
 Thermal correction to Enthalpy=                  0.335482
 Thermal correction to Gibbs Free Energy=         0.268597
 Sum of electronic and zero-point Energies=           -821.291927
 Sum of electronic and thermal Energies=              -821.273811
 Sum of electronic and thermal Enthalpies=            -821.272867
 Sum of electronic and thermal Free Energies=         -821.339752

                     E (Thermal)             CV                S
                      KCal/Mol        Cal/Mol-Kelvin    Cal/Mol-Kelvin
 Total                  209.925             67.891            140.771
 Electronic               0.000              0.000              0.000
 Translational            0.889              2.981             42.439
 Rotational               0.889              2.981             33.858
 Vibrational            208.148             61.930             64.474
 Vibration     1          0.593              1.985              6.390
 Vibration     2          0.593              1.984              6.066
 Vibration     3          0.594              1.982              5.353
 Vibration     4          0.596              1.974              4.494
 Vibration     5          0.602              1.956              3.651
 Vibration     6          0.607              1.940              3.237
 Vibration     7          0.612              1.921              2.916
 Vibration     8          0.615              1.913              2.797
 Vibration     9          0.620              1.896              2.594
 Vibration    10          0.635              1.850              2.202
 Vibration    11          0.645              1.818              1.998
 Vibration    12          0.648              1.809              1.952
 Vibration    13          0.657              1.782              1.814
 Vibration    14          0.662              1.764              1.734
 Vibration    15          0.681              1.707              1.521
 Vibration    16          0.688              1.687              1.457
 Vibration    17          0.690              1.681              1.438
 Vibration    18          0.721              1.592              1.203
 Vibration    19          0.739              1.542              1.097
 Vibration    20          0.763              1.479              0.977
 Vibration    21          0.779              1.436              0.907
 Vibration    22          0.793              1.400              0.851
 Vibration    23          0.799              1.386              0.831
 Vibration    24          0.829              1.311              0.730
 Vibration    25          0.904              1.142              0.546
 Vibration    26          0.939              1.071              0.482
 Vibration    27          0.968              1.012              0.434

                           ! Non-Optimized Parameters !
 Normal termination of Gaussian 16 at Fri Dec 11 22:24:35 2020.

 ----------------------------------------------------------------------
 # B3LYP/6-311++G(d,p) empiricaldispersion=gd3bj scf=xqc pop=npa geom=c
 heck
 ----------------------------------------------------------------------

 ---------------------------------------
 CID_115202361_JID_8725_Energie_neutraal
 ---------------------------------------
 Structure from the checkpoint file:  "JID_8725.chk"
 Charge =  0 Multiplicity = 1

 SCF Done:  E(RB3LYP) =  -821.844510984     A.U. after   15 cycles
 Normal termination of Gaussian 16 at Fri Dec 11 22:30:01 2020.

 ----------------------------------------------------------------------
 # B3LYP/6-311++G(d,p) empiricaldispersion=gd3bj scf=xqc pop=npa geom=c
 heck
 ----------------------------------------------------------------------

 -------------------------------------
 CID_115202361_JID_8725_Energie_kation
 -------------------------------------
 Structure from the checkpoint file:  "JID_8725.chk"
 Charge =  1 Multiplicity = 2

 SCF Done:  E(UB3LYP) =  -821.584747169     A.U. after   23 cycles
 Normal termination of Gaussian 16 at Fri Dec 11 22:41:21 2020.
 Gaussian 16:  ES64L-G16RevA.03 25-Dec-2016

 ----------------------------------------------------------------------
 # B3LYP/6-311++G(d,p) empiricaldispersion=gd3bj scf=xqc pop=npa geom=c
 heck
 ----------------------------------------------------------------------

 ------------------------------------
 CID_115202361_JID_8725_Energie_anion
 ------------------------------------
 Structure from the checkpoint file:  "JID_8725.chk"
 Charge = -1 Multiplicity = 2

                         Standard orientation:
 ---------------------------------------------------------------------
 Center     Atomic      Atomic             Coordinates (Angstroms)
 Number     Number       Type             X           Y           Z
 ---------------------------------------------------------------------
      1          6           0       -3.940025   -1.749472    0.964294
      2          6           0       -3.761664   -0.947275   -0.333352
      3          6           0       -5.019927   -0.127085   -0.688691
      4          6           0       -5.515108    0.909097    0.326720
      5          7           0       -4.613602    2.065631    0.436876
      6          6           0       -2.477993   -0.102229   -0.304949
      7          7           0       -1.305479   -0.941513   -0.496969
      8          6           0       -0.022268   -0.426798   -0.329711
      9          6           0        1.058082   -1.330255   -0.183790
     10          6           0        2.318757   -0.794242   -0.061959
     11          6           0        2.568310    0.581259   -0.077629
     12          6           0        1.523834    1.477819   -0.218237
     13          6           0        0.225915    0.960078   -0.339224
     14          7           0        3.951119    0.717625    0.072113
     15          6           0        4.534679   -0.529513    0.177005
     16          8           0        5.698201   -0.815874    0.316227
     17          8           0        3.507847   -1.472339    0.092922
     18          6           0        4.702577    1.951224    0.114025
     19          1           0       -4.033227   -1.086402    1.832089
     20          1           0       -3.090893   -2.415730    1.157673
     21          1           0       -4.839636   -2.373308    0.920425
     22          1           0       -3.629458   -1.662569   -1.157998
     23          1           0       -4.848455    0.390908   -1.640098
     24          1           0       -5.838285   -0.840867   -0.855936
     25          1           0       -6.477018    1.287626   -0.038059
     26          1           0       -5.726596    0.417055    1.291971
     27          1           0       -5.100086    2.829572    0.902651
     28          1           0       -3.824498    1.836651    1.037262
     29          1           0       -2.515070    0.647781   -1.102444
     30          1           0       -2.404913    0.452408    0.646994
     31          1           0       -1.410748   -1.881485   -0.137601
     32          1           0        0.900128   -2.403837   -0.176579
     33          1           0        1.690874    2.549989   -0.231121
     34          1           0       -0.600304    1.651420   -0.450811
     35          1           0        5.754649    1.691508    0.238977
     36          1           0        4.572838    2.513961   -0.817352
     37          1           0        4.377041    2.573167    0.955614
 ---------------------------------------------------------------------

 SCF Done:  E(UB3LYP) =  -821.837973525     A.U. after   33 cycles
 SCF Done:  E(UB3LYP) =  -821.837973525     a.u. after    1 cycles

 The electronic state is 2-A.
 Alpha  occ. eigenvalues --  -19.10976 -19.02827 -14.29388 -14.23798 -14.20160
 Alpha  occ. eigenvalues --  -10.24789 -10.15881 -10.13736 -10.13681 -10.13374
 Alpha  occ. eigenvalues --  -10.11289 -10.10381 -10.10022 -10.09910 -10.09316
 Alpha  occ. eigenvalues --  -10.08906 -10.07681 -10.07394  -1.05699  -0.96244
 Alpha  occ. eigenvalues --   -0.89012  -0.85583  -0.79266  -0.77083  -0.71775
 Alpha  occ. eigenvalues --   -0.68204  -0.67288  -0.64890  -0.62411  -0.59976
 Alpha  occ. eigenvalues --   -0.55872  -0.54448  -0.53243  -0.52189  -0.47336
 Alpha  occ. eigenvalues --   -0.46001  -0.45151  -0.42635  -0.42520  -0.40866
 Alpha  occ. eigenvalues --   -0.38662  -0.38260  -0.37779  -0.37505  -0.36597
 Alpha  occ. eigenvalues --   -0.36443  -0.35159  -0.34768  -0.33760  -0.33516
 Alpha  occ. eigenvalues --   -0.32892  -0.31261  -0.30755  -0.29979  -0.28943
 Alpha  occ. eigenvalues --   -0.28341  -0.27656  -0.27215  -0.25232  -0.24748
 Alpha  occ. eigenvalues --   -0.23698  -0.23512  -0.22051  -0.18940  -0.16702
 Alpha  occ. eigenvalues --   -0.15495  -0.11166   0.03450
 Alpha virt. eigenvalues --    0.04764   0.05770   0.06133   0.06864   0.07546
 Alpha virt. eigenvalues --    0.07880   0.08473   0.08877   0.09137   0.09280
 Alpha virt. eigenvalues --    0.09752   0.10248   0.10561   0.10627   0.11574

  Beta  occ. eigenvalues --  -19.10975 -19.02825 -14.29388 -14.23785 -14.20126
  Beta  occ. eigenvalues --  -10.24788 -10.15875 -10.13737 -10.13644 -10.13376
  Beta  occ. eigenvalues --  -10.11278 -10.10361 -10.09994 -10.09902 -10.09311
  Beta  occ. eigenvalues --  -10.08895 -10.07671 -10.07351  -1.05695  -0.96239
  Beta  occ. eigenvalues --   -0.89005  -0.85564  -0.79210  -0.77067  -0.71747
  Beta  occ. eigenvalues --   -0.68178  -0.67255  -0.64860  -0.62353  -0.59930
  Beta  occ. eigenvalues --   -0.55843  -0.54418  -0.53189  -0.52157  -0.47288
  Beta  occ. eigenvalues --   -0.45976  -0.45117  -0.42609  -0.42499  -0.40831
  Beta  occ. eigenvalues --   -0.38629  -0.38209  -0.37758  -0.37476  -0.36574
  Beta  occ. eigenvalues --   -0.36414  -0.35131  -0.34731  -0.33728  -0.33476
  Beta  occ. eigenvalues --   -0.32859  -0.31233  -0.30732  -0.29946  -0.28899
  Beta  occ. eigenvalues --   -0.28309  -0.27632  -0.27197  -0.25209  -0.24719
  Beta  occ. eigenvalues --   -0.23669  -0.23481  -0.22046  -0.18909  -0.16668
  Beta  occ. eigenvalues --   -0.15454  -0.11141
  Beta virt. eigenvalues --    0.05481   0.05724   0.06048   0.06676   0.07370
  Beta virt. eigenvalues --    0.07831   0.08309   0.08922   0.09177   0.09322
  Beta virt. eigenvalues --    0.09449   0.09981   0.10614   0.10729   0.10876

 Mulliken charges and spin densities:
               1          2
     1  C    0.968581  -1.511835
     2  C   -1.463752   1.944273
     3  C   -0.760943   0.359616
     4  C    1.037421  -1.536614
     5  N   -0.451383   0.082512
     6  C    0.327810  -1.276861
     7  N    0.138603   0.008328
     8  C    0.176606  -0.520894
     9  C   -0.939076   0.341674
    10  C   -0.733547   0.262194
    11  C    1.619882  -1.160319
    12  C    0.294372  -0.322018
    13  C    0.042430   0.237387
    14  N   -0.287341   0.128364
    15  C    0.459388   0.059593
    16  O   -0.395841  -0.001740
    17  O   -0.139640   0.004741
    18  C    0.609357  -0.961824
    19  H   -0.172276   0.332271
    20  H   -0.293831   0.403772
    21  H   -0.286866   0.447994
    22  H   -0.093932   0.278753
    23  H    0.098759   0.030021
    24  H   -0.174105   0.339403
    25  H   -0.241920   0.409004
    26  H   -0.197084   0.327871
    27  H   -0.090408   0.341641
    28  H    0.040329   0.167040
    29  H    0.185442   0.038653
    30  H    0.041062   0.131893
    31  H    0.451510  -0.229202
    32  H   -0.092405   0.274865
    33  H   -0.464857   0.649834
    34  H    0.088234   0.083426
    35  H    0.096146   0.084078
    36  H   -0.160103   0.334763
    37  H   -0.236622   0.417344
 Sum of Mulliken charges =  -1.00000   1.00000

 Dipole moment (field-independent basis, Debye):
    X=              3.5781    Y=             -1.5295    Z=             -2.3476  Tot=              4.5446
 Quadrupole moment (field-independent basis, Debye-Ang):
   XX=           -252.8784   YY=           -159.3777   ZZ=           -139.1808
   XY=              4.8216   XZ=              6.2277   YZ=              1.0049

 Summary of Natural Population Analysis:

                                       Natural Population
                Natural  -----------------------------------------------
    Atom  No    Charge         Core      Valence    Rydberg      Total
 -----------------------------------------------------------------------
      C    1   -0.28816      0.99965     2.28230    0.00621     3.28816
      C    2   -0.11634      0.99960     2.10643    0.01032     3.11634
      C    3   -0.18850      0.99961     2.17880    0.01009     3.18850
      C    4   -0.09147      0.99963     2.08041    0.01143     3.09147
      N    5   -0.42572      0.99977     2.91496    0.01099     3.92572
      C    6   -0.08512      0.99959     2.07569    0.00984     3.08512
      N    7   -0.31012      0.99967     2.80133    0.00912     3.81012
      C    8    0.09398      0.99952     1.89658    0.00992     2.90602
      C    9   -0.13748      0.99949     2.13029    0.00770     3.13748
      C   10    0.15187      0.99934     1.83628    0.01250     2.84813
      C   11    0.04275      0.99944     1.94745    0.01036     2.95725
      C   12   -0.10364      0.99954     2.09538    0.00872     3.10364
      C   13   -0.13181      0.99955     2.12321    0.00905     3.13181
      N   14   -0.23837      0.99960     2.73023    0.00853     3.73837
      C   15    0.45488      0.99967     1.51889    0.02656     2.54512
      O   16   -0.31372      0.99986     3.30840    0.00546     4.31372
      O   17   -0.25549      0.99985     3.24951    0.00613     4.25549
      C   18   -0.17790      0.99965     2.17009    0.00816     3.17790
      H   19    0.10009      0.00000     0.39862    0.00129     0.39991
      H   20    0.09618      0.00000     0.40248    0.00134     0.40382
      H   21    0.10295      0.00000     0.39582    0.00123     0.39705
      H   22    0.09694      0.00000     0.40121    0.00185     0.40306
      H   23    0.09916      0.00000     0.39954    0.00130     0.40084
      H   24    0.09971      0.00000     0.39917    0.00112     0.40029
      H   25    0.09191      0.00000     0.40678    0.00131     0.40809
      H   26    0.08131      0.00000     0.41664    0.00205     0.41869
      H   27    0.17698      0.00000     0.32098    0.00205     0.32302
      H   28    0.17204      0.00000     0.32570    0.00225     0.32796
      H   29    0.09936      0.00000     0.39887    0.00177     0.40064
      H   30    0.08260      0.00000     0.41474    0.00267     0.41740
      H   31    0.18375      0.00000     0.31335    0.00290     0.31625
      H   32    0.10748      0.00000     0.39107    0.00146     0.39252
      H   33    0.10847      0.00000     0.39029    0.00124     0.39153
      H   34    0.10821      0.00000     0.39055    0.00124     0.39179
      H   35    0.11337      0.00000     0.38566    0.00096     0.38663
      H   36    0.09904      0.00000     0.39971    0.00125     0.40096
      H   37    0.10081      0.00000     0.39771    0.00148     0.39919
 =======================================================================
   * Total *   -0.00000     17.99303    48.79511    0.21186    67.00000

 Normal termination of Gaussian 16 at Fri Dec 11 22:58:00 2020.
