 Gaussian 16, Revision A.03,

 -----------------------------------------------------------
 # opt freq B3LYP/6-31G(d) empiricaldispersion=gd3bj scf=xqc
 -----------------------------------------------------------

 ------------------------------
 CID_17854157_JID_4575_neutraal
 ------------------------------
 Symbolic Z-matrix:
 Charge =  0 Multiplicity = 1

 SCF Done:  E(RB3LYP) =  -638.257870799     A.U. after   13 cycles
 SCF Done:  E(RB3LYP) =  -638.259469398     A.U. after   11 cycles
 SCF Done:  E(RB3LYP) =  -638.257987903     A.U. after   12 cycles
 SCF Done:  E(RB3LYP) =  -638.260603006     A.U. after   11 cycles
 SCF Done:  E(RB3LYP) =  -638.261365426     A.U. after   12 cycles
 SCF Done:  E(RB3LYP) =  -638.261680507     A.U. after   11 cycles
 SCF Done:  E(RB3LYP) =  -638.261937380     A.U. after   10 cycles
 SCF Done:  E(RB3LYP) =  -638.262019980     A.U. after   10 cycles
 SCF Done:  E(RB3LYP) =  -638.262166269     A.U. after   11 cycles
 SCF Done:  E(RB3LYP) =  -638.260363798     A.U. after   14 cycles
 SCF Done:  E(RB3LYP) =  -638.262470912     A.U. after    9 cycles
 SCF Done:  E(RB3LYP) =  -638.262471310     A.U. after   10 cycles
 SCF Done:  E(RB3LYP) =  -638.262475334     A.U. after    9 cycles
 SCF Done:  E(RB3LYP) =  -638.262476472     A.U. after    7 cycles
 SCF Done:  E(RB3LYP) =  -638.262476540     A.U. after    7 cycles
 SCF Done:  E(RB3LYP) =  -638.262476518     A.U. after    6 cycles
 Optimization completed.
    -- Stationary point found.
 Normal termination of Gaussian 16 at Thu Dec 10 10:45:32 2020.

 --------------------------------------------------------------------
 #N Geom=AllCheck Guess=TCheck SCRF=Check GenChk RB3LYP/6-31G(d) Freq
 --------------------------------------------------------------------

 Structure from the checkpoint file:  "JID_4575.chk"
 ------------------------------
 CID_17854157_JID_4575_neutraal
 ------------------------------
 Charge =  0 Multiplicity = 1

 SCF Done:  E(RB3LYP) =  -638.262476518     A.U. after    1 cycles

  Exact polarizability: 139.956   2.259 124.970  -0.077  -0.548 116.341
 Approx polarizability: 173.660   1.722 172.006   0.074  -0.240 169.107

                      1                      2                      3
                      A                      A                      A
 Frequencies --     23.6660                41.6196                53.2889
 Red. masses --      3.6098                 3.7891                 3.1492
 Frc consts  --      0.0012                 0.0039                 0.0053
 IR Inten    --      0.2602                 0.4520                 0.1692

                      4                      5                      6
                      A                      A                      A
 Frequencies --     67.8572                95.1277               105.1245
 Red. masses --      4.0243                 2.8162                 2.8152
 Frc consts  --      0.0109                 0.0150                 0.0183
 IR Inten    --      0.2326                 0.7817                 2.0465

                      7                      8                      9
                      A                      A                      A
 Frequencies --    126.6273               151.0707               201.2393
 Red. masses --      3.0259                 2.7063                 2.8495
 Frc consts  --      0.0286                 0.0364                 0.0680
 IR Inten    --      2.8093                 3.4703                 1.2843

                     10                     11                     12
                      A                      A                      A
 Frequencies --    213.2543               248.6125               286.6982
 Red. masses --      1.8023                 2.2943                 2.0089
 Frc consts  --      0.0483                 0.0836                 0.0973
 IR Inten    --     10.1230                 0.2201                 7.6648

                     13                     14                     15
                      A                      A                      A
 Frequencies --    296.6845               318.1686               336.5087
 Red. masses --      1.8013                 1.9750                 1.7586
 Frc consts  --      0.0934                 0.1178                 0.1173
 IR Inten    --     15.4763                11.4772                 9.0095

                     16                     17                     18
                      A                      A                      A
 Frequencies --    382.7149               407.7210               446.5319
 Red. masses --      2.3082                 2.1465                 2.3844
 Frc consts  --      0.1992                 0.2102                 0.2801
 IR Inten    --      0.1258                 1.8449                 6.0280

                     19                     20                     21
                      A                      A                      A
 Frequencies --    487.2076               513.7020               544.6147
 Red. masses --      2.7363                 2.2119                 2.3218
 Frc consts  --      0.3827                 0.3439                 0.4057
 IR Inten    --      3.3819                 1.2170                 2.0763

                     22                     23                     24
                      A                      A                      A
 Frequencies --    581.4372               717.5629               727.5313
 Red. masses --      3.6793                 1.7574                 1.6561
 Frc consts  --      0.7329                 0.5331                 0.5165
 IR Inten    --      6.7944                 5.2925                11.7935

                     25                     26                     27
                      A                      A                      A
 Frequencies --    776.8377               782.6489               825.4139
 Red. masses --      2.3746                 1.4210                 3.1250
 Frc consts  --      0.8443                 0.5128                 1.2544
 IR Inten    --      5.5476                 1.0391                 1.7754

                     28                     29                     30
                      A                      A                      A
 Frequencies --    834.0286               858.6724               878.2576
 Red. masses --      2.1326                 2.0732                 2.2101
 Frc consts  --      0.8740                 0.9006                 1.0044
 IR Inten    --      8.6011                 6.7666                27.5690

                     31                     32                     33
                      A                      A                      A
 Frequencies --    887.3387               901.6494               931.7972
 Red. masses --      2.2732                 2.2507                 1.5270
 Frc consts  --      1.0546                 1.0781                 0.7812
 IR Inten    --    115.0081                29.2555                53.5084

                     34                     35                     36
                      A                      A                      A
 Frequencies --    934.4157               948.3441               994.0879
 Red. masses --      1.6673                 1.7041                 1.6454
 Frc consts  --      0.8577                 0.9030                 0.9580
 IR Inten    --      0.5850                76.8707                 3.5882

                     37                     38                     39
                      A                      A                      A
 Frequencies --   1006.0817              1030.8365              1041.9937
 Red. masses --      1.7060                 1.7883                 2.0810
 Frc consts  --      1.0174                 1.1196                 1.3312
 IR Inten    --     41.5275                50.2171                 0.6848

                     40                     41                     42
                      A                      A                      A
 Frequencies --   1052.9749              1072.7944              1090.5783
 Red. masses --      2.4818                 2.6580                 2.2037
 Frc consts  --      1.6212                 1.8023                 1.5442
 IR Inten    --     19.9023                80.5773               104.7367

                     43                     44                     45
                      A                      A                      A
 Frequencies --   1095.4223              1105.6730              1127.9726
 Red. masses --      1.3239                 2.2303                 2.2889
 Frc consts  --      0.9360                 1.6065                 1.7158
 IR Inten    --      1.5870                42.3278                37.4657

                     46                     47                     48
                      A                      A                      A
 Frequencies --   1134.7573              1152.1795              1158.8230
 Red. masses --      2.4939                 2.4544                 4.2065
 Frc consts  --      1.8921                 1.9197                 3.3282
 IR Inten    --     16.9230                30.8281                85.0753

                     49                     50                     51
                      A                      A                      A
 Frequencies --   1185.6437              1218.6692              1233.3746
 Red. masses --      1.6053                 1.3050                 1.2636
 Frc consts  --      1.3296                 1.1419                 1.1326
 IR Inten    --      9.3165                 5.0362                22.4350

                     52                     53                     54
                      A                      A                      A
 Frequencies --   1245.4902              1256.8111              1292.5097
 Red. masses --      1.3184                 1.5293                 1.1682
 Frc consts  --      1.2050                 1.4232                 1.1498
 IR Inten    --      5.5005                56.1407                 0.6550

                     55                     56                     57
                      A                      A                      A
 Frequencies --   1303.3701              1306.2650              1308.9959
 Red. masses --      1.2318                 1.1690                 1.1588
 Frc consts  --      1.2329                 1.1753                 1.1698
 IR Inten    --      3.9856                 5.3581                 6.5648

                     58                     59                     60
                      A                      A                      A
 Frequencies --   1348.4391              1364.8779              1377.3723
 Red. masses --      1.1278                 1.3012                 1.4031
 Frc consts  --      1.2082                 1.4282                 1.5684
 IR Inten    --      1.3294                10.7082                 3.2188

                     61                     62                     63
                      A                      A                      A
 Frequencies --   1383.6339              1384.8307              1398.6370
 Red. masses --      1.4090                 1.4071                 1.2644
 Frc consts  --      1.5893                 1.5899                 1.4572
 IR Inten    --     20.9955                 1.9216                23.3204

                     64                     65                     66
                      A                      A                      A
 Frequencies --   1405.5280              1409.2594              1410.5219
 Red. masses --      1.5125                 1.3255                 1.2777
 Frc consts  --      1.7605                 1.5510                 1.4978
 IR Inten    --      1.8164                 2.7141                 3.6806

                     67                     68                     69
                      A                      A                      A
 Frequencies --   1415.3585              1424.1640              1428.5176
 Red. masses --      1.2569                 1.3710                 1.4113
 Frc consts  --      1.4835                 1.6384                 1.6968
 IR Inten    --     13.1869                 2.8330                 1.6958

                     70                     71                     72
                      A                      A                      A
 Frequencies --   1438.8373              1454.6939              1502.5549
 Red. masses --      1.3802                 1.4029                 1.0853
 Frc consts  --      1.6835                 1.7491                 1.4436
 IR Inten    --     11.4342                 1.0606                 3.3749

                     73                     74                     75
                      A                      A                      A
 Frequencies --   1504.8454              1511.0497              1514.1920
 Red. masses --      1.0811                 1.0843                 1.0917
 Frc consts  --      1.4425                 1.4587                 1.4748
 IR Inten    --      0.1584                 2.1904                 1.9493

                     76                     77                     78
                      A                      A                      A
 Frequencies --   1520.3136              1526.7837              1532.4289
 Red. masses --      1.0893                 1.0786                 1.0962
 Frc consts  --      1.4834                 1.4814                 1.5167
 IR Inten    --     13.5180                 5.1453                 2.9041

                     79                     80                     81
                      A                      A                      A
 Frequencies --   1534.1380              1549.2354              1550.3675
 Red. masses --      1.1015                 1.0879                 1.0914
 Frc consts  --      1.5274                 1.5385                 1.5456
 IR Inten    --      3.8828                 1.3602                 1.8530

                     82                     83                     84
                      A                      A                      A
 Frequencies --   1700.4710              2992.7054              2998.9093
 Red. masses --      1.0867                 1.0661                 1.0724
 Frc consts  --      1.8514                 5.6257                 5.6826
 IR Inten    --     16.6118                40.4759                71.7497

                     85                     86                     87
                      A                      A                      A
 Frequencies --   3015.0434              3015.7827              3021.4999
 Red. masses --      1.0712                 1.0846                 1.0637
 Frc consts  --      5.7372                 5.8120                 5.7218
 IR Inten    --     26.6718                80.4212                17.1854

                     88                     89                     90
                      A                      A                      A
 Frequencies --   3034.6058              3043.6159              3046.0960
 Red. masses --      1.0679                 1.0678                 1.0641
 Frc consts  --      5.7939                 5.8280                 5.8174
 IR Inten    --     71.9332                32.2109                16.4183

                     91                     92                     93
                      A                      A                      A
 Frequencies --   3050.8426              3056.7098              3057.4930
 Red. masses --      1.0973                 1.0946                 1.0659
 Frc consts  --      6.0175                 6.0256                 5.8706
 IR Inten    --     13.5211                57.5281                12.6063

                     94                     95                     96
                      A                      A                      A
 Frequencies --   3064.5034              3072.3455              3082.1555
 Red. masses --      1.0640                 1.0649                 1.0986
 Frc consts  --      5.8871                 5.9223                 6.1487
 IR Inten    --     49.2022                28.5725                28.5695

                     97                     98                     99
                      A                      A                      A
 Frequencies --   3084.3997              3092.4061              3098.1073
 Red. masses --      1.0993                 1.0967                 1.0933
 Frc consts  --      6.1620                 6.1791                 6.1830
 IR Inten    --     75.8494                39.7614                50.3121

                    100                    101                    102
                      A                      A                      A
 Frequencies --   3102.8420              3112.7107              3116.9932
 Red. masses --      1.0981                 1.1006                 1.0908
 Frc consts  --      6.2288                 6.2826                 6.2441
 IR Inten    --      7.5679                30.4164                44.5189

                    103                    104                    105
                      A                      A                      A
 Frequencies --   3125.3433              3453.5842              3539.6432
 Red. masses --      1.1025                 1.0495                 1.0914
 Frc consts  --      6.3446                 7.3754                 8.0570
 IR Inten    --     57.8323                 2.4097                 1.5374

 - Thermochemistry -
 -------------------
 Temperature   298.150 Kelvin.  Pressure   1.00000 Atm.
 Atom     1 has atomic number  6 and mass  12.00000

 Molecular mass:   201.17288 amu.
 Principal axes and moments of inertia in atomic units:
                           1         2         3
     Eigenvalues --  1609.700865068.197865682.23191
           X            0.99995   0.00981   0.00059
           Y           -0.00981   0.99995  -0.00102
           Z           -0.00060   0.00102   1.00000
 This molecule is an asymmetric top.
 Rotational symmetry number  1.
 Warning -- assumption of classical behavior for rotation
           may cause significant error
 Rotational temperatures (Kelvin)      0.05381     0.01709     0.01524
 Rotational constants (GHZ):           1.12117     0.35609     0.31761
 Zero-point vibrational energy     898507.2 (Joules/Mol)
                                  214.74837 (Kcal/Mol)
 Warning -- explicit consideration of  22 degrees of freedom as
           vibrations may cause significant error
 Vibrational temperatures:     34.05    59.88    76.67    97.63   136.87
          (Kelvin)            151.25   182.19   217.36   289.54   306.83
                              357.70   412.49   426.86   457.77   484.16
                              550.64   586.62   642.46   700.98   739.10
                              783.58   836.56  1032.41  1046.76  1117.70
                             1126.06  1187.59  1199.98  1235.44  1263.62
                             1276.68  1297.27  1340.65  1344.42  1364.46
                             1430.27  1447.53  1483.14  1499.20  1515.00
                             1543.51  1569.10  1576.07  1590.82  1622.90
                             1632.66  1657.73  1667.29  1705.88  1753.39
                             1774.55  1791.98  1808.27  1859.63  1875.26
                             1879.42  1883.35  1940.10  1963.75  1981.73
                             1990.74  1992.46  2012.33  2022.24  2027.61
                             2029.43  2036.39  2049.05  2055.32  2070.17
                             2092.98  2161.84  2165.14  2174.06  2178.58
                             2187.39  2196.70  2204.82  2207.28  2229.00
                             2230.63  2446.60  4305.84  4314.76  4337.97
                             4339.04  4347.26  4366.12  4379.08  4382.65
                             4389.48  4397.92  4399.05  4409.14  4420.42
                             4434.53  4437.76  4449.28  4457.49  4464.30
                             4478.50  4484.66  4496.67  4968.94  5092.76

 Zero-point correction=                           0.342223 (Hartree/Particle)
 Thermal correction to Energy=                    0.357665
 Thermal correction to Enthalpy=                  0.358609
 Thermal correction to Gibbs Free Energy=         0.298114
 Sum of electronic and zero-point Energies=           -637.920253
 Sum of electronic and thermal Energies=              -637.904811
 Sum of electronic and thermal Enthalpies=            -637.903867
 Sum of electronic and thermal Free Energies=         -637.964363

                     E (Thermal)             CV                S
                      KCal/Mol        Cal/Mol-Kelvin    Cal/Mol-Kelvin
 Total                  224.438             57.908            127.323
 Electronic               0.000              0.000              0.000
 Translational            0.889              2.981             41.802
 Rotational               0.889              2.981             32.205
 Vibrational            222.661             51.947             53.316
 Vibration     1          0.593              1.985              6.300
 Vibration     2          0.594              1.981              5.180
 Vibration     3          0.596              1.976              4.691
 Vibration     4          0.598              1.970              4.215
 Vibration     5          0.603              1.953              3.552
 Vibration     6          0.605              1.945              3.357
 Vibration     7          0.611              1.927              2.997
 Vibration     8          0.618              1.901              2.659
 Vibration     9          0.638              1.838              2.122
 Vibration    10          0.644              1.821              2.016
 Vibration    11          0.662              1.765              1.740
 Vibration    12          0.684              1.698              1.493
 Vibration    13          0.690              1.680              1.436
 Vibration    14          0.705              1.639              1.319
 Vibration    15          0.717              1.603              1.229
 Vibration    16          0.752              1.507              1.028
 Vibration    17          0.772              1.453              0.935
 Vibration    18          0.806              1.369              0.806
 Vibration    19          0.843              1.278              0.691
 Vibration    20          0.869              1.220              0.625
 Vibration    21          0.900              1.151              0.555
 Vibration    22          0.938              1.071              0.483

 Optimization completed.
    -- Stationary point found.
 Normal termination of Gaussian 16 at Thu Dec 10 10:58:39 2020.

 ----------------------------------------------------------------------
 # B3LYP/6-311++G(d,p) empiricaldispersion=gd3bj scf=xqc pop=npa geom=c
 heck
 ----------------------------------------------------------------------

 --------------------------------------
 CID_17854157_JID_4575_Energie_neutraal
 --------------------------------------
 Structure from the checkpoint file:  "JID_4575.chk"
 Charge =  0 Multiplicity = 1

 SCF Done:  E(RB3LYP) =  -638.451952693     A.U. after   14 cycles
 Normal termination of Gaussian 16 at Thu Dec 10 11:05:12 2020.

 ----------------------------------------------------------------------
 # B3LYP/6-311++G(d,p) empiricaldispersion=gd3bj scf=xqc pop=npa geom=c
 heck
 ----------------------------------------------------------------------

 ------------------------------------
 CID_17854157_JID_4575_Energie_kation
 ------------------------------------
 Structure from the checkpoint file:  "JID_4575.chk"
 Charge =  1 Multiplicity = 2

 SCF Done:  E(UB3LYP) =  -638.138278554     A.U. after   27 cycles
 Normal termination of Gaussian 16 at Thu Dec 10 11:22:49 2020.
 Gaussian 16:  ES64L-G16RevA.03 25-Dec-2016

 ----------------------------------------------------------------------
 # B3LYP/6-311++G(d,p) empiricaldispersion=gd3bj scf=xqc pop=npa geom=c
 heck
 ----------------------------------------------------------------------

 -----------------------------------
 CID_17854157_JID_4575_Energie_anion
 -----------------------------------
 Structure from the checkpoint file:  "JID_4575.chk"
 Charge = -1 Multiplicity = 2

                         Standard orientation:
 ---------------------------------------------------------------------
 Center     Atomic      Atomic             Coordinates (Angstroms)
 Number     Number       Type             X           Y           Z
 ---------------------------------------------------------------------
      1          6           0       -1.940933   -1.908971   -0.230879
      2          6           0       -2.272409   -1.310949    1.155979
      3          6           0       -3.332688   -0.221400    1.034452
      4          8           0       -2.920363    0.860980    0.192077
      5          6           0       -2.089475    0.519110   -0.903086
      6          6           0       -2.296805   -0.917883   -1.359342
      7          8           0       -0.719339    0.654645   -0.593555
      8          6           0       -0.331191    1.970049   -0.207445
      9          6           0        1.189316    2.071444   -0.201423
     10          6           0        1.903231    1.325964    0.937125
     11          6           0        1.745729   -0.203868    0.961246
     12          6           0        2.151639   -0.925706   -0.331172
     13          6           0        3.600073   -0.674941   -0.782404
     14          7           0        4.655927   -1.037329    0.170761
     15          1           0       -0.876613   -2.155909   -0.277421
     16          1           0       -2.493140   -2.842357   -0.388389
     17          1           0       -2.624893   -2.085505    1.847121
     18          1           0       -1.375238   -0.865863    1.596765
     19          1           0       -4.270372   -0.648710    0.644824
     20          1           0       -3.554708    0.229335    2.006525
     21          1           0       -2.349878    1.245710   -1.687181
     22          1           0       -1.694714   -1.102981   -2.253786
     23          1           0       -3.349043   -1.024188   -1.647456
     24          1           0       -0.751659    2.695207   -0.923115
     25          1           0       -0.746713    2.208579    0.781058
     26          1           0        1.562209    1.735087   -1.176508
     27          1           0        1.443349    3.137207   -0.124565
     28          1           0        2.970531    1.581921    0.887876
     29          1           0        1.545313    1.726697    1.895939
     30          1           0        2.342327   -0.594302    1.797863
     31          1           0        0.704696   -0.455526    1.181455
     32          1           0        2.012954   -2.007514   -0.183521
     33          1           0        1.464119   -0.636864   -1.134906
     34          1           0        3.786912   -1.230729   -1.709888
     35          1           0        3.737490    0.384348   -1.032590
     36          1           0        4.551899   -0.485663    1.021247
     37          1           0        4.532360   -2.008773    0.456854
 ---------------------------------------------------------------------

 SCF Done:  E(UB3LYP) =  -638.438381380     A.U. after   27 cycles

 The electronic state is 2-A.
 Alpha  occ. eigenvalues --  -19.02775 -19.02751 -14.19629 -10.16947 -10.11738
 Alpha  occ. eigenvalues --  -10.11737 -10.09224 -10.07268 -10.07260 -10.06902
 Alpha  occ. eigenvalues --  -10.06878 -10.06773 -10.06064 -10.05922  -0.97210
 Alpha  occ. eigenvalues --   -0.91289  -0.78663  -0.71066  -0.70025  -0.67026
 Alpha  occ. eigenvalues --   -0.64658  -0.59921  -0.55924  -0.55192  -0.53216
 Alpha  occ. eigenvalues --   -0.50165  -0.45235  -0.44853  -0.42843  -0.40888
 Alpha  occ. eigenvalues --   -0.40373  -0.37855  -0.37701  -0.36064  -0.34856
 Alpha  occ. eigenvalues --   -0.33740  -0.33329  -0.32563  -0.32093  -0.30486
 Alpha  occ. eigenvalues --   -0.29686  -0.29231  -0.28397  -0.27147  -0.26584
 Alpha  occ. eigenvalues --   -0.26122  -0.25164  -0.24532  -0.22943  -0.22416
 Alpha  occ. eigenvalues --   -0.21933  -0.21712  -0.19371  -0.17650  -0.16980
 Alpha  occ. eigenvalues --   -0.14713   0.04231
 Alpha virt. eigenvalues --    0.06059   0.06652   0.07026   0.08220   0.08322
 Alpha virt. eigenvalues --    0.08772   0.09253   0.09526   0.10846   0.11085
 Alpha virt. eigenvalues --    0.11212   0.11409   0.11639   0.12482   0.13278

  Beta  occ. eigenvalues --  -19.02767 -19.02750 -14.19602 -10.16938 -10.11726
  Beta  occ. eigenvalues --  -10.11715 -10.09214 -10.07250 -10.07249 -10.06885
  Beta  occ. eigenvalues --  -10.06861 -10.06755 -10.06051 -10.05911  -0.97200
  Beta  occ. eigenvalues --   -0.91280  -0.78614  -0.71037  -0.69991  -0.66994
  Beta  occ. eigenvalues --   -0.64622  -0.59880  -0.55882  -0.55147  -0.53174
  Beta  occ. eigenvalues --   -0.50121  -0.45190  -0.44804  -0.42806  -0.40852
  Beta  occ. eigenvalues --   -0.40343  -0.37828  -0.37669  -0.36032  -0.34826
  Beta  occ. eigenvalues --   -0.33708  -0.33293  -0.32528  -0.32060  -0.30453
  Beta  occ. eigenvalues --   -0.29660  -0.29200  -0.28368  -0.27117  -0.26555
  Beta  occ. eigenvalues --   -0.26095  -0.25135  -0.24496  -0.22915  -0.22387
  Beta  occ. eigenvalues --   -0.21906  -0.21682  -0.19342  -0.17630  -0.16957
  Beta  occ. eigenvalues --   -0.14682
  Beta virt. eigenvalues --    0.06237   0.06955   0.07277   0.07560   0.08667
  Beta virt. eigenvalues --    0.08824   0.09086   0.09672   0.09883   0.11150
  Beta virt. eigenvalues --    0.11360   0.11586   0.11715   0.11953   0.12807

 Mulliken charges and spin densities:
               1          2
     1  C    0.253597  -0.508326
     2  C   -0.063588  -0.024627
     3  C    0.693820  -1.168993
     4  O   -0.147366   0.027379
     5  C   -0.480704   0.224001
     6  C    0.510401  -0.943922
     7  O    0.051567   0.000407
     8  C    0.605193  -0.942173
     9  C   -0.899027   0.645811
    10  C    0.068694  -0.389540
    11  C   -0.147055   0.127023
    12  C   -0.581050   0.402502
    13  C    1.163942  -1.879547
    14  N   -0.443234   0.119075
    15  H   -0.162837   0.315898
    16  H   -0.428171   0.612167
    17  H   -0.485553   0.665661
    18  H    0.048915   0.086511
    19  H   -0.101388   0.240501
    20  H   -0.154348   0.330947
    21  H   -0.164982   0.339272
    22  H   -0.033806   0.200698
    23  H   -0.187012   0.345333
    24  H    0.030786   0.093077
    25  H    0.067217   0.112658
    26  H    0.010277   0.147578
    27  H   -0.177716   0.334510
    28  H   -0.079022   0.224782
    29  H   -0.273728   0.425328
    30  H   -0.150645   0.357460
    31  H    0.255080  -0.193562
    32  H   -0.027829   0.181973
    33  H    0.350169  -0.212304
    34  H   -0.043575   0.201932
    35  H    0.075920   0.094216
    36  H    0.081183   0.148764
    37  H   -0.034127   0.257530
 Sum of Mulliken charges =  -1.00000   1.00000

 Dipole moment (field-independent basis, Debye):
    X=              0.1673    Y=              2.6727    Z=             -1.5858  Tot=              3.1123
 Quadrupole moment (field-independent basis, Debye-Ang):
   XX=           -177.6707   YY=           -137.2210   ZZ=           -125.2274
   XY=             -4.6823   XZ=              0.1443   YZ=             -0.1390

 Summary of Natural Population Analysis:

                                       Natural Population
                Natural  -----------------------------------------------
    Atom  No    Charge         Core      Valence    Rydberg      Total
 -----------------------------------------------------------------------
      C    1   -0.19139      0.99963     2.18282    0.00894     3.19139
      C    2   -0.20775      0.99963     2.20002    0.00810     3.20775
      C    3   -0.00861      0.99957     1.99657    0.01248     3.00861
      O    4   -0.30822      0.99988     3.29983    0.00850     4.30822
      C    5    0.22314      0.99956     1.75794    0.01936     2.77686
      C    6   -0.20857      0.99960     2.20031    0.00866     3.20857
      O    7   -0.31430      0.99987     3.30336    0.01107     4.31430
      C    8   -0.00932      0.99957     1.99818    0.01158     3.00932
      C    9   -0.20004      0.99962     2.19149    0.00894     3.20004
      C   10   -0.18925      0.99962     2.18099    0.00863     3.18925
      C   11   -0.19591      0.99961     2.18645    0.00984     3.19591
      C   12   -0.20323      0.99962     2.19428    0.00933     3.20323
      C   13   -0.09039      0.99964     2.08043    0.01032     3.09039
      N   14   -0.42098      0.99978     2.91129    0.00990     3.92098
      H   15    0.10250      0.00000     0.39597    0.00154     0.39750
      H   16    0.09922      0.00000     0.39926    0.00152     0.40078
      H   17    0.10344      0.00000     0.39493    0.00163     0.39656
      H   18    0.09960      0.00000     0.39828    0.00212     0.40040
      H   19    0.07839      0.00000     0.42006    0.00155     0.42161
      H   20    0.09118      0.00000     0.40759    0.00122     0.40882
      H   21    0.07665      0.00000     0.42173    0.00162     0.42335
      H   22    0.10751      0.00000     0.39136    0.00114     0.39249
      H   23    0.10119      0.00000     0.39754    0.00127     0.39881
      H   24    0.07999      0.00000     0.41868    0.00133     0.42001
      H   25    0.08573      0.00000     0.41276    0.00151     0.41427
      H   26    0.09698      0.00000     0.40160    0.00142     0.40302
      H   27    0.09954      0.00000     0.39953    0.00093     0.40046
      H   28    0.09368      0.00000     0.40510    0.00122     0.40632
      H   29    0.09701      0.00000     0.40179    0.00119     0.40299
      H   30    0.09258      0.00000     0.40598    0.00144     0.40742
      H   31    0.10326      0.00000     0.39431    0.00243     0.39674
      H   32    0.09422      0.00000     0.40428    0.00150     0.40578
      H   33    0.10413      0.00000     0.39402    0.00185     0.39587
      H   34    0.08851      0.00000     0.41046    0.00103     0.41149
      H   35    0.08726      0.00000     0.41144    0.00130     0.41274
      H   36    0.17171      0.00000     0.32621    0.00208     0.32829
      H   37    0.17054      0.00000     0.32749    0.00197     0.32946
 =======================================================================
   * Total *   -0.00000     13.99520    41.82432    0.18047    56.00000

 Normal termination of Gaussian 16 at Thu Dec 10 11:39:31 2020.
