 Gaussian 16, Revision A.03,

 -----------------------------------------------------------
 # opt freq B3LYP/6-31G(d) empiricaldispersion=gd3bj scf=xqc
 -----------------------------------------------------------

 ------------------------------
 CID_150971337_JID_392_neutraal
 ------------------------------
 Symbolic Z-matrix:
 Charge =  0 Multiplicity = 1

 SCF Done:  E(RB3LYP) =  -527.977785930     A.U. after   16 cycles
 SCF Done:  E(RB3LYP) =  -527.982514145     A.U. after   14 cycles
 SCF Done:  E(RB3LYP) =  -527.974543054     A.U. after   16 cycles
 SCF Done:  E(RB3LYP) =  -527.985024036     A.U. after   14 cycles
 SCF Done:  E(RB3LYP) =  -527.985604681     A.U. after   15 cycles
 SCF Done:  E(RB3LYP) =  -527.986148516     A.U. after   16 cycles
 SCF Done:  E(RB3LYP) =  -527.986371178     A.U. after   14 cycles
 SCF Done:  E(RB3LYP) =  -527.986433802     A.U. after   14 cycles
 SCF Done:  E(RB3LYP) =  -527.986443378     A.U. after   11 cycles
 SCF Done:  E(RB3LYP) =  -527.986444525     A.U. after    9 cycles
 SCF Done:  E(RB3LYP) =  -527.986444915     A.U. after    9 cycles
 SCF Done:  E(RB3LYP) =  -527.986444967     A.U. after    9 cycles
 Optimization completed.
    -- Stationary point found.
 Normal termination of Gaussian 16 at Tue Dec  8 10:30:13 2020.

 --------------------------------------------------------------------
 #N Geom=AllCheck Guess=TCheck SCRF=Check GenChk RB3LYP/6-31G(d) Freq
 --------------------------------------------------------------------

 Structure from the checkpoint file:  "JID_392.chk"
 ------------------------------
 CID_150971337_JID_392_neutraal
 ------------------------------
 Charge =  0 Multiplicity = 1

 SCF Done:  E(RB3LYP) =  -527.986444967     A.U. after    1 cycles

  Exact polarizability:  98.903   7.769  95.183  -1.550   0.808  30.998
 Approx polarizability: 161.965  20.095 187.271  -3.644  10.061  51.960

                      1                      2                      3
                      A                      A                      A
 Frequencies --     47.2135                78.7473               199.6008
 Red. masses --     11.7684                 7.5330                 5.0561
 Frc consts  --      0.0155                 0.0275                 0.1187
 IR Inten    --      0.7839                 0.2016                 0.2688

                      4                      5                      6
                      A                      A                      A
 Frequencies --    241.8347               359.0856               372.0548
 Red. masses --      8.6564                 4.5075                 8.4291
 Frc consts  --      0.2983                 0.3424                 0.6875
 IR Inten    --      0.1128                 0.8911                 0.6127

                      7                      8                      9
                      A                      A                      A
 Frequencies --    426.9284               500.2527               538.6556
 Red. masses --      5.5562                 3.7705                 5.6257
 Frc consts  --      0.5967                 0.5559                 0.9617
 IR Inten    --     11.2942                20.3184                10.0585

                     10                     11                     12
                      A                      A                      A
 Frequencies --    561.2918               666.1264               706.4640
 Red. masses --      5.0402                 7.3839                 8.2639
 Frc consts  --      0.9356                 1.9304                 2.4301
 IR Inten    --     13.6742                 1.0660                 4.5186

                     13                     14                     15
                      A                      A                      A
 Frequencies --    757.5181               794.1319               809.1897
 Red. masses --      3.4864                 1.5919                 7.8929
 Frc consts  --      1.1787                 0.5915                 3.0450
 IR Inten    --     41.8384                12.0821                41.5293

                     16                     17                     18
                      A                      A                      A
 Frequencies --    852.7937               889.2407               944.7652
 Red. masses --      1.2601                 7.7710                 1.3381
 Frc consts  --      0.5399                 3.6205                 0.7037
 IR Inten    --     76.2154                15.3615                 0.2826

                     19                     20                     21
                      A                      A                      A
 Frequencies --    950.1953               981.8736              1062.4607
 Red. masses --      3.7765                 1.4142                 2.7447
 Frc consts  --      2.0090                 0.8033                 1.8255
 IR Inten    --     13.6334                 2.6980                38.6293

                     22                     23                     24
                      A                      A                      A
 Frequencies --   1122.5204              1135.4093              1230.4009
 Red. masses --      2.2458                 1.6769                 1.6634
 Frc consts  --      1.6673                 1.2737                 1.4837
 IR Inten    --      7.9644               103.1601               136.5150

                     25                     26                     27
                      A                      A                      A
 Frequencies --   1299.6467              1383.4102              1396.0830
 Red. masses --      1.6462                 8.5320                 2.5436
 Frc consts  --      1.6382                 9.6206                 2.9209
 IR Inten    --     30.4851               293.9443                41.6856

                     28                     29                     30
                      A                      A                      A
 Frequencies --   1465.1437              1599.7751              1640.6877
 Red. masses --      1.9407                 7.4842                12.6084
 Frc consts  --      2.4545                11.2853                19.9969
 IR Inten    --      6.2290               147.6733               130.1151

                     31                     32                     33
                      A                      A                      A
 Frequencies --   1690.4624              1780.9523              3236.8302
 Red. masses --      5.8116                 9.1050                 1.0892
 Frc consts  --      9.7849                17.0152                 6.7236
 IR Inten    --     20.8837               320.3585                 1.0823

                     34                     35                     36
                      A                      A                      A
 Frequencies --   3245.9332              3259.5224              3485.3628
 Red. masses --      1.0919                 1.0993                 1.0749
 Frc consts  --      6.7781                 6.8815                 7.6934
 IR Inten    --      2.4594                 4.1051                 9.5784

 - Thermochemistry -
 -------------------
 Temperature   298.150 Kelvin.  Pressure   1.00000 Atm.
 Atom     1 has atomic number  6 and mass  12.00000

 Molecular mass:   140.02219 amu.
 Principal axes and moments of inertia in atomic units:
                           1         2         3
     Eigenvalues --   740.821881464.518252151.24810
           X            0.99982   0.01887  -0.00136
           Y           -0.01888   0.99980  -0.00655
           Z            0.00124   0.00657   0.99998
 This molecule is an asymmetric top.
 Rotational symmetry number  1.
 Warning -- assumption of classical behavior for rotation
           may cause significant error
 Rotational temperatures (Kelvin)      0.11692     0.05914     0.04026
 Rotational constants (GHZ):           2.43613     1.23231     0.83893
 Zero-point vibrational energy     249496.5 (Joules/Mol)
                                   59.63110 (Kcal/Mol)
 Warning -- explicit consideration of  10 degrees of freedom as
           vibrations may cause significant error
 Vibrational temperatures:     67.93   113.30   287.18   347.95   516.64
          (Kelvin)            535.30   614.25   719.75   775.01   807.57
                              958.41  1016.44  1089.90  1142.58  1164.24
                             1226.98  1279.42  1359.31  1367.12  1412.70
                             1528.64  1615.06  1633.60  1770.27  1869.90
                             1990.42  2008.65  2108.01  2301.72  2360.58
                             2432.20  2562.39  4657.08  4670.17  4689.73
                             5014.66

 Zero-point correction=                           0.095028 (Hartree/Particle)
 Thermal correction to Energy=                    0.102979
 Thermal correction to Enthalpy=                  0.103923
 Thermal correction to Gibbs Free Energy=         0.061246
 Sum of electronic and zero-point Energies=           -527.891417
 Sum of electronic and thermal Energies=              -527.883466
 Sum of electronic and thermal Enthalpies=            -527.882522
 Sum of electronic and thermal Free Energies=         -527.925199

                     E (Thermal)             CV                S
                      KCal/Mol        Cal/Mol-Kelvin    Cal/Mol-Kelvin
 Total                   64.620             29.263             89.820
 Electronic               0.000              0.000              0.000
 Translational            0.889              2.981             40.721
 Rotational               0.889              2.981             29.236
 Vibrational             62.843             23.301             19.863
 Vibration     1          0.595              1.979              4.931
 Vibration     2          0.600              1.963              3.922
 Vibration     3          0.638              1.840              2.137
 Vibration     4          0.658              1.776              1.789
 Vibration     5          0.734              1.557              1.126
 Vibration     6          0.744              1.530              1.071
 Vibration     7          0.789              1.412              0.869
 Vibration     8          0.856              1.249              0.657
 Vibration     9          0.894              1.165              0.568
 Vibration    10          0.917              1.115              0.521

                           ! Non-Optimized Parameters !
 Normal termination of Gaussian 16 at Tue Dec  8 10:32:23 2020.

 ----------------------------------------------------------------------
 # B3LYP/6-311++G(d,p) empiricaldispersion=gd3bj scf=xqc pop=npa geom=c
 heck
 ----------------------------------------------------------------------

 --------------------------------------
 CID_150971337_JID_392_Energie_neutraal
 --------------------------------------
 Structure from the checkpoint file:  "JID_392.chk"
 Charge =  0 Multiplicity = 1

 SCF Done:  E(RB3LYP) =  -528.142216219     A.U. after   16 cycles
 Normal termination of Gaussian 16 at Tue Dec  8 10:34:02 2020.

 ----------------------------------------------------------------------
 # B3LYP/6-311++G(d,p) empiricaldispersion=gd3bj scf=xqc pop=npa geom=c
 heck
 ----------------------------------------------------------------------

 ------------------------------------
 CID_150971337_JID_392_Energie_kation
 ------------------------------------
 Structure from the checkpoint file:  "JID_392.chk"
 Charge =  1 Multiplicity = 2

 SCF Done:  E(UB3LYP) =  -527.808204021     A.U. after   30 cycles
 Normal termination of Gaussian 16 at Tue Dec  8 10:40:37 2020.
 Gaussian 16:  ES64L-G16RevA.03 25-Dec-2016

 ----------------------------------------------------------------------
 # B3LYP/6-311++G(d,p) empiricaldispersion=gd3bj scf=xqc pop=npa geom=c
 heck
 ----------------------------------------------------------------------

 -----------------------------------
 CID_150971337_JID_392_Energie_anion
 -----------------------------------
 Structure from the checkpoint file:  "JID_392.chk"
 Charge = -1 Multiplicity = 2

                         Standard orientation:
 ---------------------------------------------------------------------
 Center     Atomic      Atomic             Coordinates (Angstroms)
 Number     Number       Type             X           Y           Z
 ---------------------------------------------------------------------
      1          6           0       -1.770232   -1.497381    0.060816
      2          6           0       -2.452648   -0.331576    0.083413
      3          8           0       -1.856665    0.871462    0.035215
      4          6           0       -0.450512    1.034804   -0.086423
      5          7           0        0.028989    2.187267   -0.274135
      6          6           0        0.285879   -0.226736   -0.013729
      7          6           0       -0.343383   -1.428411    0.021358
      8          7           0        1.751317   -0.224545    0.033976
      9          8           0        2.319362   -1.245197   -0.367900
     10          8           0        2.312392    0.759031    0.498147
     11          1           0       -2.292070   -2.444552    0.099129
     12          1           0       -3.530979   -0.239954    0.149521
     13          1           0       -0.715901    2.886311   -0.317188
     14          1           0        0.261473   -2.327423    0.033338
 ---------------------------------------------------------------------

 SCF Done:  E(UB3LYP) =  -528.191615250     A.U. after   21 cycles

 The electronic state is 2-A.
 Alpha  occ. eigenvalues --  -19.03783 -18.95576 -18.95558 -14.34382 -14.13813
 Alpha  occ. eigenvalues --  -10.13232 -10.08768 -10.05403 -10.03690 -10.02662
 Alpha  occ. eigenvalues --   -1.03588  -0.95949  -0.86423  -0.76265  -0.68923
 Alpha  occ. eigenvalues --   -0.62707  -0.55313  -0.49528  -0.46648  -0.39072
 Alpha  occ. eigenvalues --   -0.38657  -0.36270  -0.35017  -0.33137  -0.31929
 Alpha  occ. eigenvalues --   -0.31592  -0.28305  -0.26642  -0.21285  -0.19289
 Alpha  occ. eigenvalues --   -0.18365  -0.14961  -0.13556  -0.12389  -0.10367
 Alpha  occ. eigenvalues --   -0.08117   0.02001
 Alpha virt. eigenvalues --    0.08817   0.10610   0.11159   0.11765   0.13487
 Alpha virt. eigenvalues --    0.14639   0.16449   0.16942   0.17359   0.20070
 Alpha virt. eigenvalues --    0.20397   0.20693   0.20935   0.21295   0.22206

  Beta  occ. eigenvalues --  -19.03557 -18.95341 -18.95177 -14.34057 -14.13837
  Beta  occ. eigenvalues --  -10.13231 -10.08270 -10.05319 -10.03855 -10.02183
  Beta  occ. eigenvalues --   -1.02974  -0.95494  -0.85852  -0.76206  -0.68332
  Beta  occ. eigenvalues --   -0.62236  -0.54509  -0.48981  -0.46275  -0.38870
  Beta  occ. eigenvalues --   -0.38144  -0.35844  -0.33453  -0.32814  -0.31528
  Beta  occ. eigenvalues --   -0.30396  -0.28007  -0.26364  -0.21052  -0.18552
  Beta  occ. eigenvalues --   -0.16632  -0.14772  -0.12179  -0.11494  -0.10055
  Beta  occ. eigenvalues --   -0.06983
  Beta virt. eigenvalues --    0.08757   0.09024   0.10592   0.11760   0.13234
  Beta virt. eigenvalues --    0.13484   0.15370   0.16786   0.16990   0.17333
  Beta virt. eigenvalues --    0.20140   0.20530   0.20710   0.21207   0.21336

 Mulliken charges and spin densities:
               1          2
     1  C   -0.225406  -0.119403
     2  C   -0.312548   0.376256
     3  O   -0.157298   0.038825
     4  C   -0.152026  -0.013313
     5  N   -0.306726  -0.010463
     6  C   -0.184484  -0.041122
     7  C    0.208461   0.465478
     8  N   -0.254464   0.119033
     9  O   -0.177734   0.083203
    10  O   -0.094312   0.144308
    11  H    0.110691   0.008082
    12  H    0.126914  -0.027697
    13  H    0.201119  -0.000313
    14  H    0.217813  -0.022875
 Sum of Mulliken charges =  -1.00000   1.00000

 Dipole moment (field-independent basis, Debye):
    X=             -6.1422    Y=             -1.0034    Z=              0.1751  Tot=              6.2261
 Quadrupole moment (field-independent basis, Debye-Ang):
   XX=            -83.4126   YY=            -69.5172   ZZ=            -63.4511
   XY=             -0.5570   XZ=             -0.0948   YZ=             -1.6046

 Summary of Natural Population Analysis:

                                       Natural Population
                Natural  -----------------------------------------------
    Atom  No    Charge         Core      Valence    Rydberg      Total
 -----------------------------------------------------------------------
      C    1   -0.21188      0.99956     2.20296    0.00935     3.21188
      C    2    0.20464      0.99950     1.78244    0.01343     2.79536
      O    3   -0.25147      0.99985     3.24039    0.01124     4.25147
      C    4    0.27265      0.99954     1.71082    0.01698     2.72735
      N    5   -0.35622      0.99969     2.84753    0.00901     3.85622
      C    6   -0.00596      0.99932     1.99171    0.01492     3.00596
      C    7    0.02497      0.99953     1.96608    0.00942     2.97503
      N    8    0.27476      0.99972     2.19569    0.02982     3.22524
      O    9   -0.22627      0.99990     3.21859    0.00778     4.22627
      O   10   -0.16552      0.99989     3.15758    0.00804     4.16552
      H   11    0.09948      0.00000     0.39954    0.00099     0.40052
      H   12    0.07465      0.00000     0.42425    0.00110     0.42535
      H   13    0.15919      0.00000     0.33870    0.00212     0.34081
      H   14    0.10699      0.00000     0.39181    0.00120     0.39301
 =======================================================================
   * Total *    0.00000      9.99651    25.86810    0.13539    36.00000

 Normal termination of Gaussian 16 at Tue Dec  8 10:44:37 2020.
