 Gaussian 16, Revision A.03,

 -----------------------------------------------------------
 # opt freq B3LYP/6-31G(d) empiricaldispersion=gd3bj scf=xqc
 -----------------------------------------------------------

 ------------------------------
 CID_84077715_JID_1152_neutraal
 ------------------------------
 Symbolic Z-matrix:
 Charge =  0 Multiplicity = 1

 SCF Done:  E(RB3LYP) =  -515.263378485     A.U. after   13 cycles
 SCF Done:  E(RB3LYP) =  -515.273761302     A.U. after   12 cycles
 SCF Done:  E(RB3LYP) =  -515.274875855     A.U. after   12 cycles
 SCF Done:  E(RB3LYP) =  -515.275344188     A.U. after   11 cycles
 SCF Done:  E(RB3LYP) =  -515.275460995     A.U. after   11 cycles
 SCF Done:  E(RB3LYP) =  -515.275582840     A.U. after   11 cycles
 SCF Done:  E(RB3LYP) =  -515.275662289     A.U. after   11 cycles
 SCF Done:  E(RB3LYP) =  -515.275721244     A.U. after   10 cycles
 SCF Done:  E(RB3LYP) =  -515.275747580     A.U. after   10 cycles
 SCF Done:  E(RB3LYP) =  -515.275758773     A.U. after    9 cycles
 SCF Done:  E(RB3LYP) =  -515.277866300     A.U. after   10 cycles
 SCF Done:  E(RB3LYP) =  -515.277814934     A.U. after   11 cycles
 SCF Done:  E(RB3LYP) =  -515.277956507     A.U. after   11 cycles
 SCF Done:  E(RB3LYP) =  -515.277962994     A.U. after    9 cycles
 SCF Done:  E(RB3LYP) =  -515.277963210     A.U. after    8 cycles
 SCF Done:  E(RB3LYP) =  -515.277963498     A.U. after    8 cycles
 Optimization completed.
    -- Stationary point found.
 Normal termination of Gaussian 16 at Tue Dec  8 19:23:12 2020.

 --------------------------------------------------------------------
 #N Geom=AllCheck Guess=TCheck SCRF=Check GenChk RB3LYP/6-31G(d) Freq
 --------------------------------------------------------------------

 Structure from the checkpoint file:  "JID_1152.chk"
 ------------------------------
 CID_84077715_JID_1152_neutraal
 ------------------------------
 Charge =  0 Multiplicity = 1

 SCF Done:  E(RB3LYP) =  -515.277963498     A.U. after    1 cycles

  Exact polarizability:  93.792  -3.283  97.667   2.676   3.957  85.571
 Approx polarizability: 116.528  -7.504 139.119   2.817   9.952 132.771

                      1                      2                      3
                      A                      A                      A
 Frequencies --     53.3755                55.2736                80.6182
 Red. masses --      3.8473                 3.1791                 6.9032
 Frc consts  --      0.0065                 0.0057                 0.0264
 IR Inten    --      3.5867                 0.6797                 6.1766

                      4                      5                      6
                      A                      A                      A
 Frequencies --    129.5611               156.6560               180.0907
 Red. masses --      3.2177                 2.8147                 2.7061
 Frc consts  --      0.0318                 0.0407                 0.0517
 IR Inten    --      3.4737                 4.9838                 1.8213

                      7                      8                      9
                      A                      A                      A
 Frequencies --    210.0733               256.1451               305.6841
 Red. masses --      3.3299                 1.1454                 2.8455
 Frc consts  --      0.0866                 0.0443                 0.1567
 IR Inten    --      1.7632                 0.8915                 4.0585

                     10                     11                     12
                      A                      A                      A
 Frequencies --    323.5059               382.1440               411.7577
 Red. masses --      2.5925                 2.3304                 1.4194
 Frc consts  --      0.1599                 0.2005                 0.1418
 IR Inten    --      0.3815                 6.9290                23.2269

                     13                     14                     15
                      A                      A                      A
 Frequencies --    431.4805               522.6953               546.9823
 Red. masses --      1.5240                 2.5979                 2.1331
 Frc consts  --      0.1672                 0.4182                 0.3760
 IR Inten    --     43.5484                30.1595                68.0220

                     16                     17                     18
                      A                      A                      A
 Frequencies --    584.0428               601.8633               664.4205
 Red. masses --      1.7016                 2.3891                 1.5835
 Frc consts  --      0.3420                 0.5099                 0.4119
 IR Inten    --     83.9705                12.7337               131.0321

                     19                     20                     21
                      A                      A                      A
 Frequencies --    676.6093               780.6208               821.7005
 Red. masses --      1.8883                 5.4730                 2.8243
 Frc consts  --      0.5093                 1.9650                 1.1236
 IR Inten    --     21.7509                93.1311                 1.4976

                     22                     23                     24
                      A                      A                      A
 Frequencies --    854.9901               876.6828               900.2717
 Red. masses --      2.1732                 1.5230                 1.8669
 Frc consts  --      0.9360                 0.6896                 0.8915
 IR Inten    --     15.9200                12.2215                 4.7350

                     25                     26                     27
                      A                      A                      A
 Frequencies --    934.9122               942.0309               985.1917
 Red. masses --      2.0587                 2.4558                 1.7992
 Frc consts  --      1.0602                 1.2840                 1.0289
 IR Inten    --      1.3378                15.3908                 1.8777

                     28                     29                     30
                      A                      A                      A
 Frequencies --   1009.1099              1033.9031              1055.6302
 Red. masses --      1.9161                 2.5997                 2.2047
 Frc consts  --      1.1496                 1.6373                 1.4475
 IR Inten    --      0.7492                 5.3811                11.4218

                     31                     32                     33
                      A                      A                      A
 Frequencies --   1064.0245              1084.8976              1114.3979
 Red. masses --      1.5557                 2.0581                 1.6915
 Frc consts  --      1.0377                 1.4272                 1.2377
 IR Inten    --      2.0588                 3.2803                 5.4222

                     34                     35                     36
                      A                      A                      A
 Frequencies --   1128.8378              1148.0712              1190.7772
 Red. masses --      1.5723                 1.3272                 2.0192
 Frc consts  --      1.1805                 1.0307                 1.6869
 IR Inten    --     37.1998                14.1660                 4.0700

                     37                     38                     39
                      A                      A                      A
 Frequencies --   1206.8597              1224.5913              1239.1724
 Red. masses --      1.8076                 1.7135                 1.2952
 Frc consts  --      1.5512                 1.5140                 1.1718
 IR Inten    --      3.7734                33.0063                 5.2859

                     40                     41                     42
                      A                      A                      A
 Frequencies --   1289.5381              1305.6802              1333.8288
 Red. masses --      1.2827                 1.2970                 1.4891
 Frc consts  --      1.2567                 1.3027                 1.5609
 IR Inten    --      2.9929                 7.8423                 2.0076

                     43                     44                     45
                      A                      A                      A
 Frequencies --   1363.2788              1372.7522              1388.3656
 Red. masses --      1.3489                 1.3265                 1.3906
 Frc consts  --      1.4771                 1.4728                 1.5793
 IR Inten    --      9.4432                 5.3715                 1.0909

                     46                     47                     48
                      A                      A                      A
 Frequencies --   1395.2449              1424.3707              1440.0474
 Red. masses --      1.3713                 1.7109                 1.4955
 Frc consts  --      1.5729                 2.0451                 1.8272
 IR Inten    --     18.6219                62.2381                33.0549

                     49                     50                     51
                      A                      A                      A
 Frequencies --   1446.0821              1484.3953              1514.8724
 Red. masses --      2.3397                 1.3424                 1.0776
 Frc consts  --      2.8827                 1.7427                 1.4570
 IR Inten    --    185.1648                13.7814                 2.3390

                     52                     53                     54
                      A                      A                      A
 Frequencies --   1525.7593              1536.0418              1540.8251
 Red. masses --      1.0643                 1.0611                 1.0846
 Frc consts  --      1.4598                 1.4750                 1.5171
 IR Inten    --      5.1825                 2.2474                 3.1848

                     55                     56                     57
                      A                      A                      A
 Frequencies --   1568.1911              1653.1802              1809.1822
 Red. masses --      1.1108                 1.2189                 6.3179
 Frc consts  --      1.6095                 1.9627                12.1840
 IR Inten    --      3.0876               152.0311               371.2064

                     58                     59                     60
                      A                      A                      A
 Frequencies --   2991.1857              2997.0525              3025.4144
 Red. masses --      1.0677                 1.0697                 1.0697
 Frc consts  --      5.6284                 5.6613                 5.7689
 IR Inten    --     77.8002                88.6498                17.4875

                     61                     62                     63
                      A                      A                      A
 Frequencies --   3040.2069              3055.9803              3058.1518
 Red. masses --      1.0830                 1.0401                 1.0957
 Frc consts  --      5.8976                 5.7229                 6.0374
 IR Inten    --     45.0342                15.9962                52.3564

                     64                     65                     66
                      A                      A                      A
 Frequencies --   3083.1927              3099.1972              3120.7928
 Red. masses --      1.0871                 1.0929                 1.0933
 Frc consts  --      6.0884                 6.1851                 6.2734
 IR Inten    --     16.2137                43.0854                11.6251

                     67                     68                     69
                      A                      A                      A
 Frequencies --   3122.7359              3137.8140              3500.3930
 Red. masses --      1.1000                 1.1036                 1.0761
 Frc consts  --      6.3200                 6.4018                 7.7683
 IR Inten    --     37.7527                24.7127                 4.7841

                     70                     71                     72
                      A                      A                      A
 Frequencies --   3568.6538              3586.4807              3682.0245
 Red. masses --      1.0472                 1.0753                 1.1002
 Frc consts  --      7.8574                 8.1489                 8.7878
 IR Inten    --     21.1859                12.1590                25.8550

 - Thermochemistry -
 -------------------
 Temperature   298.150 Kelvin.  Pressure   1.00000 Atm.
 Atom     1 has atomic number  6 and mass  12.00000

 Molecular mass:   157.12151 amu.
 Principal axes and moments of inertia in atomic units:
                           1         2         3
     Eigenvalues --  1291.239742242.068472936.22156
           X            0.99958   0.02510   0.01440
           Y           -0.02492   0.99960  -0.01303
           Z           -0.01472   0.01267   0.99981
 This molecule is an asymmetric top.
 Rotational symmetry number  1.
 Warning -- assumption of classical behavior for rotation
           may cause significant error
 Rotational temperatures (Kelvin)      0.06708     0.03863     0.02950
 Rotational constants (GHZ):           1.39768     0.80494     0.61465
 Zero-point vibrational energy     607885.8 (Joules/Mol)
                                  145.28819 (Kcal/Mol)
 Warning -- explicit consideration of  17 degrees of freedom as
           vibrations may cause significant error
 Vibrational temperatures:     76.80    79.53   115.99   186.41   225.39
          (Kelvin)            259.11   302.25   368.54   439.81   465.45
                              549.82   592.43   620.80   752.04   786.99
                              840.31   865.95   955.95   973.49  1123.14
                             1182.24  1230.14  1261.35  1295.29  1345.13
                             1355.37  1417.47  1451.88  1487.56  1518.82
                             1530.89  1560.93  1603.37  1624.15  1651.82
                             1713.26  1736.40  1761.91  1782.89  1855.36
                             1878.58  1919.08  1961.45  1975.08  1997.55
                             2007.45  2049.35  2071.91  2080.59  2135.71
                             2179.56  2195.23  2210.02  2216.90  2256.28
                             2378.56  2603.01  4303.65  4312.09  4352.90
                             4374.18  4396.87  4400.00  4436.03  4459.05
                             4490.12  4492.92  4514.61  5036.28  5134.50
                             5160.15  5297.61

 Zero-point correction=                           0.231531 (Hartree/Particle)
 Thermal correction to Energy=                    0.243265
 Thermal correction to Enthalpy=                  0.244209
 Thermal correction to Gibbs Free Energy=         0.193460
 Sum of electronic and zero-point Energies=           -515.046432
 Sum of electronic and thermal Energies=              -515.034699
 Sum of electronic and thermal Enthalpies=            -515.033755
 Sum of electronic and thermal Free Energies=         -515.084504

                     E (Thermal)             CV                S
                      KCal/Mol        Cal/Mol-Kelvin    Cal/Mol-Kelvin
 Total                  152.651             44.011            106.811
 Electronic               0.000              0.000              0.000
 Translational            0.889              2.981             41.065
 Rotational               0.889              2.981             30.520
 Vibrational            150.874             38.049             35.226
 Vibration     1          0.596              1.976              4.688
 Vibration     2          0.596              1.975              4.619
 Vibration     3          0.600              1.962              3.876
 Vibration     4          0.612              1.924              2.953
 Vibration     5          0.620              1.895              2.590
 Vibration     6          0.629              1.867              2.327
 Vibration     7          0.642              1.825              2.043
 Vibration     8          0.666              1.752              1.688
 Vibration     9          0.696              1.663              1.386
 Vibration    10          0.708              1.628              1.292
 Vibration    11          0.752              1.508              1.031
 Vibration    12          0.776              1.445              0.920
 Vibration    13          0.793              1.402              0.854
 Vibration    14          0.878              1.200              0.604
 Vibration    15          0.902              1.146              0.550
 Vibration    16          0.941              1.066              0.478
 Vibration    17          0.960              1.028              0.446

                           ! Non-Optimized Parameters !
 Normal termination of Gaussian 16 at Tue Dec  8 19:29:04 2020.

 ----------------------------------------------------------------------
 # B3LYP/6-311++G(d,p) empiricaldispersion=gd3bj scf=xqc pop=npa geom=c
 heck
 ----------------------------------------------------------------------

 --------------------------------------
 CID_84077715_JID_1152_Energie_neutraal
 --------------------------------------
 Structure from the checkpoint file:  "JID_1152.chk"
 Charge =  0 Multiplicity = 1

 SCF Done:  E(RB3LYP) =  -515.441732491     A.U. after   13 cycles
 Normal termination of Gaussian 16 at Tue Dec  8 19:31:33 2020.

 ----------------------------------------------------------------------
 # B3LYP/6-311++G(d,p) empiricaldispersion=gd3bj scf=xqc pop=npa geom=c
 heck
 ----------------------------------------------------------------------

 ------------------------------------
 CID_84077715_JID_1152_Energie_kation
 ------------------------------------
 Structure from the checkpoint file:  "JID_1152.chk"
 Charge =  1 Multiplicity = 2

 SCF Done:  E(UB3LYP) =  -515.134239025     A.U. after   28 cycles
 Normal termination of Gaussian 16 at Tue Dec  8 19:38:56 2020.
 Gaussian 16:  ES64L-G16RevA.03 25-Dec-2016

 ----------------------------------------------------------------------
 # B3LYP/6-311++G(d,p) empiricaldispersion=gd3bj scf=xqc pop=npa geom=c
 heck
 ----------------------------------------------------------------------

 -----------------------------------
 CID_84077715_JID_1152_Energie_anion
 -----------------------------------
 Structure from the checkpoint file:  "JID_1152.chk"
 Charge = -1 Multiplicity = 2

                         Standard orientation:
 ---------------------------------------------------------------------
 Center     Atomic      Atomic             Coordinates (Angstroms)
 Number     Number       Type             X           Y           Z
 ---------------------------------------------------------------------
      1          6           0        0.655582    2.642861   -0.558579
      2          6           0        0.789100    1.356429    0.259879
      3          6           0       -0.554316    0.852581    0.829256
      4          6           0       -1.614119    0.467507   -0.202590
      5          6           0       -1.510783   -0.972359   -0.789147
      6          7           0       -2.489840   -1.423056    0.228504
      7          6           0       -2.939707   -0.029365    0.434746
      8          7           0        1.487485    0.361392   -0.562884
      9          6           0        1.941586   -0.862260   -0.103292
     10          8           0        2.013838   -1.846585   -0.830114
     11          7           0        2.292840   -0.904213    1.238428
     12          1           0        0.073046    2.476234   -1.472004
     13          1           0        1.641940    3.013600   -0.852919
     14          1           0        0.147001    3.418065    0.023436
     15          1           0        1.436269    1.586996    1.115840
     16          1           0       -0.361269   -0.009172    1.478339
     17          1           0       -0.959027    1.648649    1.471011
     18          1           0       -1.744214    1.259100   -0.946590
     19          1           0       -1.885164   -1.005731   -1.825019
     20          1           0       -0.547658   -1.489077   -0.749195
     21          1           0       -3.202149   -2.068121   -0.106642
     22          1           0       -3.120192    0.239013    1.484010
     23          1           0       -3.818404    0.266896   -0.160054
     24          1           0        1.131632    0.263901   -1.506597
     25          1           0        2.647792   -0.058816    1.665701
     26          1           0        2.812249   -1.740073    1.471623
 ---------------------------------------------------------------------

 SCF Done:  E(UB3LYP) =  -515.431057823     A.U. after   31 cycles

 The electronic state is 2-A.
 Alpha  occ. eigenvalues --  -18.97908 -14.22314 -14.22103 -14.19487 -10.19041
 Alpha  occ. eigenvalues --  -10.11058 -10.09152 -10.08684 -10.07386 -10.06190
 Alpha  occ. eigenvalues --  -10.06167  -0.94343  -0.82980  -0.82411  -0.78645
 Alpha  occ. eigenvalues --   -0.68320  -0.63278  -0.57158  -0.56896  -0.51368
 Alpha  occ. eigenvalues --   -0.49611  -0.44635  -0.43645  -0.42103  -0.39284
 Alpha  occ. eigenvalues --   -0.36265  -0.35611  -0.35128  -0.32700  -0.32165
 Alpha  occ. eigenvalues --   -0.30839  -0.29941  -0.28645  -0.28034  -0.26734
 Alpha  occ. eigenvalues --   -0.25970  -0.23043  -0.22055  -0.21153  -0.17828
 Alpha  occ. eigenvalues --   -0.16426  -0.14918  -0.12975   0.04285
 Alpha virt. eigenvalues --    0.06090   0.07452   0.08231   0.08987   0.09809
 Alpha virt. eigenvalues --    0.10029   0.10595   0.11730   0.12468   0.13033
 Alpha virt. eigenvalues --    0.13410   0.13829   0.14224   0.14895   0.15147

  Beta  occ. eigenvalues --  -18.97904 -14.22306 -14.22049 -14.19478 -10.19036
  Beta  occ. eigenvalues --  -10.11031 -10.09132 -10.08673 -10.07374 -10.06176
  Beta  occ. eigenvalues --  -10.06126  -0.94328  -0.82958  -0.82385  -0.78567
  Beta  occ. eigenvalues --   -0.68279  -0.63234  -0.57120  -0.56840  -0.51303
  Beta  occ. eigenvalues --   -0.49546  -0.44570  -0.43586  -0.42048  -0.39242
  Beta  occ. eigenvalues --   -0.36222  -0.35567  -0.35095  -0.32669  -0.32137
  Beta  occ. eigenvalues --   -0.30817  -0.29910  -0.28600  -0.27979  -0.26705
  Beta  occ. eigenvalues --   -0.25935  -0.23000  -0.22019  -0.21124  -0.17793
  Beta  occ. eigenvalues --   -0.16394  -0.14905  -0.12949
  Beta virt. eigenvalues --    0.06639   0.07467   0.08162   0.08730   0.09594
  Beta virt. eigenvalues --    0.10310   0.10688   0.10960   0.12180   0.12835
  Beta virt. eigenvalues --    0.13276   0.13817   0.14105   0.14876   0.15002

 Mulliken charges and spin densities:
               1          2
     1  C    1.969892  -2.588689
     2  C   -1.488313   1.348412
     3  C    0.624666  -1.071583
     4  C   -0.664889   0.905062
     5  C   -0.673745   0.185135
     6  N   -0.271444   0.104126
     7  C    1.454002  -1.940593
     8  N    0.033236  -0.077752
     9  C    0.797755  -0.776713
    10  O   -0.386014   0.018510
    11  N   -0.453911   0.104327
    12  H   -0.411796   0.549479
    13  H   -0.287563   0.461328
    14  H   -0.220790   0.369582
    15  H   -0.879912   1.052652
    16  H    0.304481  -0.110331
    17  H   -0.258409   0.416194
    18  H    0.186510   0.010591
    19  H   -0.288459   0.417021
    20  H    0.125591   0.079267
    21  H    0.171295   0.055583
    22  H    0.072573   0.091453
    23  H   -0.550920   0.682258
    24  H    0.350997  -0.091144
    25  H   -0.300652   0.559096
    26  H    0.045821   0.246725
 Sum of Mulliken charges =  -1.00000   1.00000

 Dipole moment (field-independent basis, Debye):
    X=             -2.0222    Y=             -2.4564    Z=             -1.2995  Tot=              3.4368
 Quadrupole moment (field-independent basis, Debye-Ang):
   XX=           -123.3291   YY=           -115.9916   ZZ=           -103.0204
   XY=              0.9384   XZ=             -6.2742   YZ=             -4.4731

 Summary of Natural Population Analysis:

                                       Natural Population
                Natural  -----------------------------------------------
    Atom  No    Charge         Core      Valence    Rydberg      Total
 -----------------------------------------------------------------------
      C    1   -0.28653      0.99964     2.28030    0.00658     3.28653
      C    2   -0.00985      0.99959     1.99628    0.01397     3.00985
      C    3   -0.19738      0.99959     2.18734    0.01045     3.19738
      C    4   -0.11993      0.99958     2.10807    0.01229     3.11993
      C    5   -0.08607      0.99963     2.07562    0.01083     3.08607
      N    6   -0.34472      0.99976     2.83355    0.01141     3.84472
      C    7   -0.07779      0.99964     2.06715    0.01100     3.07779
      N    8   -0.33667      0.99967     2.82612    0.01088     3.83667
      C    9    0.40440      0.99973     1.57232    0.02355     2.59560
      O   10   -0.34221      0.99988     3.33699    0.00534     4.34221
      N   11   -0.41605      0.99972     2.90798    0.00835     3.91605
      H   12    0.09526      0.00000     0.40331    0.00143     0.40474
      H   13    0.10528      0.00000     0.39337    0.00134     0.39472
      H   14    0.10504      0.00000     0.39349    0.00147     0.39496
      H   15    0.09717      0.00000     0.39872    0.00411     0.40283
      H   16    0.10816      0.00000     0.38951    0.00233     0.39184
      H   17    0.10137      0.00000     0.39729    0.00134     0.39863
      H   18    0.09887      0.00000     0.39931    0.00182     0.40113
      H   19    0.08164      0.00000     0.41701    0.00135     0.41836
      H   20    0.09940      0.00000     0.39897    0.00164     0.40060
      H   21    0.17028      0.00000     0.32797    0.00176     0.32972
      H   22    0.08659      0.00000     0.41213    0.00128     0.41341
      H   23    0.08390      0.00000     0.41427    0.00182     0.41610
      H   24    0.19084      0.00000     0.30683    0.00234     0.30916
      H   25    0.19515      0.00000     0.29966    0.00519     0.30485
      H   26    0.19386      0.00000     0.30457    0.00157     0.30614
 =======================================================================
   * Total *   -0.00000     10.99643    31.84812    0.15545    43.00000

 Normal termination of Gaussian 16 at Tue Dec  8 19:47:11 2020.
