 Gaussian 16, Revision A.03,

 -----------------------------------------------------------
 # opt freq B3LYP/6-31G(d) empiricaldispersion=gd3bj scf=xqc
 -----------------------------------------------------------

 -------------------------------
 CID_142524124_JID_1836_neutraal
 -------------------------------
 Symbolic Z-matrix:
 Charge =  0 Multiplicity = 1

 SCF Done:  E(RB3LYP) =  -431.233647115     A.U. after   14 cycles
 SCF Done:  E(RB3LYP) =  -431.234667241     A.U. after   12 cycles
 SCF Done:  E(RB3LYP) =  -431.234445960     A.U. after   11 cycles
 SCF Done:  E(RB3LYP) =  -431.234941419     A.U. after   11 cycles
 SCF Done:  E(RB3LYP) =  -431.235319243     A.U. after   11 cycles
 SCF Done:  E(RB3LYP) =  -431.235625665     A.U. after   12 cycles
 SCF Done:  E(RB3LYP) =  -431.235698727     A.U. after    9 cycles
 SCF Done:  E(RB3LYP) =  -431.235706969     A.U. after   10 cycles
 SCF Done:  E(RB3LYP) =  -431.235708952     A.U. after   10 cycles
 SCF Done:  E(RB3LYP) =  -431.235710220     A.U. after    9 cycles
 SCF Done:  E(RB3LYP) =  -431.235709618     A.U. after    9 cycles
 SCF Done:  E(RB3LYP) =  -431.235710026     A.U. after    7 cycles
 Optimization completed.
    -- Stationary point found.
 Normal termination of Gaussian 16 at Tue Dec  8 21:20:23 2020.

 --------------------------------------------------------------------
 #N Geom=AllCheck Guess=TCheck SCRF=Check GenChk RB3LYP/6-31G(d) Freq
 --------------------------------------------------------------------

 Structure from the checkpoint file:  "JID_1836.chk"
 -------------------------------
 CID_142524124_JID_1836_neutraal
 -------------------------------
 Charge =  0 Multiplicity = 1

 SCF Done:  E(RB3LYP) =  -431.235710026     A.U. after    1 cycles

  Exact polarizability: 159.148  16.832 100.952   8.022   1.981 104.541
 Approx polarizability: 220.885  33.009 135.827  21.418   6.663 155.618

                      1                      2                      3
                      A                      A                      A
 Frequencies --     35.4976                43.3545                94.3792
 Red. masses --      3.7655                 2.4700                 2.8747
 Frc consts  --      0.0028                 0.0027                 0.0151
 IR Inten    --      0.0157                 0.0222                 0.0107

                      4                      5                      6
                      A                      A                      A
 Frequencies --    110.1167               143.5318               149.0912
 Red. masses --      2.9834                 2.1108                 1.8555
 Frc consts  --      0.0213                 0.0256                 0.0243
 IR Inten    --      0.0142                 0.2337                 0.0201

                      7                      8                      9
                      A                      A                      A
 Frequencies --    182.0337               221.5859               235.1800
 Red. masses --      2.0053                 1.7647                 1.8065
 Frc consts  --      0.0391                 0.0511                 0.0589
 IR Inten    --      0.0505                 0.0736                 0.1228

                     10                     11                     12
                      A                      A                      A
 Frequencies --    241.8192               252.3823               285.6335
 Red. masses --      1.2365                 1.2565                 1.6953
 Frc consts  --      0.0426                 0.0472                 0.0815
 IR Inten    --      0.1108                 0.1204                 0.0263

                     13                     14                     15
                      A                      A                      A
 Frequencies --    336.9223               348.8121               384.6497
 Red. masses --      2.8215                 2.4240                 2.0740
 Frc consts  --      0.1887                 0.1738                 0.1808
 IR Inten    --      2.2312                 0.5757                 0.1881

                     16                     17                     18
                      A                      A                      A
 Frequencies --    412.7795               432.8891               469.2465
 Red. masses --      2.5656                 1.9856                 2.2619
 Frc consts  --      0.2576                 0.2192                 0.2935
 IR Inten    --      0.0460                 0.3675                 2.7951

                     19                     20                     21
                      A                      A                      A
 Frequencies --    568.6582               661.1300               693.8692
 Red. masses --      1.7806                 3.4771                 1.6777
 Frc consts  --      0.3392                 0.8954                 0.4759
 IR Inten    --      9.1373                 1.0066                 6.2078

                     22                     23                     24
                      A                      A                      A
 Frequencies --    779.7721               804.0648               821.3135
 Red. masses --      2.4854                 1.4509                 1.5853
 Frc consts  --      0.8904                 0.5527                 0.6301
 IR Inten    --      4.0367                 1.1777                 9.8937

                     25                     26                     27
                      A                      A                      A
 Frequencies --    877.0322               888.0037               922.7347
 Red. masses --      1.7536                 1.8803                 1.3764
 Frc consts  --      0.7947                 0.8736                 0.6905
 IR Inten    --      3.2576                 1.8470                40.9441

                     28                     29                     30
                      A                      A                      A
 Frequencies --    936.8557               944.0796               945.7733
 Red. masses --      1.5725                 1.6546                 1.3298
 Frc consts  --      0.8132                 0.8689                 0.7008
 IR Inten    --      2.5509                 4.0653                 0.2052

                     31                     32                     33
                      A                      A                      A
 Frequencies --    979.9823               994.6888              1005.8204
 Red. masses --      1.4989                 1.2930                 1.9000
 Frc consts  --      0.8481                 0.7537                 1.1325
 IR Inten    --      0.6762                 2.3333                 1.5953

                     34                     35                     36
                      A                      A                      A
 Frequencies --   1030.7574              1046.5603              1072.9455
 Red. masses --      1.8511                 1.1157                 2.0328
 Frc consts  --      1.1588                 0.7200                 1.3788
 IR Inten    --     10.4543                 9.8402                 0.3182

                     37                     38                     39
                      A                      A                      A
 Frequencies --   1078.8473              1130.8612              1151.7239
 Red. masses --      1.4690                 1.6474                 2.1701
 Frc consts  --      1.0074                 1.2413                 1.6960
 IR Inten    --      0.4112                 0.4623                 2.4212

                     40                     41                     42
                      A                      A                      A
 Frequencies --   1198.2254              1203.8086              1212.0433
 Red. masses --      2.0546                 1.9576                 2.1716
 Frc consts  --      1.7380                 1.6715                 1.8796
 IR Inten    --      4.8288                 2.6887                 2.8303

                     43                     44                     45
                      A                      A                      A
 Frequencies --   1282.1219              1290.4297              1299.7797
 Red. masses --      1.2655                 1.3252                 1.1709
 Frc consts  --      1.2256                 1.3001                 1.1655
 IR Inten    --      0.2332                 1.6569                 1.0556

                     46                     47                     48
                      A                      A                      A
 Frequencies --   1319.8965              1336.6763              1353.9459
 Red. masses --      1.2782                 1.2793                 1.2506
 Frc consts  --      1.3120                 1.3467                 1.3508
 IR Inten    --     12.2143                 1.3547                 4.3456

                     49                     50                     51
                      A                      A                      A
 Frequencies --   1368.1747              1392.2773              1401.6457
 Red. masses --      1.2609                 1.3467                 1.4225
 Frc consts  --      1.3907                 1.5380                 1.6466
 IR Inten    --      4.2772                 3.5047                 1.1481

                     52                     53                     54
                      A                      A                      A
 Frequencies --   1421.7076              1425.1320              1430.7144
 Red. masses --      1.4073                 1.4191                 1.2638
 Frc consts  --      1.6760                 1.6981                 1.5241
 IR Inten    --      0.1481                 0.1466                 4.3882

                     55                     56                     57
                      A                      A                      A
 Frequencies --   1442.0349              1452.2403              1492.1518
 Red. masses --      1.2572                 1.2349                 1.3574
 Frc consts  --      1.5403                 1.5345                 1.7807
 IR Inten    --      3.7888                 5.2291                 3.5130

                     58                     59                     60
                      A                      A                      A
 Frequencies --   1509.5618              1517.4760              1523.2782
 Red. masses --      1.0724                 1.0510                 1.0524
 Frc consts  --      1.4398                 1.4259                 1.4388
 IR Inten    --      1.1934                 0.8947                 0.6683

                     61                     62                     63
                      A                      A                      A
 Frequencies --   1526.4487              1531.6201              1534.6967
 Red. masses --      1.0588                 1.0572                 1.0565
 Frc consts  --      1.4535                 1.4611                 1.4661
 IR Inten    --      2.4845                 6.8615                 3.3851

                     64                     65                     66
                      A                      A                      A
 Frequencies --   1539.5505              1541.6456              1675.3997
 Red. masses --      1.0531                 1.0586                 4.6585
 Frc consts  --      1.4707                 1.4823                 7.7044
 IR Inten    --     20.4787                 1.2350                 2.5726

                     67                     68                     69
                      A                      A                      A
 Frequencies --   1727.2042              3008.6729              3023.2400
 Red. masses --      5.1727                 1.0804                 1.0814
 Frc consts  --      9.0919                 5.7621                 5.8233
 IR Inten    --      3.6142                 8.5402                14.9639

                     70                     71                     72
                      A                      A                      A
 Frequencies --   3032.8848              3036.2350              3038.1879
 Red. masses --      1.0553                 1.0607                 1.0417
 Frc consts  --      5.7195                 5.7611                 5.6651
 IR Inten    --     12.1688                16.9312                54.5104

                     73                     74                     75
                      A                      A                      A
 Frequencies --   3047.0448              3048.0571              3066.8984
 Red. masses --      1.0379                 1.0401                 1.1012
 Frc consts  --      5.6775                 5.6935                 6.1026
 IR Inten    --     43.3572                13.8867                24.6352

                     76                     77                     78
                      A                      A                      A
 Frequencies --   3070.0708              3100.9393              3106.6271
 Red. masses --      1.1022                 1.1020                 1.1020
 Frc consts  --      6.1210                 6.2432                 6.2664
 IR Inten    --     45.9478                11.5412                51.9384

                     79                     80                     81
                      A                      A                      A
 Frequencies --   3110.2934              3110.9867              3120.7013
 Red. masses --      1.1018                 1.1016                 1.1018
 Frc consts  --      6.2798                 6.2814                 6.3221
 IR Inten    --      3.0920               114.9828                46.8815

                     82                     83                     84
                      A                      A                      A
 Frequencies --   3133.9264              3143.8039              3160.2272
 Red. masses --      1.0966                 1.0850                 1.0620
 Frc consts  --      6.3454                 6.3181                 6.2491
 IR Inten    --     30.6049                 3.9152                 9.8127

                     85                     86                     87
                      A                      A                      A
 Frequencies --   3166.4604              3173.4684              3245.5750
 Red. masses --      1.0898                 1.0910                 1.1155
 Frc consts  --      6.4380                 6.4733                 6.9231
 IR Inten    --     25.9381                18.6021                17.2885

 - Thermochemistry -
 -------------------
 Temperature   298.150 Kelvin.  Pressure   1.00000 Atm.
 Atom     1 has atomic number  6 and mass  12.00000

 Molecular mass:   152.15650 amu.
 Principal axes and moments of inertia in atomic units:
                           1         2         3
     Eigenvalues --  1491.327942791.933293523.25977
           X            0.99998   0.00601  -0.00184
           Y           -0.00602   0.99995  -0.00818
           Z            0.00179   0.00819   0.99996
 This molecule is an asymmetric top.
 Rotational symmetry number  1.
 Warning -- assumption of classical behavior for rotation
           may cause significant error
 Rotational temperatures (Kelvin)      0.05808     0.03102     0.02458
 Rotational constants (GHZ):           1.21016     0.64641     0.51224
 Zero-point vibrational energy     751312.1 (Joules/Mol)
                                  179.56789 (Kcal/Mol)
 Warning -- explicit consideration of  19 degrees of freedom as
           vibrations may cause significant error
 Vibrational temperatures:     51.07    62.38   135.79   158.43   206.51
          (Kelvin)            214.51   261.91   318.81   338.37   347.92
                              363.12   410.96   484.76   501.86   553.43
                              593.90   622.83   675.14   818.17   951.22
                              998.32  1121.92  1156.87  1181.69  1261.85
                             1277.64  1327.61  1347.93  1358.32  1360.76
                             1409.98  1431.14  1447.15  1483.03  1505.77
                             1543.73  1552.22  1627.06  1657.07  1723.98
                             1732.01  1743.86  1844.69  1856.64  1870.09
                             1899.04  1923.18  1948.03  1968.50  2003.18
                             2016.66  2045.52  2050.45  2058.48  2074.77
                             2089.45  2146.87  2171.92  2183.31  2191.66
                             2196.22  2203.66  2208.09  2215.07  2218.08
                             2410.53  2485.06  4328.81  4349.77  4363.64
                             4368.46  4371.27  4384.02  4385.47  4412.58
                             4417.15  4461.56  4469.74  4475.02  4476.02
                             4489.99  4509.02  4523.23  4546.86  4555.83
                             4565.91  4669.66

 Zero-point correction=                           0.286160 (Hartree/Particle)
 Thermal correction to Energy=                    0.299845
 Thermal correction to Enthalpy=                  0.300790
 Thermal correction to Gibbs Free Energy=         0.245814
 Sum of electronic and zero-point Energies=           -430.949550
 Sum of electronic and thermal Energies=              -430.935865
 Sum of electronic and thermal Enthalpies=            -430.934920
 Sum of electronic and thermal Free Energies=         -430.989896

                     E (Thermal)             CV                S
                      KCal/Mol        Cal/Mol-Kelvin    Cal/Mol-Kelvin
 Total                  188.156             50.690            115.707
 Electronic               0.000              0.000              0.000
 Translational            0.889              2.981             40.969
 Rotational               0.889              2.981             31.062
 Vibrational            186.378             44.729             43.675
 Vibration     1          0.594              1.982              5.496
 Vibration     2          0.595              1.980              5.100
 Vibration     3          0.603              1.953              3.567
 Vibration     4          0.606              1.941              3.267
 Vibration     5          0.616              1.910              2.756
 Vibration     6          0.618              1.904              2.684
 Vibration     7          0.630              1.864              2.307
 Vibration     8          0.648              1.808              1.946
 Vibration     9          0.655              1.787              1.839
 Vibration    10          0.658              1.776              1.789
 Vibration    11          0.664              1.759              1.714
 Vibration    12          0.683              1.700              1.500
 Vibration    13          0.718              1.602              1.227
 Vibration    14          0.726              1.578              1.172
 Vibration    15          0.754              1.503              1.021
 Vibration    16          0.777              1.442              0.917
 Vibration    17          0.794              1.399              0.849
 Vibration    18          0.826              1.318              0.740
 Vibration    19          0.925              1.099              0.507

 Optimization completed.
    -- Stationary point found.
 Normal termination of Gaussian 16 at Tue Dec  8 21:28:11 2020.

 ----------------------------------------------------------------------
 # B3LYP/6-311++G(d,p) empiricaldispersion=gd3bj scf=xqc pop=npa geom=c
 heck
 ----------------------------------------------------------------------

 ---------------------------------------
 CID_142524124_JID_1836_Energie_neutraal
 ---------------------------------------
 Structure from the checkpoint file:  "JID_1836.chk"
 Charge =  0 Multiplicity = 1

 SCF Done:  E(RB3LYP) =  -431.357629515     A.U. after   13 cycles
 Normal termination of Gaussian 16 at Tue Dec  8 21:32:40 2020.

 ----------------------------------------------------------------------
 # B3LYP/6-311++G(d,p) empiricaldispersion=gd3bj scf=xqc pop=npa geom=c
 heck
 ----------------------------------------------------------------------

 -------------------------------------
 CID_142524124_JID_1836_Energie_kation
 -------------------------------------
 Structure from the checkpoint file:  "JID_1836.chk"
 Charge =  1 Multiplicity = 2

 SCF Done:  E(UB3LYP) =  -431.058828528     A.U. after   19 cycles
 Normal termination of Gaussian 16 at Tue Dec  8 21:40:20 2020.
 Gaussian 16:  ES64L-G16RevA.03 25-Dec-2016

 ----------------------------------------------------------------------
 # B3LYP/6-311++G(d,p) empiricaldispersion=gd3bj scf=xqc pop=npa geom=c
 heck
 ----------------------------------------------------------------------

 ------------------------------------
 CID_142524124_JID_1836_Energie_anion
 ------------------------------------
 Structure from the checkpoint file:  "JID_1836.chk"
 Charge = -1 Multiplicity = 2

                         Standard orientation:
 ---------------------------------------------------------------------
 Center     Atomic      Atomic             Coordinates (Angstroms)
 Number     Number       Type             X           Y           Z
 ---------------------------------------------------------------------
      1          6           0        1.997774    2.501857   -0.553080
      2          6           0        1.014916    1.954478    0.483977
      3          6           0        0.003144    0.937703   -0.078490
      4          6           0        0.675329   -0.293484   -0.747281
      5          6           0        1.744747   -1.059850    0.051004
      6          6           0        1.204590   -1.710610    1.330704
      7          6           0        2.386648   -2.123149   -0.852162
      8          6           0       -1.008011    0.565737    0.983257
      9          6           0       -2.259002    0.119044    0.771799
     10          6           0       -2.883434   -0.092103   -0.526107
     11          6           0       -4.122814   -0.578309   -0.689541
     12          1           0        2.651151    1.717492   -0.949763
     13          1           0        2.638358    3.275553   -0.115872
     14          1           0        1.465308    2.949900   -1.401105
     15          1           0        1.569243    1.495868    1.314064
     16          1           0        0.451689    2.788273    0.923173
     17          1           0       -0.539328    1.446499   -0.888616
     18          1           0       -0.115167   -0.997990   -1.037556
     19          1           0        1.136251    0.047870   -1.683703
     20          1           0        2.535816   -0.352702    0.338553
     21          1           0        0.350712   -2.361486    1.106724
     22          1           0        1.979330   -2.322054    1.808719
     23          1           0        0.868430   -0.969726    2.060852
     24          1           0        2.817241   -1.675070   -1.755389
     25          1           0        3.185701   -2.658879   -0.326805
     26          1           0        1.641813   -2.864125   -1.169912
     27          1           0       -0.681292    0.676818    2.016198
     28          1           0       -2.879381   -0.115574    1.636608
     29          1           0       -2.299959    0.163636   -1.408679
     30          1           0       -4.557406   -0.720403   -1.674212
     31          1           0       -4.741832   -0.851789    0.162238
 ---------------------------------------------------------------------

 SCF Done:  E(UB3LYP) =  -431.345127242     A.U. after   31 cycles

 The electronic state is 2-A.
 Alpha  occ. eigenvalues --  -10.06028 -10.05787 -10.05438 -10.04728 -10.04714
 Alpha  occ. eigenvalues --  -10.04682 -10.04642 -10.04424 -10.04033 -10.03824
 Alpha  occ. eigenvalues --  -10.03567  -0.71544  -0.68169  -0.66468  -0.62019
 Alpha  occ. eigenvalues --   -0.58615  -0.57221  -0.53733  -0.48107  -0.47090
 Alpha  occ. eigenvalues --   -0.43573  -0.40854  -0.36572  -0.35601  -0.34359
 Alpha  occ. eigenvalues --   -0.32755  -0.32040  -0.31051  -0.29280  -0.28224
 Alpha  occ. eigenvalues --   -0.27663  -0.26782  -0.26539  -0.25714  -0.23982
 Alpha  occ. eigenvalues --   -0.23393  -0.22405  -0.22238  -0.21236  -0.20081
 Alpha  occ. eigenvalues --   -0.19382  -0.18625  -0.10764   0.04936
 Alpha virt. eigenvalues --    0.07133   0.07700   0.08472   0.08614   0.09870
 Alpha virt. eigenvalues --    0.10054   0.10418   0.10750   0.10952   0.12234
 Alpha virt. eigenvalues --    0.12625   0.12830   0.13148   0.13772   0.14125

  Beta  occ. eigenvalues --  -10.06021 -10.05796 -10.05430 -10.04675 -10.04664
  Beta  occ. eigenvalues --  -10.04656 -10.04609 -10.04402 -10.03983 -10.03639
  Beta  occ. eigenvalues --  -10.03372  -0.71434  -0.68003  -0.66323  -0.61793
  Beta  occ. eigenvalues --   -0.58478  -0.57157  -0.53620  -0.47925  -0.46771
  Beta  occ. eigenvalues --   -0.43485  -0.40712  -0.36491  -0.35501  -0.34254
  Beta  occ. eigenvalues --   -0.32697  -0.31984  -0.30978  -0.29208  -0.28119
  Beta  occ. eigenvalues --   -0.27621  -0.26721  -0.26475  -0.25640  -0.23899
  Beta  occ. eigenvalues --   -0.23341  -0.22343  -0.22166  -0.20959  -0.19987
  Beta  occ. eigenvalues --   -0.19256  -0.18124  -0.09697
  Beta virt. eigenvalues --    0.07350   0.08330   0.08517   0.08553   0.09333
  Beta virt. eigenvalues --    0.10118   0.10248   0.10703   0.11015   0.11235
  Beta virt. eigenvalues --    0.12354   0.12780   0.13077   0.13351   0.13913

 Mulliken charges and spin densities:
               1          2
     1  C    1.230310  -1.887263
     2  C   -1.507716   1.231601
     3  C    1.292821  -0.298583
     4  C    0.997888  -1.703702
     5  C   -1.697763   2.010688
     6  C    0.065276  -0.686468
     7  C    1.041764  -1.648400
     8  C   -0.577123   0.425097
     9  C   -0.364989  -0.208177
    10  C    0.079626   0.109185
    11  C   -0.799133   0.241791
    12  H   -0.182911   0.338230
    13  H   -0.468135   0.603466
    14  H   -0.189495   0.320126
    15  H   -0.026306   0.164700
    16  H    0.132393   0.021931
    17  H   -0.004236   0.211798
    18  H    0.147956  -0.023278
    19  H    0.122248   0.035083
    20  H   -0.064929   0.213085
    21  H    0.078045   0.060103
    22  H   -0.197666   0.338896
    23  H    0.152996  -0.034640
    24  H   -0.293787   0.426347
    25  H   -0.332308   0.467460
    26  H    0.013937   0.112407
    27  H    0.054398   0.065688
    28  H    0.130980  -0.011040
    29  H    0.016147   0.088586
    30  H    0.082947   0.012807
    31  H    0.066765   0.002475
 Sum of Mulliken charges =  -1.00000   1.00000

 Dipole moment (field-independent basis, Debye):
    X=             -3.2212    Y=             -0.3519    Z=              2.1755  Tot=              3.9029
 Quadrupole moment (field-independent basis, Debye-Ang):
   XX=           -136.7179   YY=           -114.4150   ZZ=            -96.4385
   XY=             -0.8648   XZ=              1.8272   YZ=              2.9220

 Summary of Natural Population Analysis:

                                       Natural Population
                Natural  -----------------------------------------------
    Atom  No    Charge         Core      Valence    Rydberg      Total
 -----------------------------------------------------------------------
      C    1   -0.28644      0.99967     2.28156    0.00521     3.28644
      C    2   -0.18524      0.99963     2.17653    0.00908     3.18524
      C    3   -0.13116      0.99957     2.11998    0.01161     3.13116
      C    4   -0.18232      0.99959     2.17255    0.01017     3.18232
      C    5   -0.11982      0.99961     2.11051    0.00970     3.11982
      C    6   -0.28406      0.99965     2.27820    0.00622     3.28406
      C    7   -0.28068      0.99965     2.27472    0.00630     3.28068
      C    8   -0.04217      0.99953     2.03318    0.00946     3.04217
      C    9   -0.11274      0.99951     2.10396    0.00926     3.11274
      C   10   -0.10013      0.99956     2.09187    0.00869     3.10013
      C   11   -0.16040      0.99960     2.15259    0.00821     3.16040
      H   12    0.09930      0.00000     0.39915    0.00156     0.40070
      H   13    0.09751      0.00000     0.40146    0.00103     0.40249
      H   14    0.09562      0.00000     0.40320    0.00117     0.40438
      H   15    0.09246      0.00000     0.40632    0.00123     0.40754
      H   16    0.09490      0.00000     0.40402    0.00107     0.40510
      H   17    0.09946      0.00000     0.39821    0.00233     0.40054
      H   18    0.09899      0.00000     0.39955    0.00147     0.40101
      H   19    0.09878      0.00000     0.39996    0.00126     0.40122
      H   20    0.09303      0.00000     0.40470    0.00226     0.40697
      H   21    0.09747      0.00000     0.40176    0.00078     0.40253
      H   22    0.09535      0.00000     0.40381    0.00084     0.40465
      H   23    0.10056      0.00000     0.39859    0.00085     0.39944
      H   24    0.09958      0.00000     0.39935    0.00108     0.40042
      H   25    0.09769      0.00000     0.40119    0.00111     0.40231
      H   26    0.09359      0.00000     0.40549    0.00092     0.40641
      H   27    0.08626      0.00000     0.41237    0.00137     0.41374
      H   28    0.08720      0.00000     0.41081    0.00200     0.41280
      H   29    0.09046      0.00000     0.40789    0.00165     0.40954
      H   30    0.08546      0.00000     0.41357    0.00098     0.41454
      H   31    0.08148      0.00000     0.41735    0.00117     0.41852
 =======================================================================
   * Total *    0.00000     10.99557    31.88438    0.12004    43.00000

 Normal termination of Gaussian 16 at Tue Dec  8 21:51:59 2020.
