 Gaussian 16, Revision A.03,

 -----------------------------------------------------------
 # opt freq B3LYP/6-31G(d) empiricaldispersion=gd3bj scf=xqc
 -----------------------------------------------------------

 ------------------------------
 CID_80560324_JID_2830_neutraal
 ------------------------------
 Symbolic Z-matrix:
 Charge =  0 Multiplicity = 1

 SCF Done:  E(RB3LYP) =  -523.692948246     A.U. after   13 cycles
 SCF Done:  E(RB3LYP) =  -523.698943612     A.U. after   11 cycles
 SCF Done:  E(RB3LYP) =  -523.699206193     A.U. after   11 cycles
 SCF Done:  E(RB3LYP) =  -523.699815346     A.U. after   10 cycles
 SCF Done:  E(RB3LYP) =  -523.700063183     A.U. after   11 cycles
 SCF Done:  E(RB3LYP) =  -523.700227301     A.U. after   10 cycles
 SCF Done:  E(RB3LYP) =  -523.700310341     A.U. after   10 cycles
 SCF Done:  E(RB3LYP) =  -523.700362794     A.U. after   10 cycles
 SCF Done:  E(RB3LYP) =  -523.700409112     A.U. after   10 cycles
 SCF Done:  E(RB3LYP) =  -523.700431671     A.U. after   10 cycles
 SCF Done:  E(RB3LYP) =  -523.700553578     A.U. after   10 cycles
 SCF Done:  E(RB3LYP) =  -523.700563823     A.U. after    9 cycles
 SCF Done:  E(RB3LYP) =  -523.700564216     A.U. after    7 cycles
 SCF Done:  E(RB3LYP) =  -523.700564568     A.U. after    7 cycles
 SCF Done:  E(RB3LYP) =  -523.700564632     A.U. after    7 cycles
 SCF Done:  E(RB3LYP) =  -523.700564606     A.U. after    7 cycles
 Optimization completed on the basis of negligible forces.
    -- Stationary point found.
 Normal termination of Gaussian 16 at Wed Dec  9 18:10:35 2020.

 --------------------------------------------------------------------
 #N Geom=AllCheck Guess=TCheck SCRF=Check GenChk RB3LYP/6-31G(d) Freq
 --------------------------------------------------------------------

 Structure from the checkpoint file:  "JID_2830.chk"
 ------------------------------
 CID_80560324_JID_2830_neutraal
 ------------------------------
 Charge =  0 Multiplicity = 1

 SCF Done:  E(RB3LYP) =  -523.700564606     A.U. after    1 cycles

  Exact polarizability: 123.152   0.912 109.636  -1.013   0.169 104.233
 Approx polarizability: 154.239  -1.396 154.174  -1.241  -1.731 156.702

                      1                      2                      3
                      A                      A                      A
 Frequencies --     37.5014                59.5283               111.4205
 Red. masses --      2.5640                 3.0884                 2.3878
 Frc consts  --      0.0021                 0.0064                 0.0175
 IR Inten    --      0.1665                 0.2116                 0.5668

                      4                      5                      6
                      A                      A                      A
 Frequencies --    130.8197               146.3840               186.0518
 Red. masses --      1.9181                 2.5245                 2.3513
 Frc consts  --      0.0193                 0.0319                 0.0480
 IR Inten    --      0.4752                 2.3788                 2.3951

                      7                      8                      9
                      A                      A                      A
 Frequencies --    214.2192               237.6194               247.1958
 Red. masses --      1.6529                 1.3275                 1.4260
 Frc consts  --      0.0447                 0.0442                 0.0513
 IR Inten    --     12.9053                 3.4835                74.6844

                     10                     11                     12
                      A                      A                      A
 Frequencies --    267.9543               277.7656               292.9100
 Red. masses --      1.8777                 1.0935                 2.1124
 Frc consts  --      0.0794                 0.0497                 0.1068
 IR Inten    --     31.9984                 8.3896                 5.1759

                     13                     14                     15
                      A                      A                      A
 Frequencies --    313.4166               328.1270               345.3711
 Red. masses --      2.1532                 2.6473                 2.2531
 Frc consts  --      0.1246                 0.1679                 0.1583
 IR Inten    --     19.6915                 4.1417                11.5611

                     16                     17                     18
                      A                      A                      A
 Frequencies --    378.9510               380.9989               420.6738
 Red. masses --      2.2842                 2.7807                 2.8963
 Frc consts  --      0.1933                 0.2378                 0.3020
 IR Inten    --      6.6477                 0.3132                 2.6490

                     19                     20                     21
                      A                      A                      A
 Frequencies --    447.8603               500.2950               554.9110
 Red. masses --      2.2135                 2.6966                 3.2007
 Frc consts  --      0.2616                 0.3977                 0.5807
 IR Inten    --      3.6532                 2.4902                 6.4053

                     22                     23                     24
                      A                      A                      A
 Frequencies --    651.9888               702.9162               781.3477
 Red. masses --      2.4089                 1.5825                 1.5308
 Frc consts  --      0.6033                 0.4607                 0.5506
 IR Inten    --      4.0997                 4.1785                 8.2038

                     25                     26                     27
                      A                      A                      A
 Frequencies --    804.2249               826.7463               858.1954
 Red. masses --      1.2327                 1.9999                 1.7019
 Frc consts  --      0.4698                 0.8054                 0.7385
 IR Inten    --      2.3666                 4.5116                10.8714

                     28                     29                     30
                      A                      A                      A
 Frequencies --    869.6646               877.1388               905.0246
 Red. masses --      1.7287                 1.6278                 1.8228
 Frc consts  --      0.7703                 0.7379                 0.8796
 IR Inten    --     33.7298                42.3848                 1.8846

                     31                     32                     33
                      A                      A                      A
 Frequencies --    921.1120               945.7767               960.7401
 Red. masses --      2.0194                 1.9071                 2.4169
 Frc consts  --      1.0095                 1.0051                 1.3144
 IR Inten    --      1.8749                33.8823                 2.2860

                     34                     35                     36
                      A                      A                      A
 Frequencies --    969.7874               996.5530              1022.9440
 Red. masses --      1.9778                 2.5776                 2.7287
 Frc consts  --      1.0960                 1.5082                 1.6823
 IR Inten    --     14.7795                11.6628                 4.4983

                     37                     38                     39
                      A                      A                      A
 Frequencies --   1057.0782              1071.3420              1083.0336
 Red. masses --      1.8006                 1.2344                 1.6264
 Frc consts  --      1.1854                 0.8348                 1.1240
 IR Inten    --      1.4344                 4.2709                 8.4173

                     40                     41                     42
                      A                      A                      A
 Frequencies --   1093.2894              1098.1104              1140.4252
 Red. masses --      1.9748                 1.9049                 1.9573
 Frc consts  --      1.3907                 1.3533                 1.4998
 IR Inten    --      5.0961                24.0577                 8.6746

                     43                     44                     45
                      A                      A                      A
 Frequencies --   1150.2379              1175.1925              1207.6478
 Red. masses --      1.7722                 2.3051                 2.3444
 Frc consts  --      1.3815                 1.8757                 2.0145
 IR Inten    --     12.3540                34.7755                17.1609

                     46                     47                     48
                      A                      A                      A
 Frequencies --   1223.3488              1229.4136              1246.8512
 Red. masses --      1.5238                 1.4135                 1.7611
 Frc consts  --      1.3437                 1.2588                 1.6131
 IR Inten    --      8.1002                 6.6249                 2.7764

                     49                     50                     51
                      A                      A                      A
 Frequencies --   1275.3745              1292.0641              1297.0587
 Red. masses --      1.2351                 1.4691                 1.3914
 Frc consts  --      1.1837                 1.4450                 1.3792
 IR Inten    --      2.0873                 0.5651                 3.0466

                     52                     53                     54
                      A                      A                      A
 Frequencies --   1301.2896              1309.2972              1333.8279
 Red. masses --      1.4813                 1.4305                 1.3244
 Frc consts  --      1.4779                 1.4448                 1.3882
 IR Inten    --      2.5316                 0.4539                 2.7534

                     55                     56                     57
                      A                      A                      A
 Frequencies --   1369.3827              1373.9301              1402.4612
 Red. masses --      1.4191                 1.3638                 1.3946
 Frc consts  --      1.5679                 1.5168                 1.6161
 IR Inten    --     37.1293                 4.9509                 2.4654

                     58                     59                     60
                      A                      A                      A
 Frequencies --   1415.6633              1430.5082              1436.8561
 Red. masses --      1.6085                 1.2889                 1.2654
 Frc consts  --      1.8993                 1.5539                 1.5392
 IR Inten    --     13.2627                15.9798                14.3382

                     61                     62                     63
                      A                      A                      A
 Frequencies --   1451.5091              1501.9303              1510.2880
 Red. masses --      1.3838                 1.0902                 1.0819
 Frc consts  --      1.7177                 1.4490                 1.4540
 IR Inten    --      8.7861                 2.8649                 0.3078

                     64                     65                     66
                      A                      A                      A
 Frequencies --   1513.1849              1517.1432              1526.8452
 Red. masses --      1.0770                 1.0625                 1.0648
 Frc consts  --      1.4530                 1.4409                 1.4626
 IR Inten    --      0.4758                 2.5735                 1.8632

                     67                     68                     69
                      A                      A                      A
 Frequencies --   1528.0103              1535.6248              1545.7586
 Red. masses --      1.0512                 1.1240                 1.0535
 Frc consts  --      1.4460                 1.5617                 1.4832
 IR Inten    --      6.5426                 3.5179                 0.7935

                     70                     71                     72
                      A                      A                      A
 Frequencies --   1547.5393              1548.9239              1691.5426
 Red. masses --      1.0808                 1.0620                 1.0870
 Frc consts  --      1.5250                 1.5012                 1.8325
 IR Inten    --      2.3222                 9.4370                36.6857

                     73                     74                     75
                      A                      A                      A
 Frequencies --   2954.3953              3033.3654              3036.2972
 Red. masses --      1.0749                 1.0661                 1.0598
 Frc consts  --      5.5278                 5.7796                 5.7566
 IR Inten    --     78.3239                32.0090                27.7794

                     76                     77                     78
                      A                      A                      A
 Frequencies --   3040.8862              3044.3739              3056.5516
 Red. masses --      1.0479                 1.0467                 1.0589
 Frc consts  --      5.7090                 5.7159                 5.8287
 IR Inten    --     20.3694                27.5584                54.5629

                     79                     80                     81
                      A                      A                      A
 Frequencies --   3069.1766              3074.8893              3078.0888
 Red. masses --      1.0647                 1.0957                 1.0643
 Frc consts  --      5.9092                 6.1040                 5.9413
 IR Inten    --     26.6012                27.9943                50.9329

                     82                     83                     84
                      A                      A                      A
 Frequencies --   3081.2186              3093.4440              3097.6251
 Red. masses --      1.0861                 1.0943                 1.1056
 Frc consts  --      6.0754                 6.1699                 6.2504
 IR Inten    --     46.6610                27.1307                17.9015

                     85                     86                     87
                      A                      A                      A
 Frequencies --   3100.1387              3110.3147              3121.8283
 Red. masses --      1.1006                 1.0914                 1.1076
 Frc consts  --      6.2323                 6.2205                 6.3598
 IR Inten    --     53.3110                52.1111                41.4899

                     88                     89                     90
                      A                      A                      A
 Frequencies --   3157.0641              3161.0660              3169.3547
 Red. masses --      1.0998                 1.0972                 1.0998
 Frc consts  --      6.4582                 6.4593                 6.5089
 IR Inten    --     15.7791                16.4083                 1.7730

                     91                     92                     93
                      A                      A                      A
 Frequencies --   3461.8037              3545.6030              3749.9579
 Red. masses --      1.0497                 1.0921                 1.0659
 Frc consts  --      7.4117                 8.0892                 8.8312
 IR Inten    --      1.8181                 0.2502                 6.9233

 - Thermochemistry -
 -------------------
 Temperature   298.150 Kelvin.  Pressure   1.00000 Atm.
 Atom     1 has atomic number  6 and mass  12.00000

 Molecular mass:   171.16231 amu.
 Principal axes and moments of inertia in atomic units:
                           1         2         3
     Eigenvalues --  1384.679512717.634023176.90675
           X            0.99999  -0.00064  -0.00507
           Y            0.00074   0.99979   0.02056
           Z            0.00505  -0.02057   0.99978
 This molecule is an asymmetric top.
 Rotational symmetry number  1.
 Warning -- assumption of classical behavior for rotation
           may cause significant error
 Rotational temperatures (Kelvin)      0.06255     0.03187     0.02726
 Rotational constants (GHZ):           1.30336     0.66409     0.56808
 Zero-point vibrational energy     799366.0 (Joules/Mol)
                                  191.05306 (Kcal/Mol)
 Warning -- explicit consideration of  21 degrees of freedom as
           vibrations may cause significant error
 Vibrational temperatures:     53.96    85.65   160.31   188.22   210.61
          (Kelvin)            267.69   308.21   341.88   355.66   385.53
                              399.64   421.43   450.94   472.10   496.91
                              545.23   548.17   605.26   644.37   719.81
                              798.39   938.07  1011.34  1124.19  1157.10
                             1189.50  1234.75  1251.25  1262.01  1302.13
                             1325.27  1360.76  1382.29  1395.31  1433.82
                             1471.79  1520.90  1541.42  1558.24  1573.00
                             1579.94  1640.82  1654.94  1690.84  1737.54
                             1760.13  1768.85  1793.94  1834.98  1858.99
                             1866.18  1872.27  1883.79  1919.08  1970.24
                             1976.78  2017.83  2036.82  2058.18  2067.32
                             2088.40  2160.94  2172.97  2177.14  2182.83
                             2196.79  2198.47  2209.42  2224.00  2226.56
                             2228.56  2433.75  4250.72  4364.34  4368.55
                             4375.16  4380.18  4397.70  4415.86  4424.08
                             4428.68  4433.19  4450.78  4456.79  4460.41
                             4475.05  4491.61  4542.31  4548.07  4559.99
                             4980.76  5101.33  5395.35

 Zero-point correction=                           0.304462 (Hartree/Particle)
 Thermal correction to Energy=                    0.318629
 Thermal correction to Enthalpy=                  0.319574
 Thermal correction to Gibbs Free Energy=         0.264590
 Sum of electronic and zero-point Energies=           -523.396102
 Sum of electronic and thermal Energies=              -523.381935
 Sum of electronic and thermal Enthalpies=            -523.380991
 Sum of electronic and thermal Free Energies=         -523.435975

                     E (Thermal)             CV                S
                      KCal/Mol        Cal/Mol-Kelvin    Cal/Mol-Kelvin
 Total                  199.943             54.654            115.724
 Electronic               0.000              0.000              0.000
 Translational            0.889              2.981             41.320
 Rotational               0.889              2.981             30.859
 Vibrational            198.166             48.692             43.545
 Vibration     1          0.594              1.982              5.387
 Vibration     2          0.597              1.974              4.473
 Vibration     3          0.607              1.940              3.244
 Vibration     4          0.612              1.923              2.934
 Vibration     5          0.617              1.907              2.719
 Vibration     6          0.632              1.859              2.267
 Vibration     7          0.644              1.819              2.007
 Vibration     8          0.656              1.783              1.821
 Vibration     9          0.661              1.767              1.750
 Vibration    10          0.673              1.732              1.609
 Vibration    11          0.679              1.715              1.547
 Vibration    12          0.688              1.687              1.457
 Vibration    13          0.701              1.648              1.344
 Vibration    14          0.711              1.619              1.269
 Vibration    15          0.724              1.585              1.187
 Vibration    16          0.749              1.515              1.043
 Vibration    17          0.751              1.511              1.035
 Vibration    18          0.783              1.425              0.890
 Vibration    19          0.807              1.366              0.802
 Vibration    20          0.856              1.249              0.657
 Vibration    21          0.910              1.129              0.534

 Optimization completed on the basis of negligible forces.
    -- Stationary point found.
 Normal termination of Gaussian 16 at Wed Dec  9 18:20:18 2020.

 ----------------------------------------------------------------------
 # B3LYP/6-311++G(d,p) empiricaldispersion=gd3bj scf=xqc pop=npa geom=c
 heck
 ----------------------------------------------------------------------

 --------------------------------------
 CID_80560324_JID_2830_Energie_neutraal
 --------------------------------------
 Structure from the checkpoint file:  "JID_2830.chk"
 Charge =  0 Multiplicity = 1

 SCF Done:  E(RB3LYP) =  -523.863136787     A.U. after   14 cycles
 Normal termination of Gaussian 16 at Wed Dec  9 18:23:52 2020.

 ----------------------------------------------------------------------
 # B3LYP/6-311++G(d,p) empiricaldispersion=gd3bj scf=xqc pop=npa geom=c
 heck
 ----------------------------------------------------------------------

 ------------------------------------
 CID_80560324_JID_2830_Energie_kation
 ------------------------------------
 Structure from the checkpoint file:  "JID_2830.chk"
 Charge =  1 Multiplicity = 2

 SCF Done:  E(UB3LYP) =  -523.542977844     A.U. after   23 cycles
 Normal termination of Gaussian 16 at Wed Dec  9 18:31:30 2020.
 Gaussian 16:  ES64L-G16RevA.03 25-Dec-2016

 ----------------------------------------------------------------------
 # B3LYP/6-311++G(d,p) empiricaldispersion=gd3bj scf=xqc pop=npa geom=c
 heck
 ----------------------------------------------------------------------

 -----------------------------------
 CID_80560324_JID_2830_Energie_anion
 -----------------------------------
 Structure from the checkpoint file:  "JID_2830.chk"
 Charge = -1 Multiplicity = 2

                         Standard orientation:
 ---------------------------------------------------------------------
 Center     Atomic      Atomic             Coordinates (Angstroms)
 Number     Number       Type             X           Y           Z
 ---------------------------------------------------------------------
      1          6           0        3.569566   -0.799787   -0.480311
      2          6           0        2.888199    0.564081   -0.332293
      3          6           0        1.386782    0.563394   -0.674959
      4          6           0        0.420886    0.148629    0.451501
      5          6           0        0.386485    1.192422    1.573392
      6          6           0       -0.994993   -0.129162   -0.140928
      7          6           0       -1.118379   -1.471038   -0.933734
      8          6           0       -2.412202   -1.802822   -0.147636
      9          6           0       -2.058587   -0.684960    0.864384
     10          6           0       -1.584349    0.996287   -1.006755
     11          7           0       -1.742163    2.277393   -0.308112
     12          8           0        0.936992   -1.082384    1.004374
     13          1           0        3.120379   -1.531973    0.193302
     14          1           0        4.641694   -0.729257   -0.260652
     15          1           0        3.465316   -1.175361   -1.506379
     16          1           0        3.041023    0.943106    0.685363
     17          1           0        3.387225    1.282232   -0.996598
     18          1           0        1.088604    1.569752   -0.988160
     19          1           0        1.225287   -0.095173   -1.539504
     20          1           0        0.064163    2.162418    1.192431
     21          1           0       -0.320047    0.888904    2.357949
     22          1           0        1.375224    1.282443    2.033871
     23          1           0       -1.206676   -1.385374   -2.022332
     24          1           0       -0.297469   -2.146072   -0.689322
     25          1           0       -2.497383   -2.816773    0.254341
     26          1           0       -3.321764   -1.582495   -0.714452
     27          1           0       -1.605164   -1.089618    1.774673
     28          1           0       -2.864951   -0.006729    1.166970
     29          1           0       -0.923944    1.164872   -1.864448
     30          1           0       -2.534872    0.618299   -1.424161
     31          1           0       -2.197370    2.945174   -0.928209
     32          1           0       -2.371421    2.155853    0.484741
     33          1           0        0.530917   -1.199164    1.876410
 ---------------------------------------------------------------------

 SCF Done:  E(UB3LYP) =  -523.849171204     A.U. after   28 cycles

 The electronic state is 2-A.
 Alpha  occ. eigenvalues --  -19.01042 -14.17867 -10.11879 -10.08038 -10.07063
 Alpha  occ. eigenvalues --  -10.06345 -10.05850 -10.05718 -10.05583 -10.05330
 Alpha  occ. eigenvalues --  -10.05311 -10.04312  -0.91516  -0.77671  -0.73220
 Alpha  occ. eigenvalues --   -0.69069  -0.64320  -0.58854  -0.57566  -0.55018
 Alpha  occ. eigenvalues --   -0.52367  -0.49708  -0.45735  -0.42401  -0.40174
 Alpha  occ. eigenvalues --   -0.38153  -0.36784  -0.35698  -0.34554  -0.33134
 Alpha  occ. eigenvalues --   -0.32457  -0.30733  -0.30079  -0.29462  -0.29097
 Alpha  occ. eigenvalues --   -0.27274  -0.27019  -0.25438  -0.24833  -0.23709
 Alpha  occ. eigenvalues --   -0.23220  -0.22887  -0.21661  -0.20625  -0.19545
 Alpha  occ. eigenvalues --   -0.18335  -0.16243  -0.13027   0.04656
 Alpha virt. eigenvalues --    0.06964   0.07284   0.08055   0.08981   0.09459
 Alpha virt. eigenvalues --    0.09781   0.09860   0.10524   0.11755   0.12145
 Alpha virt. eigenvalues --    0.12342   0.12653   0.13461   0.13644   0.14249

  Beta  occ. eigenvalues --  -19.01021 -14.17813 -10.11877 -10.08014 -10.07064
  Beta  occ. eigenvalues --  -10.06336 -10.05834 -10.05710 -10.05538 -10.05326
  Beta  occ. eigenvalues --  -10.05302 -10.04289  -0.91473  -0.77600  -0.73177
  Beta  occ. eigenvalues --   -0.69049  -0.64297  -0.58798  -0.57525  -0.54957
  Beta  occ. eigenvalues --   -0.52307  -0.49664  -0.45689  -0.42340  -0.40135
  Beta  occ. eigenvalues --   -0.38092  -0.36752  -0.35660  -0.34515  -0.33111
  Beta  occ. eigenvalues --   -0.32383  -0.30709  -0.30051  -0.29438  -0.29066
  Beta  occ. eigenvalues --   -0.27248  -0.26983  -0.25414  -0.24815  -0.23676
  Beta  occ. eigenvalues --   -0.23200  -0.22866  -0.21636  -0.20595  -0.19513
  Beta  occ. eigenvalues --   -0.18309  -0.16221  -0.12975
  Beta virt. eigenvalues --    0.06822   0.07737   0.08260   0.08363   0.09436
  Beta virt. eigenvalues --    0.09577   0.10137   0.10529   0.10905   0.12063
  Beta virt. eigenvalues --    0.12270   0.12761   0.12899   0.13749   0.14013

 Mulliken charges and spin densities:
               1          2
     1  C   -0.297586  -0.337084
     2  C   -0.314326   0.167906
     3  C   -0.289526  -0.069608
     4  C    0.250155  -0.183985
     5  C   -0.150136  -0.485545
     6  C   -1.653874   1.968886
     7  C   -0.205523  -0.026613
     8  C    0.920331  -1.393221
     9  C    0.550458  -0.614943
    10  C    2.368484  -3.138318
    11  N   -0.716866   0.349517
    12  O   -0.117189   0.018802
    13  H    0.108729   0.069454
    14  H   -0.034205   0.150805
    15  H    0.040384   0.072527
    16  H    0.146839  -0.039167
    17  H   -0.045683   0.187345
    18  H   -0.008484   0.174750
    19  H    0.167130  -0.007936
    20  H    0.179338   0.050215
    21  H   -0.294116   0.443705
    22  H   -0.139507   0.261293
    23  H    0.009242   0.126663
    24  H    0.176026  -0.023629
    25  H   -0.041573   0.190898
    26  H   -0.023947   0.149253
    27  H   -0.368141   0.461345
    28  H   -0.456302   0.619576
    29  H   -0.187577   0.377195
    30  H   -0.301304   0.464114
    31  H   -0.256275   0.516756
    32  H   -0.086394   0.311200
    33  H    0.071419   0.187846
 Sum of Mulliken charges =  -1.00000   1.00000

 Dipole moment (field-independent basis, Debye):
    X=              4.9029    Y=             -2.9491    Z=             -1.0383  Tot=              5.8149
 Quadrupole moment (field-independent basis, Debye-Ang):
   XX=           -136.9727   YY=           -120.9131   ZZ=           -114.8308
   XY=              9.8298   XZ=              0.9180   YZ=              5.8671

 Summary of Natural Population Analysis:

                                       Natural Population
                Natural  -----------------------------------------------
    Atom  No    Charge         Core      Valence    Rydberg      Total
 -----------------------------------------------------------------------
      C    1   -0.28572      0.99966     2.28201    0.00405     3.28572
      C    2   -0.18729      0.99964     2.18034    0.00732     3.18729
      C    3   -0.19978      0.99957     2.18923    0.01098     3.19978
      C    4    0.14065      0.99945     1.84279    0.01710     2.85935
      C    5   -0.30688      0.99960     2.29960    0.00768     3.30688
      C    6   -0.04582      0.99951     2.02775    0.01856     3.04582
      C    7   -0.18782      0.99960     2.18090    0.00732     3.18782
      C    8   -0.19118      0.99964     2.18288    0.00865     3.19118
      C    9   -0.18772      0.99959     2.17837    0.00976     3.18772
      C   10   -0.08579      0.99955     2.07312    0.01312     3.08579
      N   11   -0.42686      0.99977     2.91564    0.01146     3.92686
      O   12   -0.38666      0.99989     3.37967    0.00710     4.38666
      H   13    0.11007      0.00000     0.38875    0.00118     0.38993
      H   14    0.09086      0.00000     0.40826    0.00088     0.40914
      H   15    0.09070      0.00000     0.40826    0.00103     0.40930
      H   16    0.09530      0.00000     0.40340    0.00130     0.40470
      H   17    0.09142      0.00000     0.40753    0.00105     0.40858
      H   18    0.10700      0.00000     0.39162    0.00137     0.39300
      H   19    0.09769      0.00000     0.40102    0.00130     0.40231
      H   20    0.12066      0.00000     0.37772    0.00162     0.37934
      H   21    0.09898      0.00000     0.39963    0.00139     0.40102
      H   22    0.09739      0.00000     0.40141    0.00119     0.40261
      H   23    0.09352      0.00000     0.40548    0.00099     0.40648
      H   24    0.10910      0.00000     0.38945    0.00145     0.39090
      H   25    0.09398      0.00000     0.40507    0.00095     0.40602
      H   26    0.09597      0.00000     0.40265    0.00138     0.40403
      H   27    0.09590      0.00000     0.40185    0.00225     0.40410
      H   28    0.10013      0.00000     0.39760    0.00227     0.39987
      H   29    0.09257      0.00000     0.40588    0.00155     0.40743
      H   30    0.08291      0.00000     0.41469    0.00240     0.41709
      H   31    0.17981      0.00000     0.31635    0.00384     0.32019
      H   32    0.17588      0.00000     0.32059    0.00353     0.32412
      H   33    0.23101      0.00000     0.26572    0.00327     0.26899
 =======================================================================
   * Total *   -0.00000     11.99548    35.84523    0.15929    48.00000

 Normal termination of Gaussian 16 at Wed Dec  9 18:40:22 2020.
