 Gaussian 16, Revision A.03,

 -----------------------------------------------------------
 # opt freq B3LYP/6-31G(d) empiricaldispersion=gd3bj scf=xqc
 -----------------------------------------------------------

 ------------------------------
 CID_16768029_JID_3770_neutraal
 ------------------------------
 Symbolic Z-matrix:
 Charge =  0 Multiplicity = 1

 SCF Done:  E(RB3LYP) =  -572.609757837     A.U. after   20 cycles
 SCF Done:  E(RB3LYP) =  -572.667416519     A.U. after   16 cycles
 SCF Done:  E(RB3LYP) =  -572.730920312     A.U. after   14 cycles
 SCF Done:  E(RB3LYP) =  -572.766987378     A.U. after   12 cycles
 SCF Done:  E(RB3LYP) =  -572.769628643     A.U. after    9 cycles
 SCF Done:  E(RB3LYP) =  -572.787673525     A.U. after   12 cycles
 SCF Done:  E(RB3LYP) =  -572.858549389     A.U. after   14 cycles
 SCF Done:  E(RB3LYP) =  -572.892423487     A.U. after   14 cycles
 SCF Done:  E(RB3LYP) =  -572.937092909     A.U. after   13 cycles
 SCF Done:  E(RB3LYP) =  -573.003218816     A.U. after   14 cycles
 SCF Done:  E(RB3LYP) =  -573.029040426     A.U. after    9 cycles
 SCF Done:  E(RB3LYP) =  -573.029041931     A.U. after    8 cycles
 SCF Done:  E(RB3LYP) =  -573.029042912     A.U. after    9 cycles
 SCF Done:  E(RB3LYP) =  -573.029042963     A.U. after    7 cycles
 SCF Done:  E(RB3LYP) =  -573.029042983     A.U. after    6 cycles
 Optimization completed.
    -- Stationary point found.
 Normal termination of Gaussian 16 at Sun Dec 13 12:35:25 2020.

 --------------------------------------------------------------------
 #N Geom=AllCheck Guess=TCheck SCRF=Check GenChk RB3LYP/6-31G(d) Freq
 --------------------------------------------------------------------

 Structure from the checkpoint file:  "JID_3770.chk"
 ------------------------------
 CID_16768029_JID_3770_neutraal
 ------------------------------
 Charge =  0 Multiplicity = 1

 SCF Done:  E(RB3LYP) =  -573.029042983     A.U. after    1 cycles

  Exact polarizability: 139.909  -0.732 134.410   3.500   2.640  67.241
 Approx polarizability: 215.218  -6.382 196.260   9.881   7.723 104.773

                      1                      2                      3
                      A                      A                      A
 Frequencies --     37.5454                51.2601                85.5031
 Red. masses --      2.6443                 5.0942                 2.4030
 Frc consts  --      0.0022                 0.0079                 0.0104
 IR Inten    --      0.2306                 2.6025                 4.1286

                      4                      5                      6
                      A                      A                      A
 Frequencies --     93.3879               124.5512               146.1389
 Red. masses --      3.4886                 5.0424                 4.4245
 Frc consts  --      0.0179                 0.0461                 0.0557
 IR Inten    --      0.3404                 3.2138                 1.8062

                      7                      8                      9
                      A                      A                      A
 Frequencies --    200.9216               250.8786               260.1720
 Red. masses --      5.2828                 1.4640                 2.4451
 Frc consts  --      0.1257                 0.0543                 0.0975
 IR Inten    --      5.6864                 0.6459                 3.7774

                     10                     11                     12
                      A                      A                      A
 Frequencies --    282.1662               319.3640               326.8261
 Red. masses --      2.8804                 3.1575                 1.5155
 Frc consts  --      0.1351                 0.1897                 0.0954
 IR Inten    --     14.4555                 2.0536                35.5625

                     13                     14                     15
                      A                      A                      A
 Frequencies --    377.0102               413.9252               492.9215
 Red. masses --      3.5176                 5.3017                 4.8571
 Frc consts  --      0.2946                 0.5352                 0.6953
 IR Inten    --      9.4143                 0.6191                 1.8497

                     16                     17                     18
                      A                      A                      A
 Frequencies --    519.8607               552.6978               600.4717
 Red. masses --      4.4995                 4.3746                 5.2596
 Frc consts  --      0.7165                 0.7873                 1.1174
 IR Inten    --      4.0459                 3.7095                 7.4237

                     19                     20                     21
                      A                      A                      A
 Frequencies --    615.5263               645.0575               767.1193
 Red. masses --      4.8799                 5.1706                 2.3691
 Frc consts  --      1.0893                 1.2676                 0.8214
 IR Inten    --      3.7222                 5.8544                18.5826

                     22                     23                     24
                      A                      A                      A
 Frequencies --    774.2476               800.6746               829.2193
 Red. masses --      2.0205                 2.8842                 2.3672
 Frc consts  --      0.7136                 1.0894                 0.9590
 IR Inten    --     17.1047                 3.5025                14.3230

                     25                     26                     27
                      A                      A                      A
 Frequencies --    833.9628               881.5354               889.0609
 Red. masses --      1.2123                 2.0941                 1.5915
 Frc consts  --      0.4967                 0.9588                 0.7412
 IR Inten    --      3.2630                61.4854                 5.3406

                     28                     29                     30
                      A                      A                      A
 Frequencies --    934.6614               954.2718               984.4879
 Red. masses --      2.6478                 1.3867                 1.3052
 Frc consts  --      1.3628                 0.7440                 0.7454
 IR Inten    --     43.7550                 5.8963                 3.9624

                     31                     32                     33
                      A                      A                      A
 Frequencies --    987.7946              1064.9088              1069.6911
 Red. masses --      3.4656                 3.0763                 2.7503
 Frc consts  --      1.9923                 2.0555                 1.8542
 IR Inten    --     71.7140                67.8898                27.5476

                     34                     35                     36
                      A                      A                      A
 Frequencies --   1084.5597              1131.6990              1147.7555
 Red. masses --      2.0586                 1.9319                 2.1498
 Frc consts  --      1.4267                 1.4578                 1.6686
 IR Inten    --     21.8065                19.0748                28.2748

                     37                     38                     39
                      A                      A                      A
 Frequencies --   1191.3364              1195.3298              1204.6479
 Red. masses --      1.1575                 1.4923                 1.4774
 Frc consts  --      0.9679                 1.2563                 1.2632
 IR Inten    --      3.1125                 1.4801                 3.5711

                     40                     41                     42
                      A                      A                      A
 Frequencies --   1210.6253              1283.9946              1314.9367
 Red. masses --      1.4809                 3.5930                 1.4396
 Frc consts  --      1.2788                 3.4901                 1.4666
 IR Inten    --      4.6440               186.3490                 5.1995

                     43                     44                     45
                      A                      A                      A
 Frequencies --   1317.7038              1324.6227              1366.3850
 Red. masses --      1.2369                 2.0038                 2.7917
 Frc consts  --      1.2654                 2.0715                 3.0709
 IR Inten    --      0.6025                11.4925                 1.1321

                     46                     47                     48
                      A                      A                      A
 Frequencies --   1411.0525              1421.8389              1451.5880
 Red. masses --      1.2804                 1.2332                 1.3617
 Frc consts  --      1.5020                 1.4689                 1.6905
 IR Inten    --     11.0216                 3.8751                43.3795

                     49                     50                     51
                      A                      A                      A
 Frequencies --   1502.8332              1513.6630              1530.0017
 Red. masses --      2.3423                 1.0413                 1.0519
 Frc consts  --      3.1169                 1.4057                 1.4508
 IR Inten    --     16.7967                 4.7708                 1.7338

                     52                     53                     54
                      A                      A                      A
 Frequencies --   1539.2259              1549.6195              1642.5313
 Red. masses --      1.9772                 1.2725                 6.1887
 Frc consts  --      2.7600                 1.8003                 9.8373
 IR Inten    --     49.8717                13.8372                13.1068

                     55                     56                     57
                      A                      A                      A
 Frequencies --   1663.0407              1690.8734              2352.4999
 Red. masses --      5.6753                 1.1034                12.6541
 Frc consts  --      9.2479                 1.8587                41.2612
 IR Inten    --     18.7584                27.9397                 5.5401

                     58                     59                     60
                      A                      A                      A
 Frequencies --   3028.5444              3060.4538              3090.7811
 Red. masses --      1.0640                 1.0350                 1.0831
 Frc consts  --      5.7498                 5.7116                 6.0959
 IR Inten    --     42.9287                19.3028                 3.1408

                     61                     62                     63
                      A                      A                      A
 Frequencies --   3095.2631              3132.3177              3138.1891
 Red. masses --      1.1006                 1.1021                 1.1042
 Frc consts  --      6.2126                 6.3711                 6.4069
 IR Inten    --      6.2867                27.6724                30.2947

                     64                     65                     66
                      A                      A                      A
 Frequencies --   3189.6308              3197.0436              3209.0686
 Red. masses --      1.0857                 1.0896                 1.0927
 Frc consts  --      6.5076                 6.5618                 6.6297
 IR Inten    --      0.5204                 7.5386                17.9864

                     67                     68                     69
                      A                      A                      A
 Frequencies --   3217.0808              3464.4964              3555.5363
 Red. masses --      1.0974                 1.0493                 1.0936
 Frc consts  --      6.6918                 7.4204                 8.1459
 IR Inten    --     15.3188                 0.5700                 1.1599

 - Thermochemistry -
 -------------------
 Temperature   298.150 Kelvin.  Pressure   1.00000 Atm.
 Atom     1 has atomic number  6 and mass  12.00000

 Molecular mass:   176.09496 amu.
 Principal axes and moments of inertia in atomic units:
                           1         2         3
     Eigenvalues --  1952.692082513.448144115.28618
           X            0.99211   0.12524   0.00559
           Y           -0.12521   0.99211  -0.00598
           Z           -0.00630   0.00523   0.99997
 This molecule is an asymmetric top.
 Rotational symmetry number  1.
 Warning -- assumption of classical behavior for rotation
           may cause significant error
 Rotational temperatures (Kelvin)      0.04436     0.03446     0.02105
 Rotational constants (GHZ):           0.92423     0.71803     0.43855
 Zero-point vibrational energy     541840.1 (Joules/Mol)
                                  129.50289 (Kcal/Mol)
 Warning -- explicit consideration of  19 degrees of freedom as
           vibrations may cause significant error
 Vibrational temperatures:     54.02    73.75   123.02   134.36   179.20
          (Kelvin)            210.26   289.08   360.96   374.33   405.97
                              459.49   470.23   542.43   595.55   709.20
                              747.96   795.21   863.94   885.61   928.09
                             1103.71  1113.97  1151.99  1193.06  1199.89
                             1268.33  1279.16  1344.77  1372.98  1416.46
                             1421.22  1532.17  1539.05  1560.44  1628.26
                             1651.36  1714.07  1719.81  1733.22  1741.82
                             1847.38  1891.90  1895.88  1905.84  1965.92
                             2030.19  2045.71  2088.51  2162.24  2177.82
                             2201.33  2214.60  2229.56  2363.24  2392.74
                             2432.79  3384.72  4357.40  4403.31  4446.94
                             4453.39  4506.71  4515.15  4589.17  4599.83
                             4617.13  4628.66  4984.64  5115.62

 Zero-point correction=                           0.206376 (Hartree/Particle)
 Thermal correction to Energy=                    0.219168
 Thermal correction to Enthalpy=                  0.220112
 Thermal correction to Gibbs Free Energy=         0.166334
 Sum of electronic and zero-point Energies=           -572.822667
 Sum of electronic and thermal Energies=              -572.809875
 Sum of electronic and thermal Enthalpies=            -572.808931
 Sum of electronic and thermal Free Energies=         -572.862709

                     E (Thermal)             CV                S
                      KCal/Mol        Cal/Mol-Kelvin    Cal/Mol-Kelvin
 Total                  137.530             47.149            113.185
 Electronic               0.000              0.000              0.000
 Translational            0.889              2.981             41.405
 Rotational               0.889              2.981             31.380
 Vibrational            135.752             41.188             40.400
 Vibration     1          0.594              1.982              5.385
 Vibration     2          0.596              1.977              4.768
 Vibration     3          0.601              1.959              3.760
 Vibration     4          0.602              1.954              3.588
 Vibration     5          0.610              1.928              3.029
 Vibration     6          0.617              1.907              2.722
 Vibration     7          0.638              1.839              2.125
 Vibration     8          0.663              1.761              1.724
 Vibration     9          0.668              1.746              1.661
 Vibration    10          0.681              1.707              1.521
 Vibration    11          0.705              1.637              1.313
 Vibration    12          0.710              1.622              1.276
 Vibration    13          0.748              1.519              1.051
 Vibration    14          0.778              1.440              0.913
 Vibration    15          0.849              1.266              0.676
 Vibration    16          0.875              1.206              0.610
 Vibration    17          0.908              1.134              0.539
 Vibration    18          0.959              1.031              0.449
 Vibration    19          0.975              0.999              0.424

 Optimization completed.
    -- Stationary point found.
 Normal termination of Gaussian 16 at Sun Dec 13 12:41:15 2020.

 ----------------------------------------------------------------------
 # B3LYP/6-311++G(d,p) empiricaldispersion=gd3bj scf=xqc pop=npa geom=c
 heck
 ----------------------------------------------------------------------

 --------------------------------------
 CID_16768029_JID_3770_Energie_neutraal
 --------------------------------------
 Structure from the checkpoint file:  "JID_3770.chk"
 Charge =  0 Multiplicity = 1

 SCF Done:  E(RB3LYP) =  -573.192465588     A.U. after   16 cycles
 Normal termination of Gaussian 16 at Sun Dec 13 12:43:27 2020.

 ----------------------------------------------------------------------
 # B3LYP/6-311++G(d,p) empiricaldispersion=gd3bj scf=xqc pop=npa geom=c
 heck
 ----------------------------------------------------------------------

 ------------------------------------
 CID_16768029_JID_3770_Energie_kation
 ------------------------------------
 Structure from the checkpoint file:  "JID_3770.chk"
 Charge =  1 Multiplicity = 2

 SCF Done:  E(UB3LYP) =  -572.870784797     A.U. after   25 cycles
 Normal termination of Gaussian 16 at Sun Dec 13 12:47:59 2020.
 Gaussian 16:  ES64L-G16RevA.03 25-Dec-2016

 ----------------------------------------------------------------------
 # B3LYP/6-311++G(d,p) empiricaldispersion=gd3bj scf=xqc pop=npa geom=c
 heck
 ----------------------------------------------------------------------

 -----------------------------------
 CID_16768029_JID_3770_Energie_anion
 -----------------------------------
 Structure from the checkpoint file:  "JID_3770.chk"
 Charge = -1 Multiplicity = 2

                         Standard orientation:
 ---------------------------------------------------------------------
 Center     Atomic      Atomic             Coordinates (Angstroms)
 Number     Number       Type             X           Y           Z
 ---------------------------------------------------------------------
      1          6           0       -3.557703   -1.351978   -0.158144
      2          6           0       -2.571927   -0.329435    0.370179
      3          8           0       -1.617102   -0.066380   -0.677587
      4          6           0       -0.582293    0.762799   -0.318812
      5          6           0       -0.771062    2.142972   -0.243816
      6          6           0        0.300502    2.975985    0.077288
      7          6           0        1.562835    2.431962    0.315201
      8          6           0        1.750461    1.051928    0.232609
      9          6           0        0.683503    0.205792   -0.077047
     10          6           0        0.820433   -1.305612   -0.117601
     11          6           0        2.207099   -1.722438   -0.429067
     12          7           0        3.293131   -2.092633   -0.608973
     13          7           0        0.331500   -1.887901    1.144878
     14          1           0       -4.055684   -0.981437   -1.059811
     15          1           0       -4.319857   -1.567595    0.598389
     16          1           0       -3.041457   -2.284832   -0.406054
     17          1           0       -3.078688    0.606882    0.642624
     18          1           0       -2.034342   -0.710145    1.245192
     19          1           0       -1.755433    2.549386   -0.454491
     20          1           0        0.150053    4.050432    0.130705
     21          1           0        2.401607    3.077884    0.555775
     22          1           0        2.736527    0.626807    0.398126
     23          1           0        0.169702   -1.682679   -0.912981
     24          1           0        0.424157   -2.902845    1.115402
     25          1           0        0.916723   -1.558917    1.911751
 ---------------------------------------------------------------------

 SCF Done:  E(UB3LYP) =  -573.183302563     A.U. after   33 cycles
 SCF Done:  E(UB3LYP) =  -573.183302563     a.u. after    1 cycles

 The electronic state is 2-A.
 Alpha  occ. eigenvalues --  -19.02977 -14.20457 -14.19734 -10.13605 -10.12209
 Alpha  occ. eigenvalues --  -10.11217 -10.10200 -10.07710 -10.07124 -10.07023
 Alpha  occ. eigenvalues --  -10.06890 -10.06834 -10.05730  -0.94798  -0.81484
 Alpha  occ. eigenvalues --   -0.78632  -0.74982  -0.67009  -0.66162  -0.62570
 Alpha  occ. eigenvalues --   -0.59154  -0.52782  -0.50808  -0.48464  -0.43078
 Alpha  occ. eigenvalues --   -0.42181  -0.40318  -0.37400  -0.37152  -0.35342
 Alpha  occ. eigenvalues --   -0.34054  -0.33116  -0.32433  -0.30937  -0.28813
 Alpha  occ. eigenvalues --   -0.27017  -0.26716  -0.26549  -0.25870  -0.25348
 Alpha  occ. eigenvalues --   -0.23619  -0.23260  -0.22263  -0.17357  -0.15883
 Alpha  occ. eigenvalues --   -0.15506  -0.13798   0.04623
 Alpha virt. eigenvalues --    0.06936   0.07216   0.08116   0.08796   0.08959
 Alpha virt. eigenvalues --    0.09415   0.09799   0.11075   0.11726   0.12037
 Alpha virt. eigenvalues --    0.12473   0.13017   0.13176   0.13301   0.14412

  Beta  occ. eigenvalues --  -19.02955 -14.20406 -14.19613 -10.13598 -10.12170
  Beta  occ. eigenvalues --  -10.11205 -10.10203 -10.07627 -10.07078 -10.07021
  Beta  occ. eigenvalues --  -10.06867 -10.06704 -10.05696  -0.94756  -0.81350
  Beta  occ. eigenvalues --   -0.78488  -0.74828  -0.66885  -0.65997  -0.62468
  Beta  occ. eigenvalues --   -0.58999  -0.52720  -0.50651  -0.48345  -0.42999
  Beta  occ. eigenvalues --   -0.42100  -0.40187  -0.37300  -0.37095  -0.35234
  Beta  occ. eigenvalues --   -0.33966  -0.33038  -0.32321  -0.30832  -0.28768
  Beta  occ. eigenvalues --   -0.26934  -0.26654  -0.26463  -0.25619  -0.25279
  Beta  occ. eigenvalues --   -0.23475  -0.23106  -0.22194  -0.17299  -0.15717
  Beta  occ. eigenvalues --   -0.14977  -0.13459
  Beta virt. eigenvalues --    0.06890   0.07577   0.08103   0.08728   0.08980
  Beta virt. eigenvalues --    0.09520   0.09848   0.10087   0.11303   0.12008
  Beta virt. eigenvalues --    0.12487   0.12695   0.13223   0.13369   0.13577

 Mulliken charges and spin densities:
               1          2
     1  C    1.418723  -1.905816
     2  C   -1.139857   0.960800
     3  O   -0.077299   0.006849
     4  C   -1.460544   1.004791
     5  C   -0.129502  -0.030403
     6  C    0.094005  -0.326421
     7  C   -0.677857   0.207070
     8  C   -0.278681  -0.477270
     9  C    1.638646   0.122311
    10  C    0.168316   0.219713
    11  C    0.981523  -1.991297
    12  N   -0.318269   0.074791
    13  N   -0.203335   0.085322
    14  H   -0.001700   0.142272
    15  H   -0.327973   0.459553
    16  H   -0.353906   0.513995
    17  H   -0.264715   0.383069
    18  H    0.201120  -0.011540
    19  H    0.004792   0.155667
    20  H   -0.023053   0.148632
    21  H    0.028394   0.114882
    22  H    0.098037   0.049151
    23  H    0.100409   0.154552
    24  H   -0.387205   0.634394
    25  H   -0.090072   0.304934
 Sum of Mulliken charges =  -1.00000   1.00000

 Dipole moment (field-independent basis, Debye):
    X=              0.5726    Y=              5.8981    Z=             -0.9059  Tot=              5.9947
 Quadrupole moment (field-independent basis, Debye-Ang):
   XX=           -133.7914   YY=           -127.4788   ZZ=           -100.9355
   XY=              2.5936   XZ=              4.6947   YZ=              3.9745

 Summary of Natural Population Analysis:

                                       Natural Population
                Natural  -----------------------------------------------
    Atom  No    Charge         Core      Valence    Rydberg      Total
 -----------------------------------------------------------------------
      C    1   -0.29343      0.99966     2.28825    0.00552     3.29343
      C    2   -0.01036      0.99957     1.99927    0.01152     3.01036
      O    3   -0.29782      0.99986     3.28824    0.00972     4.29782
      C    4    0.17243      0.99932     1.81565    0.01260     2.82757
      C    5   -0.12310      0.99951     2.11383    0.00976     3.12310
      C    6   -0.07411      0.99958     2.06506    0.00947     3.07411
      C    7   -0.11433      0.99957     2.10509    0.00968     3.11433
      C    8   -0.08687      0.99952     2.07951    0.00784     3.08687
      C    9   -0.02298      0.99944     2.01295    0.01058     3.02298
      C   10   -0.07582      0.99948     2.06270    0.01364     3.07582
      C   11    0.15535      0.99964     1.82521    0.01979     2.84465
      N   12   -0.18836      0.99979     2.67685    0.01173     3.68836
      N   13   -0.39854      0.99978     2.88797    0.01079     3.89854
      H   14    0.09712      0.00000     0.40164    0.00124     0.40288
      H   15    0.10050      0.00000     0.39834    0.00116     0.39950
      H   16    0.10410      0.00000     0.39425    0.00165     0.39590
      H   17    0.07575      0.00000     0.42270    0.00155     0.42425
      H   18    0.09555      0.00000     0.40242    0.00202     0.40445
      H   19    0.10259      0.00000     0.39639    0.00102     0.39741
      H   20    0.09568      0.00000     0.40351    0.00081     0.40432
      H   21    0.09735      0.00000     0.40189    0.00077     0.40265
      H   22    0.10391      0.00000     0.39474    0.00135     0.39609
      H   23    0.12491      0.00000     0.37239    0.00270     0.37509
      H   24    0.18463      0.00000     0.30548    0.00988     0.31537
      H   25    0.17585      0.00000     0.32150    0.00265     0.32415
 =======================================================================
   * Total *    0.00000     12.99472    33.83582    0.16946    47.00000

 Normal termination of Gaussian 16 at Sun Dec 13 12:54:01 2020.
