 Gaussian 16, Revision A.03,

 -----------------------------------------------------------
 # opt freq B3LYP/6-31G(d) empiricaldispersion=gd3bj scf=xqc
 -----------------------------------------------------------

 ------------------------------
 CID_82613771_JID_6901_neutraal
 ------------------------------
 Symbolic Z-matrix:
 Charge =  0 Multiplicity = 1

 SCF Done:  E(RB3LYP) =  -669.931343604     A.U. after   15 cycles
 SCF Done:  E(RB3LYP) =  -669.935640609     A.U. after   12 cycles
 SCF Done:  E(RB3LYP) =  -669.936153741     A.U. after   12 cycles
 SCF Done:  E(RB3LYP) =  -669.936313405     A.U. after   11 cycles
 SCF Done:  E(RB3LYP) =  -669.936417223     A.U. after   11 cycles
 SCF Done:  E(RB3LYP) =  -669.936419826     A.U. after    8 cycles
 SCF Done:  E(RB3LYP) =  -669.936419960     A.U. after    7 cycles
 SCF Done:  E(RB3LYP) =  -669.936420054     A.U. after    6 cycles
 SCF Done:  E(RB3LYP) =  -669.936420091     A.U. after    7 cycles
 SCF Done:  E(RB3LYP) =  -669.936420113     A.U. after    7 cycles
 SCF Done:  E(RB3LYP) =  -669.936420122     A.U. after    6 cycles
 Optimization completed.
    -- Stationary point found.
 Normal termination of Gaussian 16 at Fri Dec 11 01:02:40 2020.

 --------------------------------------------------------------------
 #N Geom=AllCheck Guess=TCheck SCRF=Check GenChk RB3LYP/6-31G(d) Freq
 --------------------------------------------------------------------

 Structure from the checkpoint file:  "JID_6901.chk"
 ------------------------------
 CID_82613771_JID_6901_neutraal
 ------------------------------
 Charge =  0 Multiplicity = 1

 SCF Done:  E(RB3LYP) =  -669.936420122     A.U. after    1 cycles

  Exact polarizability: 227.820  -0.410 145.137  -0.012  -0.000  96.311
 Approx polarizability: 324.728   8.721 251.920  -0.026  -0.000 140.766

                      1                      2                      3
                      A                      A                      A
 Frequencies --     20.5990                66.7167                93.6925
 Red. masses --      4.2513                 3.4125                 3.8867
 Frc consts  --      0.0011                 0.0089                 0.0201
 IR Inten    --      0.8828                 0.3866                 0.1702

                      4                      5                      6
                      A                      A                      A
 Frequencies --    162.8015               168.7807               172.6848
 Red. masses --      1.6378                 3.3578                 1.8182
 Frc consts  --      0.0256                 0.0564                 0.0319
 IR Inten    --      0.1991                 3.8813                 0.0673

                      7                      8                      9
                      A                      A                      A
 Frequencies --    204.5847               241.5129               265.3209
 Red. masses --      2.7028                 4.2817                 2.9470
 Frc consts  --      0.0667                 0.1471                 0.1222
 IR Inten    --      0.0620                 0.4179                 1.1994

                     10                     11                     12
                      A                      A                      A
 Frequencies --    270.3850               293.5380               383.0324
 Red. masses --      3.5485                 2.3720                 1.8576
 Frc consts  --      0.1528                 0.1204                 0.1606
 IR Inten    --      0.1212                 0.6571                 1.8446

                     13                     14                     15
                      A                      A                      A
 Frequencies --    411.5922               440.0694               468.7194
 Red. masses --      3.5540                 2.8181                 3.8207
 Frc consts  --      0.3547                 0.3216                 0.4946
 IR Inten    --      1.8562                 2.9084                 4.6746

                     16                     17                     18
                      A                      A                      A
 Frequencies --    475.6654               484.9740               533.9224
 Red. masses --      3.5421                 3.8928                 1.9300
 Frc consts  --      0.4722                 0.5394                 0.3242
 IR Inten    --      3.5258                14.5318                17.3205

                     19                     20                     21
                      A                      A                      A
 Frequencies --    615.2389               632.4690               637.0713
 Red. masses --      5.2693                 3.5759                 4.0169
 Frc consts  --      1.1751                 0.8428                 0.9605
 IR Inten    --      9.2393                 0.3739                 3.5314

                     22                     23                     24
                      A                      A                      A
 Frequencies --    684.6748               730.3481               754.0219
 Red. masses --      4.0996                 2.6647                 5.9202
 Frc consts  --      1.1323                 0.8374                 1.9831
 IR Inten    --     14.2750                36.2360                 0.7026

                     25                     26                     27
                      A                      A                      A
 Frequencies --    763.4078               790.3071               796.1414
 Red. masses --      4.1208                 1.5339                 4.5652
 Frc consts  --      1.4150                 0.5645                 1.7049
 IR Inten    --     12.2795                18.3184                 1.5385

                     28                     29                     30
                      A                      A                      A
 Frequencies --    818.0490               821.8068               860.4916
 Red. masses --      1.5662                 2.1291                 3.1841
 Frc consts  --      0.6175                 0.8472                 1.3891
 IR Inten    --      0.2009                42.9591                 6.3068

                     31                     32                     33
                      A                      A                      A
 Frequencies --    871.2488               887.8709               910.1971
 Red. masses --      1.3223                 1.9756                 1.6019
 Frc consts  --      0.5914                 0.9176                 0.7819
 IR Inten    --      8.0390                 3.3025                 8.8209

                     34                     35                     36
                      A                      A                      A
 Frequencies --    918.9663               923.3078               966.9213
 Red. masses --      2.4697                 1.2315                 2.8694
 Frc consts  --      1.2288                 0.6185                 1.5806
 IR Inten    --      0.6728                 0.0012                 9.4007

                     37                     38                     39
                      A                      A                      A
 Frequencies --   1010.8638              1044.4213              1060.8942
 Red. masses --      1.7192                 1.4665                 2.4314
 Frc consts  --      1.0350                 0.9425                 1.6123
 IR Inten    --     14.7420                 0.2570                19.8718

                     40                     41                     42
                      A                      A                      A
 Frequencies --   1072.9833              1080.5503              1097.6078
 Red. masses --      1.6597                 1.4205                 2.7709
 Frc consts  --      1.1258                 0.9772                 1.9668
 IR Inten    --      8.2183                 0.9743                 0.9276

                     43                     44                     45
                      A                      A                      A
 Frequencies --   1105.5552              1109.2634              1150.6855
 Red. masses --      2.2942                 1.9024                 3.4558
 Frc consts  --      1.6521                 1.3792                 2.6960
 IR Inten    --     18.5413                 2.7990                11.4430

                     46                     47                     48
                      A                      A                      A
 Frequencies --   1172.4115              1196.7824              1201.5750
 Red. masses --      1.9442                 1.4659                 1.2459
 Frc consts  --      1.5745                 1.2371                 1.0598
 IR Inten    --     20.8638                 4.7922                 3.0045

                     49                     50                     51
                      A                      A                      A
 Frequencies --   1215.2145              1218.3987              1270.9686
 Red. masses --      2.0179                 1.0833                 1.3347
 Frc consts  --      1.7558                 0.9475                 1.2703
 IR Inten    --      6.9563                10.4300                 2.5630

                     52                     53                     54
                      A                      A                      A
 Frequencies --   1295.3581              1316.9091              1336.7879
 Red. masses --      2.3694                 1.4696                 1.5263
 Frc consts  --      2.3425                 1.5016                 1.6069
 IR Inten    --      9.6403                 5.3428                 3.6298

                     55                     56                     57
                      A                      A                      A
 Frequencies --   1341.0186              1347.0938              1364.0066
 Red. masses --      1.4337                 3.6253                 2.8815
 Frc consts  --      1.5190                 3.8761                 3.1586
 IR Inten    --      0.2595                51.1377                46.7504

                     58                     59                     60
                      A                      A                      A
 Frequencies --   1367.5730              1391.1500              1391.2437
 Red. masses --      1.3059                 1.8301                 1.3158
 Frc consts  --      1.4390                 2.0867                 1.5005
 IR Inten    --     23.7723                 4.3760                12.6718

                     61                     62                     63
                      A                      A                      A
 Frequencies --   1403.8264              1422.0518              1448.3041
 Red. masses --      1.8615                 1.6813                 1.2517
 Frc consts  --      2.1614                 2.0032                 1.5469
 IR Inten    --      8.1436                23.8087                 1.3098

                     64                     65                     66
                      A                      A                      A
 Frequencies --   1452.0952              1497.0689              1507.0992
 Red. masses --      1.5040                 1.1306                 1.2400
 Frc consts  --      1.8685                 1.4929                 1.6595
 IR Inten    --      1.1564                 5.5532                 0.0027

                     67                     68                     69
                      A                      A                      A
 Frequencies --   1507.7558              1509.9323              1517.2289
 Red. masses --      1.0420                 1.2519                 1.5440
 Frc consts  --      1.3957                 1.6816                 2.0941
 IR Inten    --      8.0441                 3.2529                 9.2182

                     70                     71                     72
                      A                      A                      A
 Frequencies --   1530.3078              1538.6775              1549.1793
 Red. masses --      1.7504                 1.1061                 2.4757
 Frc consts  --      2.4151                 1.5429                 3.5007
 IR Inten    --      9.5858                 0.3928                 4.1257

                     73                     74                     75
                      A                      A                      A
 Frequencies --   1550.8170              1557.6429              1594.7225
 Red. masses --      1.3781                 4.1874                 4.8665
 Frc consts  --      1.9528                 5.9859                 7.2918
 IR Inten    --     12.4863                10.0644                 5.6011

                     76                     77                     78
                      A                      A                      A
 Frequencies --   1702.5670              2947.5690              2954.4887
 Red. masses --      6.4457                 1.0734                 1.0720
 Frc consts  --     11.0085                 5.4948                 5.5134
 IR Inten    --     25.0698                25.9135               145.1116

                     79                     80                     81
                      A                      A                      A
 Frequencies --   3022.6045              3042.3380              3050.1335
 Red. masses --      1.0407                 1.0749                 1.0616
 Frc consts  --      5.6019                 5.8621                 5.8188
 IR Inten    --     49.2957                 3.8809                11.8765

                     82                     83                     84
                      A                      A                      A
 Frequencies --   3060.4768              3064.0743              3076.4928
 Red. masses --      1.0730                 1.1015                 1.0865
 Frc consts  --      5.9212                 6.0928                 6.0587
 IR Inten    --     49.4243                24.8370                78.0565

                     85                     86                     87
                      A                      A                      A
 Frequencies --   3078.4364              3097.7006              3099.1777
 Red. masses --      1.0864                 1.1041                 1.1047
 Frc consts  --      6.0662                 6.2421                 6.2515
 IR Inten    --     53.8476                18.6338                60.2067

                     88                     89                     90
                      A                      A                      A
 Frequencies --   3136.0953              3217.9683              3236.3416
 Red. masses --      1.0958                 1.0909                 1.0900
 Frc consts  --      6.3500                 6.6556                 6.7265
 IR Inten    --     10.4565                 4.4271                 1.7202

                     91                     92                     93
                      A                      A                      A
 Frequencies --   3243.1614              3267.8462              3502.6616
 Red. masses --      1.0961                 1.0921                 1.0746
 Frc consts  --      6.7925                 6.8711                 7.7678
 IR Inten    --     17.5157                 5.9115                 2.3527

 - Thermochemistry -
 -------------------
 Temperature   298.150 Kelvin.  Pressure   1.00000 Atm.
 Atom     1 has atomic number  6 and mass  12.00000

 Molecular mass:   215.14225 amu.
 Principal axes and moments of inertia in atomic units:
                           1         2         3
     Eigenvalues --  1285.297226607.318777172.93364
           X            0.99993  -0.01212  -0.00000
           Y            0.01212   0.99993  -0.00000
           Z            0.00000   0.00000   1.00000
 This molecule is an asymmetric top.
 Rotational symmetry number  1.
 Warning -- assumption of classical behavior for rotation
           may cause significant error
 Rotational temperatures (Kelvin)      0.06739     0.01311     0.01208
 Rotational constants (GHZ):           1.40414     0.27314     0.25160
 Zero-point vibrational energy     754169.5 (Joules/Mol)
                                  180.25083 (Kcal/Mol)
 Warning -- explicit consideration of  19 degrees of freedom as
           vibrations may cause significant error
 Vibrational temperatures:     29.64    95.99   134.80   234.24   242.84
          (Kelvin)            248.45   294.35   347.48   381.74   389.02
                              422.34   551.10   592.19   633.16   674.38
                              684.38   697.77   768.20   885.19   909.98
                              916.60   985.09  1050.81  1084.87  1098.37
                             1137.08  1145.47  1176.99  1182.40  1238.06
                             1253.53  1277.45  1309.57  1322.19  1328.43
                             1391.18  1454.41  1502.69  1526.39  1543.78
                             1554.67  1579.21  1590.65  1595.98  1655.58
                             1686.84  1721.90  1728.80  1748.42  1753.00
                             1828.64  1863.73  1894.74  1923.34  1929.43
                             1938.17  1962.50  1967.63  2001.55  2001.69
                             2019.79  2046.02  2083.79  2089.24  2153.95
                             2168.38  2169.32  2172.46  2182.95  2201.77
                             2213.81  2228.92  2231.28  2241.10  2294.45
                             2449.61  4240.89  4250.85  4348.85  4377.25
                             4388.46  4403.34  4408.52  4426.39  4429.18
                             4456.90  4459.03  4512.14  4629.94  4656.37
                             4666.19  4701.70  5039.55

 Zero-point correction=                           0.287248 (Hartree/Particle)
 Thermal correction to Energy=                    0.300607
 Thermal correction to Enthalpy=                  0.301551
 Thermal correction to Gibbs Free Energy=         0.246613
 Sum of electronic and zero-point Energies=           -669.649172
 Sum of electronic and thermal Energies=              -669.635813
 Sum of electronic and thermal Enthalpies=            -669.634869
 Sum of electronic and thermal Free Energies=         -669.689807

                     E (Thermal)             CV                S
                      KCal/Mol        Cal/Mol-Kelvin    Cal/Mol-Kelvin
 Total                  188.634             53.860            115.626
 Electronic               0.000              0.000              0.000
 Translational            0.889              2.981             42.002
 Rotational               0.889              2.981             32.477
 Vibrational            186.856             47.898             41.148
 Vibration     1          0.593              1.986              6.576
 Vibration     2          0.598              1.970              4.248
 Vibration     3          0.603              1.954              3.581
 Vibration     4          0.623              1.888              2.517
 Vibration     5          0.625              1.881              2.449
 Vibration     6          0.626              1.876              2.406
 Vibration     7          0.640              1.833              2.091
 Vibration     8          0.658              1.777              1.792
 Vibration     9          0.671              1.737              1.626
 Vibration    10          0.674              1.728              1.594
 Vibration    11          0.688              1.686              1.453
 Vibration    12          0.752              1.506              1.027
 Vibration    13          0.776              1.445              0.921
 Vibration    14          0.800              1.383              0.826
 Vibration    15          0.826              1.319              0.741
 Vibration    16          0.832              1.304              0.722
 Vibration    17          0.841              1.283              0.697
 Vibration    18          0.889              1.175              0.579
 Vibration    19          0.975              1.000              0.424

                           ! Non-Optimized Parameters !
 Normal termination of Gaussian 16 at Fri Dec 11 01:13:02 2020.

 ----------------------------------------------------------------------
 # B3LYP/6-311++G(d,p) empiricaldispersion=gd3bj scf=xqc pop=npa geom=c
 heck
 ----------------------------------------------------------------------

 --------------------------------------
 CID_82613771_JID_6901_Energie_neutraal
 --------------------------------------
 Structure from the checkpoint file:  "JID_6901.chk"
 Charge =  0 Multiplicity = 1

 SCF Done:  E(RB3LYP) =  -670.112297605     A.U. after   15 cycles
 Normal termination of Gaussian 16 at Fri Dec 11 01:17:24 2020.

 ----------------------------------------------------------------------
 # B3LYP/6-311++G(d,p) empiricaldispersion=gd3bj scf=xqc pop=npa geom=c
 heck
 ----------------------------------------------------------------------

 ------------------------------------
 CID_82613771_JID_6901_Energie_kation
 ------------------------------------
 Structure from the checkpoint file:  "JID_6901.chk"
 Charge =  1 Multiplicity = 2

 SCF Done:  E(UB3LYP) =  -669.842941334     A.U. after   29 cycles
 Normal termination of Gaussian 16 at Fri Dec 11 01:28:47 2020.
 Gaussian 16:  ES64L-G16RevA.03 25-Dec-2016

 ----------------------------------------------------------------------
 # B3LYP/6-311++G(d,p) empiricaldispersion=gd3bj scf=xqc pop=npa geom=c
 heck
 ----------------------------------------------------------------------

 -----------------------------------
 CID_82613771_JID_6901_Energie_anion
 -----------------------------------
 Structure from the checkpoint file:  "JID_6901.chk"
 Charge = -1 Multiplicity = 2

                         Standard orientation:
 ---------------------------------------------------------------------
 Center     Atomic      Atomic             Coordinates (Angstroms)
 Number     Number       Type             X           Y           Z
 ---------------------------------------------------------------------
      1          6           0       -4.212115    1.829529    0.000269
      2          6           0       -3.547607    0.497763    0.000158
      3          6           0       -4.033020   -0.797726    0.000253
      4          7           0       -3.040464   -1.735656    0.000022
      5          6           0       -1.906741   -1.038099   -0.000129
      6          7           0       -2.171245    0.347085   -0.000031
      7          6           0       -1.157889    1.269448   -0.000165
      8          6           0        0.141212    0.847657   -0.000391
      9          6           0        0.477728   -0.545075   -0.000494
     10          6           0       -0.559125   -1.455791   -0.000369
     11          6           0        1.907327   -1.059600   -0.000650
     12          6           0        2.719074   -0.691650    1.268131
     13          6           0        3.358122    0.698380    1.214106
     14          7           0        4.167466    0.816304    0.000792
     15          6           0        3.358775    0.699589   -1.213066
     16          6           0        2.719511   -0.690291   -1.268746
     17          1           0       -3.948976    2.425308    0.885507
     18          1           0       -5.297632    1.699026    0.000311
     19          1           0       -3.949061    2.425414   -0.884922
     20          1           0       -5.076737   -1.087559    0.000422
     21          1           0       -1.450351    2.312367   -0.000094
     22          1           0        0.913703    1.602679   -0.000500
     23          1           0       -0.372436   -2.524479   -0.000457
     24          1           0        1.814860   -2.151806   -0.001260
     25          1           0        2.084772   -0.781461    2.157188
     26          1           0        3.531918   -1.421389    1.366276
     27          1           0        2.577974    1.478565    1.290088
     28          1           0        4.015933    0.827771    2.081156
     29          1           0        4.660527    1.706080    0.001362
     30          1           0        4.017086    0.829635   -2.079640
     31          1           0        2.578831    1.479999   -1.288801
     32          1           0        3.532277   -1.420042   -1.367438
     33          1           0        2.085498   -0.779040   -2.158119
 ---------------------------------------------------------------------

 SCF Done:  E(UB3LYP) =  -670.102446820     A.U. after   33 cycles
 SCF Done:  E(UB3LYP) =  -670.102446821     a.u. after    1 cycles

 The electronic state is 2-A.
 Alpha  occ. eigenvalues --  -14.29589 -14.20233 -14.19870 -10.14031 -10.13021
 Alpha  occ. eigenvalues --  -10.11338 -10.10155 -10.09799 -10.09755 -10.09754
 Alpha  occ. eigenvalues --  -10.09527 -10.09081 -10.08874 -10.08548 -10.07907
 Alpha  occ. eigenvalues --  -10.07906  -0.93951  -0.81886  -0.81340  -0.75585
 Alpha  occ. eigenvalues --   -0.70709  -0.66838  -0.66369  -0.66313  -0.60735
 Alpha  occ. eigenvalues --   -0.56374  -0.54988  -0.53337  -0.51228  -0.50460
 Alpha  occ. eigenvalues --   -0.45242  -0.43250  -0.41819  -0.40561  -0.38431
 Alpha  occ. eigenvalues --   -0.37674  -0.36709  -0.36435  -0.35717  -0.33622
 Alpha  occ. eigenvalues --   -0.32957  -0.32535  -0.32098  -0.31666  -0.30736
 Alpha  occ. eigenvalues --   -0.30128  -0.29522  -0.28148  -0.26273  -0.25086
 Alpha  occ. eigenvalues --   -0.24154  -0.23827  -0.22417  -0.21226  -0.18475
 Alpha  occ. eigenvalues --   -0.15359  -0.13549  -0.11427   0.03952
 Alpha virt. eigenvalues --    0.05246   0.05694   0.06821   0.07459   0.07702
 Alpha virt. eigenvalues --    0.08417   0.08696   0.09346   0.09610   0.10139
 Alpha virt. eigenvalues --    0.10377   0.10597   0.11537   0.11764   0.13067

  Beta  occ. eigenvalues --  -14.29588 -14.20207 -14.19868 -10.14031 -10.12997
  Beta  occ. eigenvalues --  -10.11336 -10.10156 -10.09794 -10.09733 -10.09732
  Beta  occ. eigenvalues --  -10.09527 -10.09078 -10.08862 -10.08495 -10.07902
  Beta  occ. eigenvalues --  -10.07902  -0.93944  -0.81851  -0.81330  -0.75575
  Beta  occ. eigenvalues --   -0.70691  -0.66808  -0.66344  -0.66282  -0.60687
  Beta  occ. eigenvalues --   -0.56342  -0.54962  -0.53301  -0.51199  -0.50424
  Beta  occ. eigenvalues --   -0.45206  -0.43217  -0.41757  -0.40534  -0.38379
  Beta  occ. eigenvalues --   -0.37660  -0.36687  -0.36402  -0.35693  -0.33590
  Beta  occ. eigenvalues --   -0.32926  -0.32507  -0.32067  -0.31630  -0.30705
  Beta  occ. eigenvalues --   -0.30093  -0.29490  -0.28123  -0.26243  -0.25075
  Beta  occ. eigenvalues --   -0.24140  -0.23811  -0.22388  -0.21215  -0.18464
  Beta  occ. eigenvalues --   -0.15353  -0.13500  -0.11413
  Beta virt. eigenvalues --    0.05253   0.06147   0.06623   0.07373   0.07832
  Beta virt. eigenvalues --    0.08455   0.08462   0.08903   0.09681   0.10199
  Beta virt. eigenvalues --    0.10450   0.10488   0.11157   0.11751   0.12062

 Mulliken charges and spin densities:
               1          2
     1  C    2.145516  -2.728405
     2  C   -0.947978   1.291397
     3  C   -0.577135   0.399606
     4  N   -0.130710   0.027586
     5  C   -0.072284   0.030953
     6  N    0.066970   0.124382
     7  C    0.338824  -0.365237
     8  C   -0.443666  -0.662604
     9  C    1.010317  -0.265631
    10  C   -0.562640   0.176725
    11  C    0.826203  -0.436329
    12  C   -0.561041  -0.080132
    13  C    0.562976  -0.845348
    14  N   -0.295313   0.106593
    15  C    0.563461  -0.845472
    16  C   -0.561026  -0.080306
    17  H   -0.277320   0.451273
    18  H   -0.369662   0.528820
    19  H   -0.277378   0.451321
    20  H   -0.065174   0.219527
    21  H   -0.817369   1.030747
    22  H    0.040974   0.033020
    23  H    0.119449   0.062571
    24  H    0.166899   0.046008
    25  H    0.084933   0.064530
    26  H    0.123189   0.019374
    27  H   -0.312951   0.431121
    28  H   -0.234585   0.415774
    29  H   -0.203176   0.466405
    30  H   -0.234866   0.416082
    31  H   -0.313483   0.431646
    32  H    0.123187   0.019400
    33  H    0.084856   0.064604
 Sum of Mulliken charges =  -1.00000   1.00000

 Dipole moment (field-independent basis, Debye):
    X=              0.9801    Y=             -6.5994    Z=             -0.0010  Tot=              6.6718
 Quadrupole moment (field-independent basis, Debye-Ang):
   XX=           -193.5583   YY=           -150.9612   ZZ=           -127.0697
   XY=             -4.3789   XZ=             -0.0031   YZ=              0.0001

 Summary of Natural Population Analysis:

                                       Natural Population
                Natural  -----------------------------------------------
    Atom  No    Charge         Core      Valence    Rydberg      Total
 -----------------------------------------------------------------------
      C    1   -0.30368      0.99964     2.29844    0.00560     3.30368
      C    2    0.05093      0.99954     1.93759    0.01194     2.94907
      C    3   -0.01553      0.99953     2.00158    0.01443     3.01553
      N    4   -0.26420      0.99970     2.75485    0.00964     3.76420
      C    5    0.17779      0.99957     1.80609    0.01655     2.82221
      N    6   -0.18751      0.99959     2.67831    0.00961     3.68751
      C    7    0.02394      0.99955     1.96384    0.01267     2.97606
      C    8   -0.12663      0.99952     2.11738    0.00973     3.12663
      C    9   -0.00808      0.99950     1.99666    0.01193     3.00808
      C   10   -0.11046      0.99947     2.10343    0.00756     3.11046
      C   11   -0.11446      0.99956     2.10470    0.01020     3.11446
      C   12   -0.18898      0.99961     2.18063    0.00874     3.18898
      C   13   -0.08946      0.99962     2.07836    0.01148     3.08946
      N   14   -0.34405      0.99974     2.83135    0.01296     3.84405
      C   15   -0.08945      0.99962     2.07835    0.01148     3.08945
      C   16   -0.18898      0.99961     2.18064    0.00874     3.18898
      H   17    0.10770      0.00000     0.39032    0.00198     0.39230
      H   18    0.11088      0.00000     0.38798    0.00113     0.38912
      H   19    0.10770      0.00000     0.39032    0.00198     0.39230
      H   20    0.09515      0.00000     0.40375    0.00110     0.40485
      H   21    0.10902      0.00000     0.38855    0.00243     0.39098
      H   22    0.11061      0.00000     0.38679    0.00260     0.38939
      H   23    0.10652      0.00000     0.39194    0.00154     0.39348
      H   24    0.09924      0.00000     0.39929    0.00147     0.40076
      H   25    0.10171      0.00000     0.39742    0.00087     0.39829
      H   26    0.09841      0.00000     0.40038    0.00120     0.40159
      H   27    0.08023      0.00000     0.41752    0.00225     0.41977
      H   28    0.09596      0.00000     0.40283    0.00121     0.40404
      H   29    0.17937      0.00000     0.31645    0.00418     0.32063
      H   30    0.09596      0.00000     0.40283    0.00121     0.40404
      H   31    0.08022      0.00000     0.41753    0.00225     0.41978
      H   32    0.09841      0.00000     0.40038    0.00120     0.40159
      H   33    0.10171      0.00000     0.39742    0.00087     0.39829
 =======================================================================
   * Total *   -0.00000     15.99335    41.80390    0.20275    58.00000

 Normal termination of Gaussian 16 at Fri Dec 11 01:41:42 2020.
