 Gaussian 16, Revision A.03,

 -----------------------------------------------------------
 # opt freq B3LYP/6-31G(d) empiricaldispersion=gd3bj scf=xqc
 -----------------------------------------------------------

 ------------------------------
 CID_81054135_JID_9526_neutraal
 ------------------------------
 Symbolic Z-matrix:
 Charge =  0 Multiplicity = 1

 SCF Done:  E(RB3LYP) =  -1219.79489929     A.U. after   15 cycles
 SCF Done:  E(RB3LYP) =  -1219.80265601     A.U. after   14 cycles
 SCF Done:  E(RB3LYP) =  -1219.80352929     A.U. after   14 cycles
 SCF Done:  E(RB3LYP) =  -1219.80565792     A.U. after   13 cycles
 SCF Done:  E(RB3LYP) =  -1219.80654017     A.U. after   14 cycles
 SCF Done:  E(RB3LYP) =  -1219.80795160     A.U. after   13 cycles
 SCF Done:  E(RB3LYP) =  -1219.80826925     A.U. after   13 cycles
 SCF Done:  E(RB3LYP) =  -1219.80904611     A.U. after   13 cycles
 SCF Done:  E(RB3LYP) =  -1219.80928393     A.U. after   13 cycles
 SCF Done:  E(RB3LYP) =  -1219.80938523     A.U. after   12 cycles
 SCF Done:  E(RB3LYP) =  -1219.81008127     A.U. after    9 cycles
 SCF Done:  E(RB3LYP) =  -1219.81008158     A.U. after    8 cycles
 SCF Done:  E(RB3LYP) =  -1219.81008170     A.U. after    8 cycles
 SCF Done:  E(RB3LYP) =  -1219.81008175     A.U. after    7 cycles
 SCF Done:  E(RB3LYP) =  -1219.81008177     A.U. after    7 cycles
 Optimization completed.
    -- Stationary point found.
 Normal termination of Gaussian 16 at Sun Dec 13 17:05:52 2020.

 --------------------------------------------------------------------
 #N Geom=AllCheck Guess=TCheck SCRF=Check GenChk RB3LYP/6-31G(d) Freq
 --------------------------------------------------------------------

 Structure from the checkpoint file:  "JID_9526.chk"
 ------------------------------
 CID_81054135_JID_9526_neutraal
 ------------------------------
 Charge =  0 Multiplicity = 1

 SCF Done:  E(RB3LYP) =  -1219.81008177     A.U. after    1 cycles

  Exact polarizability: 213.827  -5.002 202.260  -7.805  11.966 134.157
 Approx polarizability: 307.503  -5.273 304.455 -18.639  38.879 228.494

                      1                      2                      3
                      A                      A                      A
 Frequencies --     17.5252                42.1951                53.0226
 Red. masses --      5.3696                 7.0044                 3.7028
 Frc consts  --      0.0010                 0.0073                 0.0061
 IR Inten    --      0.5156                 0.9268                 0.5745

                      4                      5                      6
                      A                      A                      A
 Frequencies --     67.1511                73.1530                87.7154
 Red. masses --      4.0539                 1.1502                 3.3779
 Frc consts  --      0.0108                 0.0036                 0.0153
 IR Inten    --      1.3808                 0.4011                 1.1870

                      7                      8                      9
                      A                      A                      A
 Frequencies --    105.2115               133.3669               137.6601
 Red. masses --      4.3914                 2.8456                 1.1146
 Frc consts  --      0.0286                 0.0298                 0.0124
 IR Inten    --      3.3697                 0.5256                 1.0277

                     10                     11                     12
                      A                      A                      A
 Frequencies --    149.5708               171.8123               179.8323
 Red. masses --      3.8442                 2.8412                 1.6397
 Frc consts  --      0.0507                 0.0494                 0.0312
 IR Inten    --      0.3570                 0.3974                 3.1753

                     13                     14                     15
                      A                      A                      A
 Frequencies --    185.9426               197.4247               202.4108
 Red. masses --      2.3605                 1.3848                 2.8623
 Frc consts  --      0.0481                 0.0318                 0.0691
 IR Inten    --      3.5448                 3.0533                 3.3851

                     16                     17                     18
                      A                      A                      A
 Frequencies --    208.5535               232.3915               247.5915
 Red. masses --      4.9372                 2.8721                 3.8083
 Frc consts  --      0.1265                 0.0914                 0.1375
 IR Inten    --      2.9691                 0.3957                 1.8485

                     19                     20                     21
                      A                      A                      A
 Frequencies --    286.0006               301.7680               327.3672
 Red. masses --      3.1597                 3.3331                 3.0391
 Frc consts  --      0.1523                 0.1788                 0.1919
 IR Inten    --      2.3705                10.2682                 5.1944

                     22                     23                     24
                      A                      A                      A
 Frequencies --    359.4017               382.5500               398.1000
 Red. masses --      3.2006                 5.1852                 1.3070
 Frc consts  --      0.2436                 0.4471                 0.1220
 IR Inten    --      1.9262                27.9531               203.9562

                     25                     26                     27
                      A                      A                      A
 Frequencies --    412.2340               446.3594               491.1894
 Red. masses --      2.4311                 3.7302                 3.1906
 Frc consts  --      0.2434                 0.4379                 0.4536
 IR Inten    --      5.1086                 4.0534                 1.6756

                     28                     29                     30
                      A                      A                      A
 Frequencies --    500.0503               538.0321               570.2076
 Red. masses --      3.9758                 3.0797                 4.3309
 Frc consts  --      0.5857                 0.5253                 0.8297
 IR Inten    --      0.5664                 1.4682                 3.7313

                     31                     32                     33
                      A                      A                      A
 Frequencies --    583.7407               598.2989               620.9028
 Red. masses --      3.1746                 3.8393                 4.7264
 Frc consts  --      0.6373                 0.8097                 1.0736
 IR Inten    --      1.7834                 4.3415                 0.2137

                     34                     35                     36
                      A                      A                      A
 Frequencies --    624.2257               642.4247               676.7441
 Red. masses --      3.5990                 1.2075                 5.5662
 Frc consts  --      0.8263                 0.2936                 1.5020
 IR Inten    --      4.2717                17.4186                 8.7563

                     37                     38                     39
                      A                      A                      A
 Frequencies --    687.9734               694.4265               775.0057
 Red. masses --      4.6655                 4.9704                 4.4113
 Frc consts  --      1.3011                 1.4122                 1.5611
 IR Inten    --      8.9684                 0.4377                 2.7649

                     40                     41                     42
                      A                      A                      A
 Frequencies --    814.7690               836.3983               846.7249
 Red. masses --      1.2131                 3.9804                 1.3831
 Frc consts  --      0.4745                 1.6406                 0.5842
 IR Inten    --      9.0993                 6.5867                14.2216

                     43                     44                     45
                      A                      A                      A
 Frequencies --    870.5876               912.8088               959.1592
 Red. masses --      3.3831                 2.8115                 2.4629
 Frc consts  --      1.5107                 1.3802                 1.3350
 IR Inten    --      3.5879                39.4033                36.1552

                     46                     47                     48
                      A                      A                      A
 Frequencies --   1002.0558              1010.5862              1019.2520
 Red. masses --      2.9965                 3.6079                 1.7167
 Frc consts  --      1.7727                 2.1710                 1.0508
 IR Inten    --     28.3195                34.5211                 1.1637

                     49                     50                     51
                      A                      A                      A
 Frequencies --   1050.6479              1064.3742              1067.8158
 Red. masses --      7.6994                 1.5846                 1.5942
 Frc consts  --      5.0075                 1.0577                 1.0710
 IR Inten    --     75.0174                 4.5155                 4.5265

                     52                     53                     54
                      A                      A                      A
 Frequencies --   1077.2085              1108.6033              1109.2646
 Red. masses --      1.5808                 1.9966                 2.0018
 Frc consts  --      1.0807                 1.4458                 1.4513
 IR Inten    --      0.9102                 6.1834                62.1712

                     55                     56                     57
                      A                      A                      A
 Frequencies --   1133.7007              1185.0339              1188.5597
 Red. masses --      2.9969                 1.6252                 1.6303
 Frc consts  --      2.2694                 1.3447                 1.3569
 IR Inten    --      1.1510                 9.3502                17.4806

                     58                     59                     60
                      A                      A                      A
 Frequencies --   1216.6281              1224.2682              1253.8506
 Red. masses --      1.5075                 2.1029                 2.3510
 Frc consts  --      1.3147                 1.8571                 2.1777
 IR Inten    --      6.0557                27.3983               132.5778

                     61                     62                     63
                      A                      A                      A
 Frequencies --   1275.9933              1296.1293              1315.7572
 Red. masses --      5.2211                 2.4150                 1.6215
 Frc consts  --      5.0085                 2.3904                 1.6539
 IR Inten    --    229.9021                16.8589                 8.3273

                     64                     65                     66
                      A                      A                      A
 Frequencies --   1344.8257              1352.8774              1375.2026
 Red. masses --      1.6016                 3.5033                 4.2722
 Frc consts  --      1.7066                 3.7778                 4.7603
 IR Inten    --     24.0088               115.4793                71.5342

                     67                     68                     69
                      A                      A                      A
 Frequencies --   1388.5201              1411.5111              1417.5617
 Red. masses --      1.3639                 1.5102                 2.0178
 Frc consts  --      1.5493                 1.7728                 2.3890
 IR Inten    --     19.3566                74.8491                38.7336

                     70                     71                     72
                      A                      A                      A
 Frequencies --   1435.0488              1442.0670              1443.2304
 Red. masses --      1.2604                 1.7130                 1.2571
 Frc consts  --      1.5293                 2.0988                 1.5427
 IR Inten    --      5.3020                15.8012                18.0003

                     73                     74                     75
                      A                      A                      A
 Frequencies --   1472.2756              1486.2642              1491.3742
 Red. masses --      2.5457                 1.7140                 1.2619
 Frc consts  --      3.2511                 2.2307                 1.6537
 IR Inten    --     58.9456                32.3413                 7.7692

                     76                     77                     78
                      A                      A                      A
 Frequencies --   1504.3264              1505.0637              1512.1485
 Red. masses --      1.0491                 1.0874                 1.1088
 Frc consts  --      1.3988                 1.4512                 1.4938
 IR Inten    --      7.7174                 4.9726                16.0376

                     79                     80                     81
                      A                      A                      A
 Frequencies --   1512.3936              1515.6555              1523.3594
 Red. masses --      1.0556                 1.1154                 1.0782
 Frc consts  --      1.4225                 1.5096                 1.4742
 IR Inten    --      3.3060                11.0762                12.4086

                     82                     83                     84
                      A                      A                      A
 Frequencies --   1525.1974              1530.1294              1532.9144
 Red. masses --      1.0489                 1.3651                 1.0866
 Frc consts  --      1.4376                 1.8831                 1.5044
 IR Inten    --      5.4912                73.9008                24.3344

                     85                     86                     87
                      A                      A                      A
 Frequencies --   1550.8752              1591.3758              1636.6077
 Red. masses --      1.1581                 7.2518                 5.3575
 Frc consts  --      1.6411                10.8203                 8.4548
 IR Inten    --     28.5087               142.6167               328.0128

                     88                     89                     90
                      A                      A                      A
 Frequencies --   1657.2431              1833.9553              3044.4260
 Red. masses --      1.2525                11.4980                 1.0719
 Frc consts  --      2.0268                22.7851                 5.8535
 IR Inten    --    165.7441               195.0514                20.0416

                     91                     92                     93
                      A                      A                      A
 Frequencies --   3056.2075              3059.0903              3067.8587
 Red. masses --      1.0357                 1.0374                 1.0368
 Frc consts  --      5.6995                 5.7200                 5.7490
 IR Inten    --     21.8810                24.9272                 9.8200

                     94                     95                     96
                      A                      A                      A
 Frequencies --   3075.8529              3081.0796              3112.7821
 Red. masses --      1.0303                 1.0632                 1.1025
 Frc consts  --      5.7432                 5.9467                 6.2941
 IR Inten    --     33.6289                24.0181                 5.1189

                     97                     98                     99
                      A                      A                      A
 Frequencies --   3116.7255              3127.4178              3127.4831
 Red. masses --      1.1007                 1.1012                 1.1002
 Frc consts  --      6.2995                 6.3458                 6.3403
 IR Inten    --     11.8912                29.6425                 9.8689

                    100                    101                    102
                      A                      A                      A
 Frequencies --   3136.3185              3142.5551              3150.7900
 Red. masses --      1.1034                 1.1030                 1.1063
 Frc consts  --      6.3949                 6.4176                 6.4708
 IR Inten    --     19.0293                35.5888                18.9675

                    103                    104                    105
                      A                      A                      A
 Frequencies --   3152.3011              3163.5120              3185.8505
 Red. masses --      1.0900                 1.1029                 1.1076
 Frc consts  --      6.3815                 6.5031                 6.6232
 IR Inten    --     17.3538                12.2620                12.9475

                    106                    107                    108
                      A                      A                      A
 Frequencies --   3251.7958              3553.3206              3684.2461
 Red. masses --      1.0892                 1.0444                 1.1054
 Frc consts  --      6.7855                 7.7694                 8.8406
 IR Inten    --     10.7001                48.2721                31.2951

 - Thermochemistry -
 -------------------
 Temperature   298.150 Kelvin.  Pressure   1.00000 Atm.
 Atom     1 has atomic number  6 and mass  12.00000

 Molecular mass:   281.11980 amu.
 Principal axes and moments of inertia in atomic units:
                           1         2         3
     Eigenvalues --  4085.145316321.097248873.33759
           X            0.99997   0.00158   0.00704
           Y           -0.00139   0.99963  -0.02706
           Z           -0.00708   0.02705   0.99961
 This molecule is an asymmetric top.
 Rotational symmetry number  1.
 Warning -- assumption of classical behavior for rotation
           may cause significant error
 Rotational temperatures (Kelvin)      0.02120     0.01370     0.00976
 Rotational constants (GHZ):           0.44178     0.28551     0.20339
 Zero-point vibrational energy     828601.4 (Joules/Mol)
                                  198.04048 (Kcal/Mol)
 Warning -- explicit consideration of  32 degrees of freedom as
           vibrations may cause significant error
 Vibrational temperatures:     25.21    60.71    76.29    96.62   105.25
          (Kelvin)            126.20   151.38   191.89   198.06   215.20
                              247.20   258.74   267.53   284.05   291.22
                              300.06   334.36   356.23   411.49   434.18
                              471.01   517.10   550.40   572.78   593.11
                              642.21   706.71   719.46   774.11   820.40
                              839.87   860.82   893.34   898.12   924.31
                              973.68   989.84   999.12  1115.06  1172.27
                             1203.39  1218.25  1252.58  1313.33  1380.02
                             1441.73  1454.01  1466.48  1511.65  1531.40
                             1536.35  1549.86  1595.03  1595.98  1631.14
                             1705.00  1710.07  1750.46  1761.45  1804.01
                             1835.87  1864.84  1893.08  1934.90  1946.49
                             1978.61  1997.77  2030.85  2039.56  2064.72
                             2074.81  2076.49  2118.28  2138.40  2145.75
                             2164.39  2165.45  2175.64  2176.00  2180.69
                             2191.77  2194.42  2201.51  2205.52  2231.36
                             2289.63  2354.71  2384.40  2638.65  4380.25
                             4397.20  4401.35  4413.96  4425.47  4432.99
                             4478.60  4484.27  4499.66  4499.75  4512.46
                             4521.44  4533.28  4535.46  4551.59  4583.73
                             4678.61  5112.44  5300.81

 Zero-point correction=                           0.315598 (Hartree/Particle)
 Thermal correction to Energy=                    0.336256
 Thermal correction to Enthalpy=                  0.337201
 Thermal correction to Gibbs Free Energy=         0.265393
 Sum of electronic and zero-point Energies=          -1219.494484
 Sum of electronic and thermal Energies=             -1219.473825
 Sum of electronic and thermal Enthalpies=           -1219.472881
 Sum of electronic and thermal Free Energies=        -1219.544689

                     E (Thermal)             CV                S
                      KCal/Mol        Cal/Mol-Kelvin    Cal/Mol-Kelvin
 Total                  211.004             75.423            151.132
 Electronic               0.000              0.000              0.000
 Translational            0.889              2.981             42.799
 Rotational               0.889              2.981             33.793
 Vibrational            209.227             69.461             74.540
 Vibration     1          0.593              1.986              6.897
 Vibration     2          0.595              1.980              5.153
 Vibration     3          0.596              1.976              4.701
 Vibration     4          0.598              1.970              4.235
 Vibration     5          0.599              1.967              4.067
 Vibration     6          0.601              1.958              3.710
 Vibration     7          0.605              1.945              3.355
 Vibration     8          0.613              1.920              2.897
 Vibration     9          0.614              1.916              2.836
 Vibration    10          0.618              1.903              2.678
 Vibration    11          0.626              1.877              2.416
 Vibration    12          0.629              1.867              2.330
 Vibration    13          0.632              1.859              2.268
 Vibration    14          0.637              1.843              2.157
 Vibration    15          0.639              1.836              2.111
 Vibration    16          0.642              1.828              2.056
 Vibration    17          0.653              1.791              1.860
 Vibration    18          0.661              1.767              1.748
 Vibration    19          0.684              1.700              1.498
 Vibration    20          0.694              1.670              1.407
 Vibration    21          0.711              1.621              1.273
 Vibration    22          0.734              1.556              1.125
 Vibration    23          0.752              1.507              1.029
 Vibration    24          0.764              1.474              0.970
 Vibration    25          0.776              1.444              0.919
 Vibration    26          0.806              1.369              0.807
 Vibration    27          0.847              1.270              0.681
 Vibration    28          0.855              1.250              0.658
 Vibration    29          0.893              1.166              0.570
 Vibration    30          0.926              1.096              0.504
 Vibration    31          0.941              1.067              0.478
 Vibration    32          0.956              1.035              0.453

 Optimization completed.
    -- Stationary point found.
 Normal termination of Gaussian 16 at Sun Dec 13 17:28:32 2020.

 ----------------------------------------------------------------------
 # B3LYP/6-311++G(d,p) empiricaldispersion=gd3bj scf=xqc pop=npa geom=c
 heck
 ----------------------------------------------------------------------

 --------------------------------------
 CID_81054135_JID_9526_Energie_neutraal
 --------------------------------------
 Structure from the checkpoint file:  "JID_9526.chk"
 Charge =  0 Multiplicity = 1

 SCF Done:  E(RB3LYP) =  -1220.06717880     A.U. after   17 cycles
 Normal termination of Gaussian 16 at Sun Dec 13 17:40:05 2020.

 ----------------------------------------------------------------------
 # B3LYP/6-311++G(d,p) empiricaldispersion=gd3bj scf=xqc pop=npa geom=c
 heck
 ----------------------------------------------------------------------

 ------------------------------------
 CID_81054135_JID_9526_Energie_kation
 ------------------------------------
 Structure from the checkpoint file:  "JID_9526.chk"
 Charge =  1 Multiplicity = 2

 SCF Done:  E(UB3LYP) =  -1219.79455722     A.U. after   26 cycles
 Normal termination of Gaussian 16 at Sun Dec 13 18:05:37 2020.
 Gaussian 16:  ES64L-G16RevA.03 25-Dec-2016

 ----------------------------------------------------------------------
 # B3LYP/6-311++G(d,p) empiricaldispersion=gd3bj scf=xqc pop=npa geom=c
 heck
 ----------------------------------------------------------------------

 -----------------------------------
 CID_81054135_JID_9526_Energie_anion
 -----------------------------------
 Structure from the checkpoint file:  "JID_9526.chk"
 Charge = -1 Multiplicity = 2

                         Standard orientation:
 ---------------------------------------------------------------------
 Center     Atomic      Atomic             Coordinates (Angstroms)
 Number     Number       Type             X           Y           Z
 ---------------------------------------------------------------------
      1          6           0        0.475785    3.481942   -1.381172
      2          6           0        0.772905    2.635915   -0.138201
      3          7           0        0.524568    1.202213   -0.308624
      4          6           0        1.576722    0.504906   -1.015959
      5          6           0        2.807445    0.125066   -0.198477
      6          8           0        3.735051   -0.501624   -0.655506
      7          8           0        2.776148    0.596317    1.072223
      8          6           0        3.947490    0.298944    1.850642
      9          6           0       -0.739054    0.670760   -0.077348
     10          6           0       -1.022390   -0.720194    0.021833
     11          6           0       -2.352250   -1.126756    0.278611
     12          7           0       -3.365745   -0.270093    0.440856
     13          6           0       -3.105163    1.043443    0.348935
     14          6           0       -1.835174    1.542267    0.101618
     15          6           0       -4.285264    1.964774    0.518358
     16          6           0       -2.723120   -2.581460    0.431995
     17          6           0        0.033498   -1.774891   -0.035136
     18         16           0        0.156748   -2.921689   -1.239585
     19          7           0        0.900027   -1.736100    0.996511
     20          1           0        1.089212    3.165718   -2.231904
     21          1           0        0.701257    4.535759   -1.183239
     22          1           0       -0.572626    3.403392   -1.682300
     23          1           0        1.825704    2.742274    0.140686
     24          1           0        0.198503    2.989198    0.721869
     25          1           0        1.208065   -0.403702   -1.492071
     26          1           0        1.948794    1.130725   -1.838351
     27          1           0        4.069954   -0.782159    1.961647
     28          1           0        4.840457    0.704287    1.369114
     29          1           0        3.782173    0.769435    2.819854
     30          1           0       -1.709088    2.612324    0.020195
     31          1           0       -5.036509    1.761959   -0.253075
     32          1           0       -4.766723    1.787080    1.486188
     33          1           0       -3.994859    3.017735    0.456591
     34          1           0       -3.726477   -2.635606    0.858014
     35          1           0       -2.716276   -3.089243   -0.537436
     36          1           0       -2.021915   -3.121251    1.076450
     37          1           0        0.878740   -0.981228    1.669559
     38          1           0        1.683506   -2.377649    1.002440
 ---------------------------------------------------------------------

 SCF Done:  E(UB3LYP) =  -1220.07235359     A.U. after   33 cycles
 SCF Done:  E(UB3LYP) =  -1220.07235359     a.u. after    1 cycles

 The electronic state is 2-A.
 Alpha  occ. eigenvalues --  -88.64853 -19.07650 -19.01351 -14.23435 -14.20998
 Alpha  occ. eigenvalues --  -14.17587 -10.20251 -10.13810 -10.11701 -10.11284
 Alpha  occ. eigenvalues --  -10.11233 -10.09500 -10.09082 -10.09051 -10.07777
 Alpha  occ. eigenvalues --  -10.06701 -10.06048 -10.05545 -10.03889  -7.73615
 Alpha  occ. eigenvalues --   -5.69960  -5.69513  -5.69182  -1.01465  -0.92615
 Alpha  occ. eigenvalues --   -0.85786  -0.82151  -0.81116  -0.69344  -0.68487
 Alpha  occ. eigenvalues --   -0.67610  -0.64265  -0.62285  -0.60118  -0.59184
 Alpha  occ. eigenvalues --   -0.57019  -0.54398  -0.49607  -0.48459  -0.46998
 Alpha  occ. eigenvalues --   -0.45901  -0.42588  -0.41636  -0.40776  -0.40573
 Alpha  occ. eigenvalues --   -0.39285  -0.37709  -0.35639  -0.35267  -0.34805
 Alpha  occ. eigenvalues --   -0.33896  -0.33163  -0.32770  -0.31988  -0.31010
 Alpha  occ. eigenvalues --   -0.30626  -0.29920  -0.29271  -0.28369  -0.27597
 Alpha  occ. eigenvalues --   -0.27262  -0.26431  -0.25964  -0.25598  -0.24744
 Alpha  occ. eigenvalues --   -0.23633  -0.21835  -0.21623  -0.20932  -0.18247
 Alpha  occ. eigenvalues --   -0.14101  -0.13357  -0.10985  -0.09785  -0.07118
 Alpha  occ. eigenvalues --    0.03864
 Alpha virt. eigenvalues --    0.05482   0.06271   0.07514   0.08438   0.08967
 Alpha virt. eigenvalues --    0.09161   0.09645   0.09703   0.09858   0.10300
 Alpha virt. eigenvalues --    0.10462   0.10786   0.11571   0.12066   0.12270

  Beta  occ. eigenvalues --  -88.64819 -19.07630 -19.01319 -14.23413 -14.20874
  Beta  occ. eigenvalues --  -14.17626 -10.20231 -10.13783 -10.11635 -10.11281
  Beta  occ. eigenvalues --  -10.11227 -10.08954 -10.08948 -10.08880 -10.07760
  Beta  occ. eigenvalues --  -10.06709 -10.06065 -10.05556 -10.03895  -7.73585
  Beta  occ. eigenvalues --   -5.69963  -5.69385  -5.69161  -1.01422  -0.92565
  Beta  occ. eigenvalues --   -0.85710  -0.82028  -0.80647  -0.69235  -0.68340
  Beta  occ. eigenvalues --   -0.67534  -0.64182  -0.62003  -0.60058  -0.58909
  Beta  occ. eigenvalues --   -0.56892  -0.54334  -0.49417  -0.48340  -0.46927
  Beta  occ. eigenvalues --   -0.45559  -0.42442  -0.41511  -0.40692  -0.40491
  Beta  occ. eigenvalues --   -0.39203  -0.37650  -0.35469  -0.35211  -0.34700
  Beta  occ. eigenvalues --   -0.33828  -0.33034  -0.32614  -0.31840  -0.30942
  Beta  occ. eigenvalues --   -0.30453  -0.29799  -0.29223  -0.28317  -0.27553
  Beta  occ. eigenvalues --   -0.27120  -0.26404  -0.25907  -0.25454  -0.24406
  Beta  occ. eigenvalues --   -0.22621  -0.21431  -0.21123  -0.20810  -0.18161
  Beta  occ. eigenvalues --   -0.14070  -0.12987  -0.10789  -0.08844  -0.06978
  Beta virt. eigenvalues --    0.05792   0.06483   0.07474   0.08354   0.08955
  Beta virt. eigenvalues --    0.09126   0.09200   0.09888   0.09936   0.10053
  Beta virt. eigenvalues --    0.10445   0.10769   0.11083   0.11759   0.12137

 Mulliken charges and spin densities:
               1          2
     1  C    0.160155  -0.597211
     2  C   -0.439071   0.217730
     3  N    0.409433   0.009845
     4  C    0.135589  -0.397760
     5  C   -0.594296   0.263859
     6  O   -0.172049   0.010147
     7  O   -0.068745   0.032341
     8  C    0.385678  -0.592499
     9  C    0.014395   0.047188
    10  C    0.384653  -0.127721
    11  C   -0.730054   0.053770
    12  N    0.065782  -0.022428
    13  C   -0.240305   0.003497
    14  C    0.090606   0.001976
    15  C   -0.591401   0.055675
    16  C   -0.513517   0.001670
    17  C    0.235634   0.175013
    18  S   -0.903137   0.189853
    19  N   -0.177078   0.106516
    20  H    0.061765   0.071642
    21  H   -0.062970   0.188962
    22  H    0.040725   0.100003
    23  H   -0.139018   0.296020
    24  H    0.082111   0.082066
    25  H    0.229497   0.006509
    26  H    0.020734   0.157459
    27  H    0.010357   0.163425
    28  H   -0.059302   0.235484
    29  H   -0.101053   0.253888
    30  H    0.148675  -0.066843
    31  H    0.137148   0.014988
    32  H    0.143659   0.002284
    33  H    0.092208   0.028252
    34  H    0.129460   0.003384
    35  H    0.157800   0.014804
    36  H    0.134706   0.032160
    37  H    0.247979  -0.011406
    38  H    0.273247  -0.004545
 Sum of Mulliken charges =  -1.00000   1.00000

 Dipole moment (field-independent basis, Debye):
    X=             -0.2610    Y=              5.6023    Z=              3.3559  Tot=              6.5358
 Quadrupole moment (field-independent basis, Debye-Ang):
   XX=           -175.1248   YY=           -166.4353   ZZ=           -142.2286
   XY=             -3.2524   XZ=              5.5559   YZ=            -10.9577

 Summary of Natural Population Analysis:

                                       Natural Population
                Natural  -----------------------------------------------
    Atom  No    Charge         Core      Valence    Rydberg      Total
 -----------------------------------------------------------------------
      C    1   -0.29387      0.99966     2.29026    0.00395     3.29387
      C    2   -0.08619      0.99962     2.07562    0.01095     3.08619
      N    3   -0.24800      0.99965     2.73698    0.01138     3.74800
      C    4   -0.14048      0.99954     2.12902    0.01193     3.14048
      C    5    0.40822      0.99969     1.56554    0.02655     2.59178
      O    6   -0.30300      0.99987     3.29735    0.00578     4.30300
      O    7   -0.28315      0.99986     3.27447    0.00882     4.28315
      C    8   -0.10429      0.99959     2.09655    0.00815     3.10429
      C    9    0.13239      0.99945     1.85643    0.01174     2.86761
      C   10   -0.09359      0.99938     2.08275    0.01146     3.09359
      C   11    0.14914      0.99952     1.83761    0.01372     2.85086
      N   12   -0.27776      0.99965     2.76645    0.01166     3.77776
      C   13    0.13100      0.99955     1.85808    0.01137     2.86900
      C   14   -0.16388      0.99947     2.15668    0.00773     3.16388
      C   15   -0.29473      0.99964     2.29029    0.00480     3.29473
      C   16   -0.30190      0.99963     2.29757    0.00470     3.30190
      C   17    0.14522      0.99961     1.83381    0.02137     2.85478
      S   18   -0.12441      4.99953     3.11111    0.01377     8.12441
      N   19   -0.37100      0.99967     2.86091    0.01043     3.87100
      H   20    0.09809      0.00000     0.40099    0.00092     0.40191
      H   21    0.09740      0.00000     0.40153    0.00108     0.40260
      H   22    0.10106      0.00000     0.39800    0.00093     0.39894
      H   23    0.09897      0.00000     0.39951    0.00152     0.40103
      H   24    0.09830      0.00000     0.40058    0.00112     0.40170
      H   25    0.13918      0.00000     0.35930    0.00152     0.36082
      H   26    0.10604      0.00000     0.39292    0.00104     0.39396
      H   27    0.09062      0.00000     0.40786    0.00152     0.40938
      H   28    0.09146      0.00000     0.40712    0.00142     0.40854
      H   29    0.09034      0.00000     0.40849    0.00117     0.40966
      H   30    0.09796      0.00000     0.40041    0.00163     0.40204
      H   31    0.10406      0.00000     0.39499    0.00095     0.39594
      H   32    0.10354      0.00000     0.39552    0.00094     0.39646
      H   33    0.09413      0.00000     0.40503    0.00084     0.40587
      H   34    0.10094      0.00000     0.39810    0.00096     0.39906
      H   35    0.11582      0.00000     0.38334    0.00084     0.38418
      H   36    0.10561      0.00000     0.39323    0.00116     0.39439
      H   37    0.19192      0.00000     0.30605    0.00203     0.30808
      H   38    0.19484      0.00000     0.30357    0.00159     0.30516
 =======================================================================
   * Total *    0.00000     22.99257    51.77399    0.23344    75.00000

 Normal termination of Gaussian 16 at Sun Dec 13 18:37:57 2020.
