 Gaussian 16, Revision A.03,

 -----------------------------------------------------------
 # opt freq B3LYP/6-31G(d) empiricaldispersion=gd3bj scf=xqc
 -----------------------------------------------------------

 ------------------------------
 CID_87181496_JID_3149_neutraal
 ------------------------------
 Symbolic Z-matrix:
 Charge =  0 Multiplicity = 1

 SCF Done:  E(RB3LYP) =  -612.531493304     A.U. after   15 cycles
 SCF Done:  E(RB3LYP) =  -612.537415426     A.U. after   13 cycles
 SCF Done:  E(RB3LYP) =  -612.530719885     A.U. after   14 cycles
 SCF Done:  E(RB3LYP) =  -612.540646227     A.U. after   13 cycles
 SCF Done:  E(RB3LYP) =  -612.542101012     A.U. after   13 cycles
 SCF Done:  E(RB3LYP) =  -612.543744222     A.U. after   13 cycles
 SCF Done:  E(RB3LYP) =  -612.545098125     A.U. after   13 cycles
 SCF Done:  E(RB3LYP) =  -612.546112921     A.U. after   12 cycles
 SCF Done:  E(RB3LYP) =  -612.546776074     A.U. after   13 cycles
 SCF Done:  E(RB3LYP) =  -612.547153755     A.U. after   13 cycles
 SCF Done:  E(RB3LYP) =  -612.547507572     A.U. after    9 cycles
 SCF Done:  E(RB3LYP) =  -612.547507841     A.U. after    9 cycles
 SCF Done:  E(RB3LYP) =  -612.547508845     A.U. after    8 cycles
 SCF Done:  E(RB3LYP) =  -612.547508976     A.U. after    8 cycles
 SCF Done:  E(RB3LYP) =  -612.547508998     A.U. after    7 cycles
 Optimization completed.
    -- Stationary point found.
 Normal termination of Gaussian 16 at Wed Dec  9 22:30:57 2020.

 --------------------------------------------------------------------
 #N Geom=AllCheck Guess=TCheck SCRF=Check GenChk RB3LYP/6-31G(d) Freq
 --------------------------------------------------------------------

 Structure from the checkpoint file:  "JID_3149.chk"
 ------------------------------
 CID_87181496_JID_3149_neutraal
 ------------------------------
 Charge =  0 Multiplicity = 1

 SCF Done:  E(RB3LYP) =  -612.547508998     A.U. after    1 cycles

  Exact polarizability: 143.561  -1.027 134.690  -8.141  -3.784  85.311
 Approx polarizability: 186.128  -4.380 213.040 -18.209 -11.149 129.501

                      1                      2                      3
                      A                      A                      A
 Frequencies --     41.1636                61.3079                87.6092
 Red. masses --      3.3784                 7.6811                 3.3668
 Frc consts  --      0.0034                 0.0170                 0.0152
 IR Inten    --      0.1626                 1.8577                 0.6888

                      4                      5                      6
                      A                      A                      A
 Frequencies --     96.3349               105.8825               148.9671
 Red. masses --      3.0808                 3.1028                 2.6961
 Frc consts  --      0.0168                 0.0205                 0.0353
 IR Inten    --      1.9032                 0.2228                 2.2888

                      7                      8                      9
                      A                      A                      A
 Frequencies --    162.0621               174.8780               191.7064
 Red. masses --      1.2858                 1.4791                 1.3886
 Frc consts  --      0.0199                 0.0267                 0.0301
 IR Inten    --      0.0912                 1.9835                 0.8874

                     10                     11                     12
                      A                      A                      A
 Frequencies --    194.1326               209.9556               217.7532
 Red. masses --      1.2779                 1.4411                 2.3062
 Frc consts  --      0.0284                 0.0374                 0.0644
 IR Inten    --      0.5393                 1.0371                 0.5082

                     13                     14                     15
                      A                      A                      A
 Frequencies --    281.6448               294.8821               343.9983
 Red. masses --      3.1136                 3.0692                 3.4470
 Frc consts  --      0.1455                 0.1572                 0.2403
 IR Inten    --      2.7054                 2.7239                 2.0537

                     16                     17                     18
                      A                      A                      A
 Frequencies --    363.4262               396.2306               416.6255
 Red. masses --      3.8886                 2.4187                 2.9242
 Frc consts  --      0.3026                 0.2237                 0.2990
 IR Inten    --     16.0736                 1.7389                 1.9580

                     19                     20                     21
                      A                      A                      A
 Frequencies --    443.9076               497.9913               536.8682
 Red. masses --      2.6583                 3.8338                 4.2890
 Frc consts  --      0.3086                 0.5602                 0.7284
 IR Inten    --     12.3925                 8.1228                18.8825

                     22                     23                     24
                      A                      A                      A
 Frequencies --    578.6709               625.2860               654.8375
 Red. masses --      1.2153                 3.3861                 3.7175
 Frc consts  --      0.2398                 0.7800                 0.9392
 IR Inten    --     77.5222                17.5185                15.1545

                     25                     26                     27
                      A                      A                      A
 Frequencies --    686.1326               720.7611               796.1365
 Red. masses --      3.4513                 2.1951                 1.9435
 Frc consts  --      0.9573                 0.6719                 0.7258
 IR Inten    --     20.9066                 9.7588                10.9126

                     28                     29                     30
                      A                      A                      A
 Frequencies --    820.4384               821.8273               833.5166
 Red. masses --      1.9326                 2.1882                 3.6191
 Frc consts  --      0.7664                 0.8707                 1.4814
 IR Inten    --     47.9675                 4.8396                 4.1893

                     31                     32                     33
                      A                      A                      A
 Frequencies --    913.3009               945.1687               965.4535
 Red. masses --      3.8615                 2.0035                 1.6826
 Frc consts  --      1.8977                 1.0545                 0.9240
 IR Inten    --     15.5149                 6.4614                 1.4788

                     34                     35                     36
                      A                      A                      A
 Frequencies --    981.2063              1014.6916              1084.1977
 Red. masses --      1.3024                 2.5732                 1.7723
 Frc consts  --      0.7388                 1.5610                 1.2275
 IR Inten    --      0.7777                 6.0394                31.9521

                     37                     38                     39
                      A                      A                      A
 Frequencies --   1109.5965              1111.9124              1125.5929
 Red. masses --      1.6698                 1.5130                 1.7629
 Frc consts  --      1.2113                 1.1021                 1.3159
 IR Inten    --     14.5736                21.1849                 4.5449

                     40                     41                     42
                      A                      A                      A
 Frequencies --   1144.6863              1158.6855              1199.7804
 Red. masses --      1.4778                 2.1655                 4.0622
 Frc consts  --      1.1409                 1.7129                 3.4452
 IR Inten    --     52.6213                24.8290               124.0252

                     43                     44                     45
                      A                      A                      A
 Frequencies --   1216.4023              1282.8502              1292.2553
 Red. masses --      1.9528                 1.4487                 2.0916
 Frc consts  --      1.7024                 1.4047                 2.0579
 IR Inten    --     69.5748                 6.4167                10.2208

                     46                     47                     48
                      A                      A                      A
 Frequencies --   1310.3811              1369.8961              1380.4168
 Red. masses --      1.6410                 1.5146                 1.8864
 Frc consts  --      1.6602                 1.6746                 2.1179
 IR Inten    --     22.9080                 7.8689                41.0549

                     49                     50                     51
                      A                      A                      A
 Frequencies --   1425.1261              1432.7227              1435.0555
 Red. masses --      1.3451                 1.3198                 1.2451
 Frc consts  --      1.6096                 1.5962                 1.5107
 IR Inten    --     29.6193                 6.1831                 5.3727

                     52                     53                     54
                      A                      A                      A
 Frequencies --   1461.2689              1487.3927              1498.3012
 Red. masses --      1.8252                 1.3770                 1.0524
 Frc consts  --      2.2962                 1.7949                 1.3920
 IR Inten    --     89.7276                15.9594                 6.1495

                     55                     56                     57
                      A                      A                      A
 Frequencies --   1501.7027              1505.3086              1515.0050
 Red. masses --      1.0666                 1.0722                 1.0597
 Frc consts  --      1.4171                 1.4315                 1.4331
 IR Inten    --      4.2013                 2.8080                20.7501

                     58                     59                     60
                      A                      A                      A
 Frequencies --   1520.0891              1525.4531              1535.2589
 Red. masses --      1.0709                 1.0457                 1.0728
 Frc consts  --      1.4579                 1.4337                 1.4899
 IR Inten    --     25.1151                 0.3546                19.4226

                     61                     62                     63
                      A                      A                      A
 Frequencies --   1540.6898              1548.8378              1660.0924
 Red. masses --      1.0895                 1.0874                 7.3926
 Frc consts  --      1.5237                 1.5369                12.0036
 IR Inten    --     11.4780                 5.0223               176.4961

                     64                     65                     66
                      A                      A                      A
 Frequencies --   1724.0973              1797.4824              3031.6022
 Red. masses --      7.3893                 8.0700                 1.0529
 Frc consts  --     12.9412                15.3621                 5.7014
 IR Inten    --     30.3896               563.9615                62.9288

                     67                     68                     69
                      A                      A                      A
 Frequencies --   3042.9665              3047.8961              3054.9357
 Red. masses --      1.0411                 1.0426                 1.0351
 Frc consts  --      5.6800                 5.7067                 5.6916
 IR Inten    --      7.1586                31.0028                27.3527

                     70                     71                     72
                      A                      A                      A
 Frequencies --   3072.5444              3095.9648              3106.9670
 Red. masses --      1.0622                 1.0998                 1.1016
 Frc consts  --      5.9080                 6.2110                 6.2652
 IR Inten    --     24.4320                10.9214                 3.1253

                     73                     74                     75
                      A                      A                      A
 Frequencies --   3108.7493              3124.6972              3133.3323
 Red. masses --      1.0924                 1.1019                 1.0835
 Frc consts  --      6.2203                 6.3391                 6.2678
 IR Inten    --     17.7385                43.3859                21.4681

                     76                     77                     78
                      A                      A                      A
 Frequencies --   3135.5653              3163.5486              3167.7057
 Red. masses --      1.1035                 1.0999                 1.1002
 Frc consts  --      6.3924                 6.4859                 6.5043
 IR Inten    --     33.5840                 7.7155                 5.4675

                     79                     80                     81
                      A                      A                      A
 Frequencies --   3177.6397              3215.4172              3691.5344
 Red. masses --      1.1020                 1.0878                 1.0638
 Frc consts  --      6.5560                 6.6264                 8.5411
 IR Inten    --     13.1293                 3.1758                44.1303

 - Thermochemistry -
 -------------------
 Temperature   298.150 Kelvin.  Pressure   1.00000 Atm.
 Atom     1 has atomic number  6 and mass  12.00000

 Molecular mass:   184.12118 amu.
 Principal axes and moments of inertia in atomic units:
                           1         2         3
     Eigenvalues --  1985.071652635.054033951.01906
           X            0.99998   0.00664   0.00078
           Y           -0.00663   0.99995  -0.00738
           Z           -0.00082   0.00738   0.99997
 This molecule is an asymmetric top.
 Rotational symmetry number  1.
 Warning -- assumption of classical behavior for rotation
           may cause significant error
 Rotational temperatures (Kelvin)      0.04363     0.03287     0.02192
 Rotational constants (GHZ):           0.90916     0.68490     0.45678
 Zero-point vibrational energy     651344.9 (Joules/Mol)
                                  155.67516 (Kcal/Mol)
 Warning -- explicit consideration of  22 degrees of freedom as
           vibrations may cause significant error
 Vibrational temperatures:     59.23    88.21   126.05   138.60   152.34
          (Kelvin)            214.33   233.17   251.61   275.82   279.31
                              302.08   313.30   405.22   424.27   494.94
                              522.89   570.09   599.43   638.68   716.50
                              772.43   832.58   899.65   942.17   987.19
                             1037.01  1145.46  1180.43  1182.43  1199.24
                             1314.04  1359.89  1389.07  1411.74  1459.91
                             1559.92  1596.46  1599.79  1619.48  1646.95
                             1667.09  1726.22  1750.13  1845.74  1859.27
                             1885.35  1970.97  1986.11  2050.44  2061.37
                             2064.72  2102.44  2140.03  2155.72  2160.62
                             2165.80  2179.75  2187.07  2194.79  2208.90
                             2216.71  2228.43  2388.50  2480.59  2586.18
                             4361.80  4378.15  4385.24  4395.37  4420.71
                             4454.40  4470.23  4472.80  4495.74  4508.17
                             4511.38  4551.64  4557.62  4571.91  4626.27
                             5311.29

 Zero-point correction=                           0.248084 (Hartree/Particle)
 Thermal correction to Energy=                    0.263260
 Thermal correction to Enthalpy=                  0.264204
 Thermal correction to Gibbs Free Energy=         0.206109
 Sum of electronic and zero-point Energies=           -612.299425
 Sum of electronic and thermal Energies=              -612.284249
 Sum of electronic and thermal Enthalpies=            -612.283305
 Sum of electronic and thermal Free Energies=         -612.341400

                     E (Thermal)             CV                S
                      KCal/Mol        Cal/Mol-Kelvin    Cal/Mol-Kelvin
 Total                  165.198             55.050            122.271
 Electronic               0.000              0.000              0.000
 Translational            0.889              2.981             41.538
 Rotational               0.889              2.981             31.403
 Vibrational            163.421             49.088             49.330
 Vibration     1          0.594              1.981              5.202
 Vibration     2          0.597              1.973              4.415
 Vibration     3          0.601              1.958              3.713
 Vibration     4          0.603              1.952              3.527
 Vibration     5          0.605              1.945              3.343
 Vibration     6          0.618              1.904              2.685
 Vibration     7          0.622              1.889              2.526
 Vibration     8          0.627              1.873              2.382
 Vibration     9          0.634              1.851              2.211
 Vibration    10          0.635              1.848              2.188
 Vibration    11          0.642              1.826              2.044
 Vibration    12          0.646              1.814              1.978
 Vibration    13          0.681              1.708              1.524
 Vibration    14          0.689              1.683              1.446
 Vibration    15          0.723              1.587              1.194
 Vibration    16          0.737              1.548              1.107
 Vibration    17          0.763              1.478              0.977
 Vibration    18          0.780              1.434              0.904
 Vibration    19          0.803              1.374              0.814
 Vibration    20          0.853              1.254              0.663
 Vibration    21          0.892              1.168              0.572
 Vibration    22          0.935              1.077              0.488

 Optimization completed.
    -- Stationary point found.
 Normal termination of Gaussian 16 at Wed Dec  9 22:38:32 2020.

 ----------------------------------------------------------------------
 # B3LYP/6-311++G(d,p) empiricaldispersion=gd3bj scf=xqc pop=npa geom=c
 heck
 ----------------------------------------------------------------------

 --------------------------------------
 CID_87181496_JID_3149_Energie_neutraal
 --------------------------------------
 Structure from the checkpoint file:  "JID_3149.chk"
 Charge =  0 Multiplicity = 1

 SCF Done:  E(RB3LYP) =  -612.732480274     A.U. after   16 cycles
 Normal termination of Gaussian 16 at Wed Dec  9 22:42:15 2020.

 ----------------------------------------------------------------------
 # B3LYP/6-311++G(d,p) empiricaldispersion=gd3bj scf=xqc pop=npa geom=c
 heck
 ----------------------------------------------------------------------

 ------------------------------------
 CID_87181496_JID_3149_Energie_kation
 ------------------------------------
 Structure from the checkpoint file:  "JID_3149.chk"
 Charge =  1 Multiplicity = 2

 SCF Done:  E(UB3LYP) =  -612.459832878     A.U. after   21 cycles
 Normal termination of Gaussian 16 at Wed Dec  9 22:50:33 2020.
 Gaussian 16:  ES64L-G16RevA.03 25-Dec-2016

 ----------------------------------------------------------------------
 # B3LYP/6-311++G(d,p) empiricaldispersion=gd3bj scf=xqc pop=npa geom=c
 heck
 ----------------------------------------------------------------------

 -----------------------------------
 CID_87181496_JID_3149_Energie_anion
 -----------------------------------
 Structure from the checkpoint file:  "JID_3149.chk"
 Charge = -1 Multiplicity = 2

                         Standard orientation:
 ---------------------------------------------------------------------
 Center     Atomic      Atomic             Coordinates (Angstroms)
 Number     Number       Type             X           Y           Z
 ---------------------------------------------------------------------
      1          6           0        3.463444   -0.545082    0.815049
      2          6           0        2.757805   -0.317972   -0.533608
      3          6           0        1.305591    0.086128   -0.369890
      4          6           0        1.010770    1.419230   -0.366424
      5          6           0       -0.176227    2.150206    0.058121
      6          8           0       -0.435935    3.293550   -0.281160
      7          8           0       -0.952750    1.525085    1.002391
      8          7           0        0.363116   -0.909051   -0.209459
      9          6           0        0.722461   -2.316318   -0.360638
     10          7           0       -0.903668   -0.620343   -0.810796
     11          6           0       -1.928538   -0.903861   -0.093732
     12          6           0       -1.911279   -1.434019    1.312730
     13          6           0       -3.267201   -0.651781   -0.728064
     14          1           0        3.401248    0.360432    1.426559
     15          1           0        4.520072   -0.789428    0.661855
     16          1           0        3.007842   -1.360758    1.387050
     17          1           0        3.267956    0.495220   -1.057862
     18          1           0        2.855636   -1.205385   -1.167965
     19          1           0        1.796042    2.090654   -0.694792
     20          1           0       -1.641745    2.184310    1.204792
     21          1           0        1.635894   -2.534765    0.192263
     22          1           0       -0.075408   -2.930936    0.059877
     23          1           0        0.856249   -2.596887   -1.414828
     24          1           0       -2.715671   -0.973624    1.895332
     25          1           0       -2.086752   -2.518254    1.324141
     26          1           0       -0.952179   -1.222487    1.788157
     27          1           0       -3.824854    0.089153   -0.141427
     28          1           0       -3.140935   -0.281687   -1.747199
     29          1           0       -3.871001   -1.568063   -0.745285
 ---------------------------------------------------------------------

 SCF Done:  E(UB3LYP) =  -612.723763828     A.U. after   33 cycles
 SCF Done:  E(UB3LYP) =  -612.723763828     a.u. after    1 cycles

 The electronic state is 2-A.
 Alpha  occ. eigenvalues --  -19.05028 -18.98717 -14.25965 -14.22742 -10.18242
 Alpha  occ. eigenvalues --  -10.11991 -10.11806 -10.09777 -10.07874 -10.07529
 Alpha  occ. eigenvalues --  -10.06902 -10.06419 -10.05110  -0.98733  -0.90321
 Alpha  occ. eigenvalues --   -0.89304  -0.77538  -0.69650  -0.65476  -0.64280
 Alpha  occ. eigenvalues --   -0.60784  -0.58996  -0.55063  -0.49587  -0.47993
 Alpha  occ. eigenvalues --   -0.42986  -0.40521  -0.38999  -0.37895  -0.36146
 Alpha  occ. eigenvalues --   -0.35038  -0.34841  -0.33864  -0.32886  -0.32388
 Alpha  occ. eigenvalues --   -0.31294  -0.30190  -0.29957  -0.29786  -0.28600
 Alpha  occ. eigenvalues --   -0.27898  -0.27157  -0.26036  -0.24994  -0.22813
 Alpha  occ. eigenvalues --   -0.21094  -0.19233  -0.17297  -0.16010  -0.10205
 Alpha  occ. eigenvalues --    0.04200
 Alpha virt. eigenvalues --    0.05980   0.07161   0.07375   0.08309   0.08895
 Alpha virt. eigenvalues --    0.09332   0.09553   0.10021   0.10882   0.11403
 Alpha virt. eigenvalues --    0.11745   0.12350   0.12900   0.13209   0.13824

  Beta  occ. eigenvalues --  -19.05010 -18.98675 -14.25953 -14.22729 -10.18203
  Beta  occ. eigenvalues --  -10.11925 -10.11749 -10.09732 -10.07865 -10.07517
  Beta  occ. eigenvalues --  -10.06871 -10.06370 -10.05091  -0.98680  -0.90266
  Beta  occ. eigenvalues --   -0.89239  -0.77454  -0.69568  -0.65405  -0.64214
  Beta  occ. eigenvalues --   -0.60729  -0.58896  -0.54965  -0.49527  -0.47911
  Beta  occ. eigenvalues --   -0.42908  -0.40457  -0.38916  -0.37832  -0.36087
  Beta  occ. eigenvalues --   -0.34932  -0.34783  -0.33805  -0.32725  -0.32324
  Beta  occ. eigenvalues --   -0.31239  -0.30139  -0.29911  -0.29719  -0.28555
  Beta  occ. eigenvalues --   -0.27831  -0.27119  -0.25982  -0.24955  -0.22740
  Beta  occ. eigenvalues --   -0.20923  -0.19073  -0.17190  -0.15926  -0.10038
  Beta virt. eigenvalues --    0.06504   0.06766   0.07651   0.08219   0.08882
  Beta virt. eigenvalues --    0.09288   0.09710   0.09875   0.10413   0.11384
  Beta virt. eigenvalues --    0.11851   0.12032   0.12668   0.13105   0.13616

 Mulliken charges and spin densities:
               1          2
     1  C    1.114346  -1.663952
     2  C   -1.535677   1.106462
     3  C    0.297508  -0.085843
     4  C    0.439488  -0.314828
     5  C   -0.269129  -0.138630
     6  O   -0.324686   0.017116
     7  O   -0.202855   0.000644
     8  N    0.124573   0.109025
     9  C    0.817594  -1.187601
    10  N   -0.113459   0.077634
    11  C   -0.737094   0.776229
    12  C    0.885109  -1.284924
    13  C    0.051593  -0.646950
    14  H    0.057528   0.087822
    15  H   -0.559170   0.704805
    16  H   -0.060379   0.185224
    17  H   -0.106635   0.275925
    18  H   -0.050998   0.209296
    19  H    0.162104   0.034769
    20  H    0.237903   0.031065
    21  H   -0.441019   0.606833
    22  H   -0.146159   0.306263
    23  H   -0.203527   0.378865
    24  H   -0.072195   0.212870
    25  H   -0.431717   0.620964
    26  H    0.070612   0.128405
    27  H    0.139943  -0.004781
    28  H    0.071085   0.082169
    29  H   -0.214687   0.375123
 Sum of Mulliken charges =  -1.00000   1.00000

 Dipole moment (field-independent basis, Debye):
    X=             -2.7279    Y=              3.7365    Z=              0.0450  Tot=              4.6265
 Quadrupole moment (field-independent basis, Debye-Ang):
   XX=           -134.7572   YY=           -143.0612   ZZ=           -106.5896
   XY=             -1.0461   XZ=             -3.2155   YZ=              8.4590

 Summary of Natural Population Analysis:

                                       Natural Population
                Natural  -----------------------------------------------
    Atom  No    Charge         Core      Valence    Rydberg      Total
 -----------------------------------------------------------------------
      C    1   -0.27960      0.99965     2.27487    0.00507     3.27960
      C    2   -0.21105      0.99960     2.20253    0.00892     3.21105
      C    3    0.15206      0.99948     1.83478    0.01368     2.84794
      C    4   -0.20764      0.99944     2.19854    0.00966     3.20764
      C    5    0.38936      0.99966     1.58708    0.02390     2.61064
      O    6   -0.32586      0.99987     3.32033    0.00566     4.32586
      O    7   -0.35500      0.99988     3.34730    0.00782     4.35500
      N    8   -0.16891      0.99961     2.65572    0.01358     3.66891
      C    9   -0.18039      0.99962     2.17153    0.00924     3.18039
      N   10   -0.15806      0.99964     2.64621    0.01222     3.65806
      C   11    0.16980      0.99962     1.81536    0.01523     2.83020
      C   12   -0.32431      0.99960     2.31797    0.00674     3.32431
      C   13   -0.30414      0.99961     2.29875    0.00579     3.30414
      H   14    0.09908      0.00000     0.39993    0.00099     0.40092
      H   15    0.10069      0.00000     0.39743    0.00188     0.39931
      H   16    0.09814      0.00000     0.40068    0.00118     0.40186
      H   17    0.10543      0.00000     0.39350    0.00108     0.39457
      H   18    0.10345      0.00000     0.39498    0.00157     0.39655
      H   19    0.10674      0.00000     0.39227    0.00099     0.39326
      H   20    0.23451      0.00000     0.26234    0.00315     0.26549
      H   21    0.10440      0.00000     0.39369    0.00192     0.39560
      H   22    0.10389      0.00000     0.39411    0.00200     0.39611
      H   23    0.09171      0.00000     0.40706    0.00122     0.40829
      H   24    0.10423      0.00000     0.39480    0.00097     0.39577
      H   25    0.11512      0.00000     0.38161    0.00327     0.38488
      H   26    0.11675      0.00000     0.38178    0.00147     0.38325
      H   27    0.10192      0.00000     0.39721    0.00087     0.39808
      H   28    0.11046      0.00000     0.38861    0.00094     0.38954
      H   29    0.10725      0.00000     0.39139    0.00136     0.39275
 =======================================================================
   * Total *   -0.00000     12.99529    36.84236    0.16236    50.00000

 Normal termination of Gaussian 16 at Wed Dec  9 23:01:50 2020.
