 Gaussian 16, Revision A.03,

 -----------------------------------------------------------
 # opt freq B3LYP/6-31G(d) empiricaldispersion=gd3bj scf=xqc
 -----------------------------------------------------------

 ------------------------------
 CID_81776888_JID_7257_neutraal
 ------------------------------
 Symbolic Z-matrix:
 Charge =  0 Multiplicity = 1

 SCF Done:  E(RB3LYP) =  -731.458518499     A.U. after   15 cycles
 SCF Done:  E(RB3LYP) =  -731.478861018     A.U. after   12 cycles
 SCF Done:  E(RB3LYP) =  -731.480388542     A.U. after   13 cycles
 SCF Done:  E(RB3LYP) =  -731.473732544     A.U. after   15 cycles
 SCF Done:  E(RB3LYP) =  -731.479295538     A.U. after   13 cycles
 SCF Done:  E(RB3LYP) =  -731.481299323     A.U. after   11 cycles
 SCF Done:  E(RB3LYP) =  -731.482275796     A.U. after   12 cycles
 SCF Done:  E(RB3LYP) =  -731.481550687     A.U. after   14 cycles
 SCF Done:  E(RB3LYP) =  -731.482811772     A.U. after   12 cycles
 SCF Done:  E(RB3LYP) =  -731.482708816     A.U. after   12 cycles
 SCF Done:  E(RB3LYP) =  -731.483994041     A.U. after   11 cycles
 SCF Done:  E(RB3LYP) =  -731.484000560     A.U. after   10 cycles
 SCF Done:  E(RB3LYP) =  -731.484003591     A.U. after   10 cycles
 SCF Done:  E(RB3LYP) =  -731.484005607     A.U. after    9 cycles
 SCF Done:  E(RB3LYP) =  -731.484005698     A.U. after    7 cycles
 Optimization completed.
    -- Stationary point found.
 Normal termination of Gaussian 16 at Thu Dec 17 20:19:33 2020.

 --------------------------------------------------------------------
 #N Geom=AllCheck Guess=TCheck SCRF=Check GenChk RB3LYP/6-31G(d) Freq
 --------------------------------------------------------------------

 Structure from the checkpoint file:  "JID_7257.chk"
 ------------------------------
 CID_81776888_JID_7257_neutraal
 ------------------------------
 Charge =  0 Multiplicity = 1

 SCF Done:  E(RB3LYP) =  -731.484005698     A.U. after    1 cycles

  Exact polarizability: 187.548  12.962 145.104  -3.734  -2.180 123.266
 Approx polarizability: 235.929  29.316 220.560 -13.353 -10.624 199.010

                      1                      2                      3
                      A                      A                      A
 Frequencies --     29.0727                38.7819                57.7477
 Red. masses --      3.8077                 4.0689                 6.4614
 Frc consts  --      0.0019                 0.0036                 0.0127
 IR Inten    --      0.2500                 0.4872                 1.4041

                      4                      5                      6
                      A                      A                      A
 Frequencies --     77.6241                90.7131               106.4486
 Red. masses --      1.8979                 2.9597                 3.3771
 Frc consts  --      0.0067                 0.0143                 0.0225
 IR Inten    --      0.0105                 0.1312                 0.7452

                      7                      8                      9
                      A                      A                      A
 Frequencies --    136.1990               146.8499               187.2932
 Red. masses --      3.5966                 3.9378                 3.0518
 Frc consts  --      0.0393                 0.0500                 0.0631
 IR Inten    --      0.0332                 0.2996                 0.0605

                     10                     11                     12
                      A                      A                      A
 Frequencies --    225.1128               259.4037               267.3264
 Red. masses --      2.7442                 3.5411                 2.7517
 Frc consts  --      0.0819                 0.1404                 0.1159
 IR Inten    --      1.0135                 1.3635                 1.1621

                     13                     14                     15
                      A                      A                      A
 Frequencies --    287.5243               308.1475               342.6697
 Red. masses --      2.3040                 1.3500                 2.3136
 Frc consts  --      0.1122                 0.0755                 0.1601
 IR Inten    --     10.4587                29.2650                23.6526

                     16                     17                     18
                      A                      A                      A
 Frequencies --    360.3969               364.8432               385.5222
 Red. masses --      2.6442                 2.7896                 2.9430
 Frc consts  --      0.2024                 0.2188                 0.2577
 IR Inten    --      2.1594                 6.1555                14.8418

                     19                     20                     21
                      A                      A                      A
 Frequencies --    407.5628               430.0666               472.1182
 Red. masses --      2.3390                 2.0536                 2.9581
 Frc consts  --      0.2289                 0.2238                 0.3885
 IR Inten    --      4.9882                 5.5940                 0.0035

                     22                     23                     24
                      A                      A                      A
 Frequencies --    483.5782               512.3125               550.7932
 Red. masses --      3.7465                 6.4306                 4.1869
 Frc consts  --      0.5162                 0.9944                 0.7484
 IR Inten    --      8.9475                 3.6893                 7.8861

                     25                     26                     27
                      A                      A                      A
 Frequencies --    591.6595               600.0204               622.0999
 Red. masses --      1.2154                 2.7979                 1.2150
 Frc consts  --      0.2507                 0.5935                 0.2770
 IR Inten    --     42.0044                 2.8623                65.7264

                     28                     29                     30
                      A                      A                      A
 Frequencies --    639.7893               656.6984               712.2727
 Red. masses --      2.7181                 2.3435                 1.8877
 Frc consts  --      0.6555                 0.5954                 0.5643
 IR Inten    --      0.6298                 2.2318                 0.5037

                     31                     32                     33
                      A                      A                      A
 Frequencies --    737.0463               768.2713               807.2041
 Red. masses --      3.2832                 4.7735                 1.5799
 Frc consts  --      1.0508                 1.6600                 0.6065
 IR Inten    --      4.3138                 6.7175                 1.4507

                     34                     35                     36
                      A                      A                      A
 Frequencies --    826.2400               828.6442               887.7495
 Red. masses --      1.5876                 1.6239                 3.1416
 Frc consts  --      0.6386                 0.6570                 1.4588
 IR Inten    --      0.8633                 0.3976                 0.7280

                     37                     38                     39
                      A                      A                      A
 Frequencies --    901.6846               926.9477               945.7226
 Red. masses --      2.6656                 2.2092                 2.1266
 Frc consts  --      1.2769                 1.1184                 1.1206
 IR Inten    --      0.4972                48.1457                70.4134

                     40                     41                     42
                      A                      A                      A
 Frequencies --    955.2734               961.4245               965.2725
 Red. masses --      2.2807                 2.5005                 2.2872
 Frc consts  --      1.2262                 1.3618                 1.2556
 IR Inten    --     36.6592                 7.3305                13.5630

                     43                     44                     45
                      A                      A                      A
 Frequencies --    994.4668              1012.2000              1015.1894
 Red. masses --      1.8144                 2.4098                 2.0566
 Frc consts  --      1.0572                 1.4546                 1.2488
 IR Inten    --      2.7339                 2.0942               106.3735

                     46                     47                     48
                      A                      A                      A
 Frequencies --   1026.5725              1038.5786              1053.2281
 Red. masses --      1.5583                 2.5243                 2.4482
 Frc consts  --      0.9676                 1.6042                 1.6001
 IR Inten    --      3.1996                35.0648                 6.9899

                     49                     50                     51
                      A                      A                      A
 Frequencies --   1056.3371              1077.2927              1085.2248
 Red. masses --      2.3121                 1.7080                 1.5358
 Frc consts  --      1.5201                 1.1679                 1.0657
 IR Inten    --      1.5974                 3.0646                 1.6321

                     52                     53                     54
                      A                      A                      A
 Frequencies --   1134.9533              1142.9365              1175.1833
 Red. masses --      2.0703                 1.8975                 2.3263
 Frc consts  --      1.5712                 1.4604                 1.8929
 IR Inten    --      2.2473                24.6959                32.4940

                     55                     56                     57
                      A                      A                      A
 Frequencies --   1197.7522              1203.0469              1222.5635
 Red. masses --      1.3719                 1.7993                 1.3292
 Frc consts  --      1.1596                 1.5344                 1.1705
 IR Inten    --     11.1801                 5.1495                 7.8660

                     58                     59                     60
                      A                      A                      A
 Frequencies --   1229.3255              1241.3156              1250.8869
 Red. masses --      1.3071                 1.3384                 1.3360
 Frc consts  --      1.1638                 1.2150                 1.2317
 IR Inten    --     11.0731                15.0554                 0.4210

                     61                     62                     63
                      A                      A                      A
 Frequencies --   1267.8156              1278.0737              1286.3100
 Red. masses --      1.3279                 1.3986                 1.8084
 Frc consts  --      1.2575                 1.3460                 1.7629
 IR Inten    --     43.0065                19.9780                34.2224

                     64                     65                     66
                      A                      A                      A
 Frequencies --   1308.7517              1323.0065              1333.0111
 Red. masses --      1.6036                 1.3431                 1.3872
 Frc consts  --      1.6183                 1.3851                 1.4523
 IR Inten    --     24.3318                 2.7504                 1.1030

                     67                     68                     69
                      A                      A                      A
 Frequencies --   1348.6630              1355.7617              1358.5991
 Red. masses --      1.4784                 1.3921                 1.3018
 Frc consts  --      1.5844                 1.5076                 1.4157
 IR Inten    --     11.1765                 0.9646                 0.3084

                     70                     71                     72
                      A                      A                      A
 Frequencies --   1365.5079              1381.7878              1389.7433
 Red. masses --      1.4027                 1.5592                 1.5752
 Frc consts  --      1.5410                 1.7541                 1.7925
 IR Inten    --     10.8576                 0.6957                 1.9227

                     73                     74                     75
                      A                      A                      A
 Frequencies --   1394.6898              1410.2459              1425.2492
 Red. masses --      1.2753                 1.6049                 1.4033
 Frc consts  --      1.4616                 1.8806                 1.6795
 IR Inten    --      1.8301                 4.7366                27.2732

                     76                     77                     78
                      A                      A                      A
 Frequencies --   1436.0650              1495.8662              1501.2110
 Red. masses --      1.3244                 2.0535                 1.1601
 Frc consts  --      1.6093                 2.7073                 1.5403
 IR Inten    --     24.2956                79.8617                36.7752

                     79                     80                     81
                      A                      A                      A
 Frequencies --   1504.4463              1512.9911              1516.2231
 Red. masses --      1.1199                 1.0942                 1.0927
 Frc consts  --      1.4934                 1.4758                 1.4801
 IR Inten    --      7.6862                 2.2795                 6.8424

                     82                     83                     84
                      A                      A                      A
 Frequencies --   1521.3401              1525.6380              1527.1883
 Red. masses --      1.0849                 1.1081                 1.0839
 Frc consts  --      1.4795                 1.5196                 1.4895
 IR Inten    --      7.3004                 7.4713                 1.8969

                     85                     86                     87
                      A                      A                      A
 Frequencies --   1534.5127              1552.3092              1709.2981
 Red. masses --      1.0954                 1.1019                 1.1130
 Frc consts  --      1.5197                 1.5644                 1.9160
 IR Inten    --      3.4784                 2.1770                49.0571

                     88                     89                     90
                      A                      A                      A
 Frequencies --   1729.3691              2238.7250              3017.6401
 Red. masses --      7.9148                 5.9968                 1.0735
 Frc consts  --     13.9465                17.7081                 5.7597
 IR Inten    --    273.9070                 4.3222                28.4507

                     91                     92                     93
                      A                      A                      A
 Frequencies --   3024.7359              3034.7733              3040.5056
 Red. masses --      1.0731                 1.0659                 1.0667
 Frc consts  --      5.7847                 5.7840                 5.8099
 IR Inten    --     41.9479                19.1132                10.3400

                     94                     95                     96
                      A                      A                      A
 Frequencies --   3045.2869              3049.7306              3050.3301
 Red. masses --      1.0621                 1.0637                 1.0604
 Frc consts  --      5.8034                 5.8288                 5.8131
 IR Inten    --     54.9214                25.3555                 8.2566

                     97                     98                     99
                      A                      A                      A
 Frequencies --   3060.7900              3071.4416              3086.7337
 Red. masses --      1.0638                 1.0679                 1.0938
 Frc consts  --      5.8721                 5.9359                 6.1405
 IR Inten    --     15.8316                36.6653                38.5091

                    100                    101                    102
                      A                      A                      A
 Frequencies --   3090.1629              3094.0727              3094.4162
 Red. masses --      1.1021                 1.0993                 1.0988
 Frc consts  --      6.2006                 6.2006                 6.1988
 IR Inten    --     41.3869                 3.8381                10.3276

                    103                    104                    105
                      A                      A                      A
 Frequencies --   3097.6460              3103.5500              3118.0333
 Red. masses --      1.0996                 1.0987                 1.1052
 Frc consts  --      6.2165                 6.2349                 6.3306
 IR Inten    --     35.7252                18.9167                84.1276

                    106                    107                    108
                      A                      A                      A
 Frequencies --   3120.5296              3170.4020              3178.2624
 Red. masses --      1.0877                 1.0907                 1.0885
 Frc consts  --      6.2406                 6.4591                 6.4780
 IR Inten    --     23.5869                 3.1801                16.7728

                    109                    110                    111
                      A                      A                      A
 Frequencies --   3445.1941              3495.8369              3528.6532
 Red. masses --      1.0503                 1.1595                 1.0903
 Frc consts  --      7.3451                 8.3487                 7.9986
 IR Inten    --      4.1538                51.4133                 2.9624

 - Thermochemistry -
 -------------------
 Temperature   298.150 Kelvin.  Pressure   1.00000 Atm.
 Atom     1 has atomic number  6 and mass  12.00000

 Molecular mass:   234.17321 amu.
 Principal axes and moments of inertia in atomic units:
                           1         2         3
     Eigenvalues --  1879.856416785.454897686.21882
           X            0.99999   0.00057   0.00386
           Y           -0.00060   0.99996   0.00856
           Z           -0.00386  -0.00857   0.99996
 This molecule is an asymmetric top.
 Rotational symmetry number  1.
 Warning -- assumption of classical behavior for rotation
           may cause significant error
 Rotational temperatures (Kelvin)      0.04607     0.01276     0.01127
 Rotational constants (GHZ):           0.96004     0.26597     0.23480
 Zero-point vibrational energy     912573.1 (Joules/Mol)
                                  218.11021 (Kcal/Mol)
 Warning -- explicit consideration of  26 degrees of freedom as
           vibrations may cause significant error
 Vibrational temperatures:     41.83    55.80    83.09   111.68   130.52
          (Kelvin)            153.16   195.96   211.28   269.47   323.89
                              373.22   384.62   413.68   443.36   493.03
                              518.53   524.93   554.68   586.39   618.77
                              679.27   695.76   737.10   792.47   851.27
                              863.30   895.06   920.51   944.84  1024.80
                             1060.45  1105.37  1161.39  1188.78  1192.23
                             1277.27  1297.32  1333.67  1360.68  1374.43
                             1383.28  1388.81  1430.82  1456.33  1460.63
                             1477.01  1494.28  1515.36  1519.83  1549.98
                             1561.40  1632.94  1644.43  1690.83  1723.30
                             1730.92  1759.00  1768.73  1785.98  1799.75
                             1824.10  1838.86  1850.71  1883.00  1903.51
                             1917.91  1940.43  1950.64  1954.72  1964.66
                             1988.08  1999.53  2006.65  2029.03  2050.62
                             2066.18  2152.22  2159.91  2164.56  2176.86
                             2181.51  2188.87  2195.05  2197.28  2207.82
                             2233.43  2459.30  2488.18  3221.03  4341.71
                             4351.92  4366.36  4374.61  4381.49  4387.88
                             4388.74  4403.79  4419.12  4441.12  4446.06
                             4451.68  4452.17  4456.82  4465.32  4486.15
                             4489.75  4561.50  4572.81  4956.87  5029.73
                             5076.94

 Zero-point correction=                           0.347581 (Hartree/Particle)
 Thermal correction to Energy=                    0.364507
 Thermal correction to Enthalpy=                  0.365451
 Thermal correction to Gibbs Free Energy=         0.302514
 Sum of electronic and zero-point Energies=           -731.136425
 Sum of electronic and thermal Energies=              -731.119499
 Sum of electronic and thermal Enthalpies=            -731.118555
 Sum of electronic and thermal Free Energies=         -731.181492

                     E (Thermal)             CV                S
                      KCal/Mol        Cal/Mol-Kelvin    Cal/Mol-Kelvin
 Total                  228.732             65.998            132.462
 Electronic               0.000              0.000              0.000
 Translational            0.889              2.981             42.254
 Rotational               0.889              2.981             32.950
 Vibrational            226.954             60.037             57.258
 Vibration     1          0.593              1.984              5.892
 Vibration     2          0.594              1.981              5.320
 Vibration     3          0.596              1.974              4.533
 Vibration     4          0.599              1.964              3.950
 Vibration     5          0.602              1.956              3.645
 Vibration     6          0.605              1.944              3.333
 Vibration     7          0.614              1.917              2.857
 Vibration     8          0.617              1.906              2.713
 Vibration     9          0.632              1.857              2.254
 Vibration    10          0.650              1.803              1.918
 Vibration    11          0.668              1.747              1.666
 Vibration    12          0.672              1.733              1.613
 Vibration    13          0.685              1.697              1.488
 Vibration    14          0.698              1.658              1.372
 Vibration    15          0.722              1.590              1.200
 Vibration    16          0.735              1.554              1.120
 Vibration    17          0.738              1.545              1.101
 Vibration    18          0.754              1.501              1.017
 Vibration    19          0.772              1.454              0.935
 Vibration    20          0.791              1.405              0.858
 Vibration    21          0.829              1.312              0.732
 Vibration    22          0.840              1.286              0.700
 Vibration    23          0.867              1.223              0.628
 Vibration    24          0.906              1.138              0.543
 Vibration    25          0.949              1.050              0.464
 Vibration    26          0.958              1.032              0.450

                           ! Non-Optimized Parameters !
 Normal termination of Gaussian 16 at Thu Dec 17 20:34:24 2020.

 ----------------------------------------------------------------------
 # B3LYP/6-311++G(d,p) empiricaldispersion=gd3bj scf=xqc pop=npa geom=c
 heck
 ----------------------------------------------------------------------

 --------------------------------------
 CID_81776888_JID_7257_Energie_neutraal
 --------------------------------------
 Structure from the checkpoint file:  "JID_7257.chk"
 Charge =  0 Multiplicity = 1

 SCF Done:  E(RB3LYP) =  -731.693951826     A.U. after   15 cycles
 Normal termination of Gaussian 16 at Thu Dec 17 20:41:11 2020.

 ----------------------------------------------------------------------
 # B3LYP/6-311++G(d,p) empiricaldispersion=gd3bj scf=xqc pop=npa geom=c
 heck
 ----------------------------------------------------------------------

 ------------------------------------
 CID_81776888_JID_7257_Energie_kation
 ------------------------------------
 Structure from the checkpoint file:  "JID_7257.chk"
 Charge =  1 Multiplicity = 2

 SCF Done:  E(UB3LYP) =  -731.385507136     A.U. after   27 cycles
 Normal termination of Gaussian 16 at Thu Dec 17 20:57:23 2020.
 Gaussian 16:  ES64L-G16RevA.03 25-Dec-2016

 ----------------------------------------------------------------------
 # B3LYP/6-311++G(d,p) empiricaldispersion=gd3bj scf=xqc pop=npa geom=c
 heck
 ----------------------------------------------------------------------

 -----------------------------------
 CID_81776888_JID_7257_Energie_anion
 -----------------------------------
 Structure from the checkpoint file:  "JID_7257.chk"
 Charge = -1 Multiplicity = 2

                         Standard orientation:
 ---------------------------------------------------------------------
 Center     Atomic      Atomic             Coordinates (Angstroms)
 Number     Number       Type             X           Y           Z
 ---------------------------------------------------------------------
      1          6           0       -1.833608    3.018684    0.311496
      2          6           0       -2.613509    2.096306    0.317955
      3          6           0       -3.575286    0.997562    0.310320
      4          6           0       -3.124379   -0.244649   -0.494319
      5          6           0       -1.959502   -0.943242    0.243571
      6          8           0       -2.250306   -1.641282    1.218526
      7          7           0       -0.676347   -0.813166   -0.200693
      8          6           0       -0.203456    0.074362   -1.261523
      9          6           0        0.902495    1.001438   -0.743690
     10          6           0        2.068507    0.251226   -0.086939
     11          6           0        3.102853    1.218687    0.524588
     12          6           0        4.393171    0.389019    0.692266
     13          6           0        4.303879   -0.735950   -0.379889
     14          6           0        2.948564   -0.527887   -1.094041
     15          6           0        1.484981   -0.681310    0.997094
     16          6           0        0.379436   -1.588652    0.455499
     17          7           0       -4.274540   -1.145030   -0.598838
     18          1           0       -1.153676    3.839586    0.311986
     19          1           0       -3.782373    0.673011    1.338422
     20          1           0       -4.526620    1.331109   -0.119381
     21          1           0       -2.855232    0.066538   -1.505106
     22          1           0        0.172731   -0.536460   -2.095637
     23          1           0       -1.027200    0.679924   -1.633436
     24          1           0        0.450191    1.681872   -0.013197
     25          1           0        1.271634    1.612735   -1.577798
     26          1           0        3.274517    2.042797   -0.181082
     27          1           0        2.752915    1.664845    1.462488
     28          1           0        4.443754   -0.043085    1.697278
     29          1           0        5.288935    1.006133    0.572439
     30          1           0        4.343953   -1.722567    0.093875
     31          1           0        5.136780   -0.698498   -1.088887
     32          1           0        2.504411   -1.470620   -1.429113
     33          1           0        3.086168    0.092220   -1.989631
     34          1           0        1.066300   -0.068192    1.805505
     35          1           0        2.269937   -1.305351    1.440761
     36          1           0       -0.091145   -2.161451    1.253231
     37          1           0        0.791500   -2.297076   -0.277372
     38          1           0       -4.056643   -1.879268   -1.272311
     39          1           0       -4.347053   -1.624152    0.301148
 ---------------------------------------------------------------------

 SCF Done:  E(UB3LYP) =  -731.683030130     A.U. after   33 cycles
 SCF Done:  E(UB3LYP) =  -731.683030130     a.u. after    1 cycles

 The electronic state is 2-A.
 Alpha  occ. eigenvalues --  -18.99221 -14.25082 -14.20872 -10.17518 -10.12721
 Alpha  occ. eigenvalues --  -10.11216 -10.11073 -10.10285 -10.09412 -10.08284
 Alpha  occ. eigenvalues --  -10.08082 -10.07291 -10.06970 -10.06812 -10.06680
 Alpha  occ. eigenvalues --  -10.06581 -10.06353  -0.94591  -0.84737  -0.80756
 Alpha  occ. eigenvalues --   -0.75395  -0.70911  -0.67928  -0.67048  -0.64076
 Alpha  occ. eigenvalues --   -0.61463  -0.60125  -0.56719  -0.53785  -0.52626
 Alpha  occ. eigenvalues --   -0.47236  -0.46915  -0.45229  -0.43991  -0.42514
 Alpha  occ. eigenvalues --   -0.40985  -0.38768  -0.38202  -0.37366  -0.36739
 Alpha  occ. eigenvalues --   -0.35991  -0.35160  -0.34510  -0.33163  -0.32782
 Alpha  occ. eigenvalues --   -0.32068  -0.31055  -0.30085  -0.28855  -0.28469
 Alpha  occ. eigenvalues --   -0.27064  -0.26605  -0.26101  -0.24358  -0.24111
 Alpha  occ. eigenvalues --   -0.22404  -0.22071  -0.21539  -0.21372  -0.19420
 Alpha  occ. eigenvalues --   -0.19185  -0.17866  -0.15978  -0.14829   0.04090
 Alpha virt. eigenvalues --    0.06155   0.06525   0.07282   0.07896   0.08239
 Alpha virt. eigenvalues --    0.08614   0.09047   0.09379   0.10020   0.10193
 Alpha virt. eigenvalues --    0.10609   0.10748   0.10989   0.11734   0.12062

  Beta  occ. eigenvalues --  -18.99199 -14.25090 -14.20851 -10.17502 -10.12709
  Beta  occ. eigenvalues --  -10.11210 -10.11053 -10.10269 -10.09412 -10.08287
  Beta  occ. eigenvalues --  -10.08066 -10.07276 -10.06956 -10.06797 -10.06660
  Beta  occ. eigenvalues --  -10.06565 -10.06327  -0.94557  -0.84725  -0.80718
  Beta  occ. eigenvalues --   -0.75374  -0.70892  -0.67898  -0.67019  -0.64051
  Beta  occ. eigenvalues --   -0.61419  -0.60086  -0.56681  -0.53743  -0.52581
  Beta  occ. eigenvalues --   -0.47183  -0.46877  -0.45193  -0.43963  -0.42461
  Beta  occ. eigenvalues --   -0.40950  -0.38730  -0.38172  -0.37343  -0.36704
  Beta  occ. eigenvalues --   -0.35956  -0.35139  -0.34477  -0.33144  -0.32752
  Beta  occ. eigenvalues --   -0.32036  -0.31025  -0.30058  -0.28825  -0.28430
  Beta  occ. eigenvalues --   -0.27010  -0.26561  -0.26072  -0.24324  -0.24071
  Beta  occ. eigenvalues --   -0.22372  -0.22045  -0.21512  -0.21345  -0.19403
  Beta  occ. eigenvalues --   -0.19171  -0.17843  -0.15955  -0.14796
  Beta virt. eigenvalues --    0.06248   0.06936   0.07100   0.07878   0.08317
  Beta virt. eigenvalues --    0.08458   0.08924   0.09389   0.09741   0.10293
  Beta virt. eigenvalues --    0.10428   0.10797   0.10926   0.11100   0.11888

 Mulliken charges and spin densities:
               1          2
     1  C   -0.455131  -0.004321
     2  C    1.432377  -0.797877
     3  C   -1.375383   0.526830
     4  C    0.551307  -0.686168
     5  C   -0.530861   0.193842
     6  O   -0.330518   0.009371
     7  N    0.033657   0.164428
     8  C    0.351730  -0.784042
     9  C   -0.391777   0.057536
    10  C   -0.191941   1.225560
    11  C   -0.036093  -0.313347
    12  C   -0.588766   0.193846
    13  C    0.732657  -1.295591
    14  C    0.408215  -0.858803
    15  C    0.262793  -0.613243
    16  C    0.277142  -0.829888
    17  N   -0.264590   0.042452
    18  H   -0.376623   0.570026
    19  H    0.159345   0.035936
    20  H    0.163431   0.043043
    21  H   -0.230154   0.477515
    22  H   -0.444389   0.646023
    23  H    0.155456  -0.052252
    24  H    0.522835  -0.448968
    25  H   -0.451780   0.655117
    26  H   -0.191051   0.350028
    27  H   -0.026006   0.165659
    28  H   -0.040350   0.185709
    29  H   -0.137824   0.297579
    30  H   -0.043285   0.191798
    31  H   -0.220591   0.373205
    32  H   -0.014346   0.145666
    33  H   -0.138176   0.318228
    34  H    0.123101   0.049990
    35  H    0.121291   0.043205
    36  H    0.165589   0.054588
    37  H   -0.157432   0.339867
    38  H   -0.008000   0.254074
    39  H    0.184140   0.073380
 Sum of Mulliken charges =  -1.00000   1.00000

 Dipole moment (field-independent basis, Debye):
    X=             -2.5036    Y=              0.0142    Z=              3.4855  Tot=              4.2915
 Quadrupole moment (field-independent basis, Debye-Ang):
   XX=           -188.7739   YY=           -150.5394   ZZ=           -147.4515
   XY=             -6.7485   XZ=              3.6592   YZ=              0.9902

 Summary of Natural Population Analysis:

                                       Natural Population
                Natural  -----------------------------------------------
    Atom  No    Charge         Core      Valence    Rydberg      Total
 -----------------------------------------------------------------------
      C    1   -0.12371      0.99927     2.12086    0.00358     3.12371
      C    2    0.00045      0.99937     1.99318    0.00700     2.99955
      C    3   -0.23383      0.99954     2.22525    0.00904     3.23383
      C    4   -0.04038      0.99957     2.02826    0.01255     3.04038
      C    5    0.34178      0.99961     1.63441    0.02420     2.65822
      O    6   -0.34219      0.99988     3.33722    0.00510     4.34219
      N    7   -0.24911      0.99963     2.73732    0.01217     3.74911
      C    8   -0.08034      0.99959     2.06966    0.01108     3.08034
      C    9   -0.19168      0.99957     2.18189    0.01021     3.19168
      C   10   -0.03968      0.99955     2.02652    0.01362     3.03968
      C   11   -0.18615      0.99959     2.17699    0.00957     3.18615
      C   12   -0.19376      0.99964     2.18646    0.00766     3.19376
      C   13   -0.19303      0.99965     2.18576    0.00763     3.19303
      C   14   -0.19271      0.99959     2.18345    0.00966     3.19271
      C   15   -0.19293      0.99957     2.18524    0.00811     3.19293
      C   16   -0.08797      0.99960     2.07793    0.01045     3.08797
      N   17   -0.41847      0.99978     2.90887    0.00983     3.91847
      H   18    0.11430      0.00000     0.38434    0.00136     0.38570
      H   19    0.11718      0.00000     0.38157    0.00125     0.38282
      H   20    0.11929      0.00000     0.37930    0.00141     0.38071
      H   21    0.10029      0.00000     0.39763    0.00208     0.39971
      H   22    0.09589      0.00000     0.40204    0.00207     0.40411
      H   23    0.10440      0.00000     0.39383    0.00177     0.39560
      H   24    0.10242      0.00000     0.39538    0.00221     0.39758
      H   25    0.10427      0.00000     0.39386    0.00187     0.39573
      H   26    0.09932      0.00000     0.39923    0.00145     0.40068
      H   27    0.09957      0.00000     0.39940    0.00103     0.40043
      H   28    0.09445      0.00000     0.40450    0.00105     0.40555
      H   29    0.09978      0.00000     0.39923    0.00099     0.40022
      H   30    0.09507      0.00000     0.40377    0.00116     0.40493
      H   31    0.10026      0.00000     0.39863    0.00111     0.39974
      H   32    0.10219      0.00000     0.39628    0.00153     0.39781
      H   33    0.10055      0.00000     0.39762    0.00183     0.39945
      H   34    0.10001      0.00000     0.39860    0.00139     0.39999
      H   35    0.10324      0.00000     0.39578    0.00098     0.39676
      H   36    0.11720      0.00000     0.38168    0.00112     0.38280
      H   37    0.09404      0.00000     0.40458    0.00139     0.40596
      H   38    0.17801      0.00000     0.32029    0.00169     0.32199
      H   39    0.18200      0.00000     0.31589    0.00211     0.31800
 =======================================================================
   * Total *   -0.00000     16.99300    46.80268    0.20432    64.00000

 Normal termination of Gaussian 16 at Thu Dec 17 21:16:52 2020.
