 Gaussian 16, Revision A.03,

 -----------------------------------------------------------
 # opt freq B3LYP/6-31G(d) empiricaldispersion=gd3bj scf=xqc
 -----------------------------------------------------------

 -------------------------------
 CID_130146078_JID_2652_neutraal
 -------------------------------
 Symbolic Z-matrix:
 Charge =  0 Multiplicity = 1

 SCF Done:  E(RB3LYP) =  -643.910098851     A.U. after   15 cycles
 SCF Done:  E(RB3LYP) =  -643.918547818     A.U. after   13 cycles
 SCF Done:  E(RB3LYP) =  -643.920106138     A.U. after   13 cycles
 SCF Done:  E(RB3LYP) =  -643.920697307     A.U. after   13 cycles
 SCF Done:  E(RB3LYP) =  -643.921596906     A.U. after   13 cycles
 SCF Done:  E(RB3LYP) =  -643.922363591     A.U. after   13 cycles
 SCF Done:  E(RB3LYP) =  -643.923360285     A.U. after   14 cycles
 SCF Done:  E(RB3LYP) =  -643.924103721     A.U. after   13 cycles
 SCF Done:  E(RB3LYP) =  -643.924409947     A.U. after   12 cycles
 SCF Done:  E(RB3LYP) =  -643.924587650     A.U. after   12 cycles
 SCF Done:  E(RB3LYP) =  -643.925000569     A.U. after   10 cycles
 SCF Done:  E(RB3LYP) =  -643.925002114     A.U. after    9 cycles
 SCF Done:  E(RB3LYP) =  -643.925003969     A.U. after   10 cycles
 SCF Done:  E(RB3LYP) =  -643.925004212     A.U. after    8 cycles
 SCF Done:  E(RB3LYP) =  -643.925004233     A.U. after    7 cycles
 SCF Done:  E(RB3LYP) =  -643.925004234     A.U. after    6 cycles
 Optimization completed.
    -- Stationary point found.
 Normal termination of Gaussian 16 at Wed Dec  9 18:12:11 2020.

 --------------------------------------------------------------------
 #N Geom=AllCheck Guess=TCheck SCRF=Check GenChk RB3LYP/6-31G(d) Freq
 --------------------------------------------------------------------

 Structure from the checkpoint file:  "JID_2652.chk"
 -------------------------------
 CID_130146078_JID_2652_neutraal
 -------------------------------
 Charge =  0 Multiplicity = 1

 SCF Done:  E(RB3LYP) =  -643.925004234     A.U. after    1 cycles

  Exact polarizability:  97.244   8.038  77.344  -8.283  -1.993  67.243
 Approx polarizability: 129.961  19.896 124.143 -20.486  -3.331 105.930

                      1                      2                      3
                      A                      A                      A
 Frequencies --     26.2772                60.5191                71.4625
 Red. masses --      3.4411                 1.8814                 3.7617
 Frc consts  --      0.0014                 0.0041                 0.0113
 IR Inten    --      1.9102                 0.7448                 1.8739

                      4                      5                      6
                      A                      A                      A
 Frequencies --    102.9449               158.4575               164.5412
 Red. masses --      6.2222                 2.6043                 5.5718
 Frc consts  --      0.0389                 0.0385                 0.0889
 IR Inten    --      0.4032                 1.5270                 1.8310

                      7                      8                      9
                      A                      A                      A
 Frequencies --    186.3031               210.0053               267.1390
 Red. masses --      4.2661                 3.7630                 3.6700
 Frc consts  --      0.0872                 0.0978                 0.1543
 IR Inten    --      0.9794                 2.3980                16.8492

                     10                     11                     12
                      A                      A                      A
 Frequencies --    389.6788               406.2805               422.5003
 Red. masses --      3.5589                 1.4919                 7.0263
 Frc consts  --      0.3184                 0.1451                 0.7390
 IR Inten    --     75.9514                82.3469                23.4804

                     13                     14                     15
                      A                      A                      A
 Frequencies --    485.2732               555.0693               573.6012
 Red. masses --      1.4604                 4.2125                 4.4023
 Frc consts  --      0.2026                 0.7647                 0.8534
 IR Inten    --     42.1103                16.3135                 4.1831

                     16                     17                     18
                      A                      A                      A
 Frequencies --    603.8782               634.3855               642.5506
 Red. masses --      2.7244                 6.9631                 3.4405
 Frc consts  --      0.5854                 1.6510                 0.8369
 IR Inten    --     21.9018                28.9481                27.8112

                     19                     20                     21
                      A                      A                      A
 Frequencies --    696.9682               748.0334               764.2084
 Red. masses --      5.1789                11.3818                 5.7264
 Frc consts  --      1.4822                 3.7524                 1.9704
 IR Inten    --     20.1449                27.2564                21.4177

                     22                     23                     24
                      A                      A                      A
 Frequencies --    803.7361               910.8577               939.0523
 Red. masses --      6.7518                 4.1913                 3.4439
 Frc consts  --      2.5698                 2.0488                 1.7893
 IR Inten    --      1.7803                 3.6316                44.9050

                     25                     26                     27
                      A                      A                      A
 Frequencies --    964.3326              1033.6473              1071.5352
 Red. masses --      5.1545                 2.7076                 1.8098
 Frc consts  --      2.8241                 1.7045                 1.2243
 IR Inten    --    104.3998                19.3593                31.3034

                     28                     29                     30
                      A                      A                      A
 Frequencies --   1135.8353              1150.1297              1159.8637
 Red. masses --      2.4284                 2.2084                 1.2690
 Frc consts  --      1.8458                 1.7212                 1.0058
 IR Inten    --    100.1403                12.6309                 2.2524

                     31                     32                     33
                      A                      A                      A
 Frequencies --   1208.0733              1230.9641              1300.9609
 Red. masses --      2.2648                 1.2138                 1.7333
 Frc consts  --      1.9474                 1.0837                 1.7284
 IR Inten    --      6.3223                47.4591                63.6091

                     34                     35                     36
                      A                      A                      A
 Frequencies --   1316.1842              1339.9379              1390.5300
 Red. masses --      4.2046                 1.7029                 1.8499
 Frc consts  --      4.2915                 1.8014                 2.1074
 IR Inten    --    214.9639                55.8243                69.8263

                     37                     38                     39
                      A                      A                      A
 Frequencies --   1432.9268              1447.6568              1478.2001
 Red. masses --      1.7689                 1.6801                 1.3611
 Frc consts  --      2.1400                 2.0745                 1.7523
 IR Inten    --     53.7729                18.6265                14.6203

                     40                     41                     42
                      A                      A                      A
 Frequencies --   1487.0743              1505.9115              1520.9987
 Red. masses --      1.3033                 1.4033                 1.0519
 Frc consts  --      1.6981                 1.8750                 1.4338
 IR Inten    --     27.6475                29.1913                11.2018

                     43                     44                     45
                      A                      A                      A
 Frequencies --   1546.6667              1789.1238              1890.8459
 Red. masses --      1.0842                 8.2316                12.5045
 Frc consts  --      1.5281                15.5244                26.3408
 IR Inten    --     39.9424               339.6016               681.4361

                     46                     47                     48
                      A                      A                      A
 Frequencies --   1962.5751              3041.1085              3041.8403
 Red. masses --     12.0428                 1.0730                 1.0484
 Frc consts  --     27.3294                 5.8466                 5.7155
 IR Inten    --    259.7035                31.4998                22.2622

                     49                     50                     51
                      A                      A                      A
 Frequencies --   3060.1558              3096.9754              3099.1889
 Red. masses --      1.0632                 1.1017                 1.1013
 Frc consts  --      5.8663                 6.2259                 6.2323
 IR Inten    --     16.5384                 0.4388                33.4789

                     52                     53                     54
                      A                      A                      A
 Frequencies --   3156.6485              3608.4709              3650.8563
 Red. masses --      1.0997                 1.0766                 1.0786
 Frc consts  --      6.4561                 8.2594                 8.4699
 IR Inten    --     15.3447                34.4570                36.3273

 - Thermochemistry -
 -------------------
 Temperature   298.150 Kelvin.  Pressure   1.00000 Atm.
 Atom     1 has atomic number  6 and mass  12.00000

 Molecular mass:   172.04841 amu.
 Principal axes and moments of inertia in atomic units:
                           1         2         3
     Eigenvalues --  1050.311142832.778053183.87770
           X            0.99998  -0.00335  -0.00457
           Y            0.00324   0.99975  -0.02235
           Z            0.00464   0.02233   0.99974
 This molecule is an asymmetric top.
 Rotational symmetry number  1.
 Warning -- assumption of classical behavior for rotation
           may cause significant error
 Rotational temperatures (Kelvin)      0.08247     0.03058     0.02720
 Rotational constants (GHZ):           1.71829     0.63709     0.56684
 Zero-point vibrational energy     400407.7 (Joules/Mol)
                                   95.69974 (Kcal/Mol)
 Warning -- explicit consideration of  16 degrees of freedom as
           vibrations may cause significant error
 Vibrational temperatures:     37.81    87.07   102.82   148.11   227.98
          (Kelvin)            236.74   268.05   302.15   384.35   560.66
                              584.55   607.88   698.20   798.62   825.28
                              868.85   912.74   924.49  1002.78  1076.25
                             1099.53  1156.40  1310.52  1351.09  1387.46
                             1487.19  1541.70  1634.21  1654.78  1668.79
                             1738.15  1771.08  1871.79  1893.70  1927.87
                             2000.66  2061.66  2082.86  2126.80  2139.57
                             2166.67  2188.38  2225.31  2574.15  2720.51
                             2823.71  4375.48  4376.53  4402.88  4455.86
                             4459.04  4541.71  5191.78  5252.77

 Zero-point correction=                           0.152507 (Hartree/Particle)
 Thermal correction to Energy=                    0.164089
 Thermal correction to Enthalpy=                  0.165033
 Thermal correction to Gibbs Free Energy=         0.113385
 Sum of electronic and zero-point Energies=           -643.772497
 Sum of electronic and thermal Energies=              -643.760915
 Sum of electronic and thermal Enthalpies=            -643.759971
 Sum of electronic and thermal Free Energies=         -643.811619

                     E (Thermal)             CV                S
                      KCal/Mol        Cal/Mol-Kelvin    Cal/Mol-Kelvin
 Total                  102.967             41.002            108.703
 Electronic               0.000              0.000              0.000
 Translational            0.889              2.981             41.335
 Rotational               0.889              2.981             30.628
 Vibrational            101.190             35.040             36.740
 Vibration     1          0.593              1.985              6.092
 Vibration     2          0.597              1.973              4.440
 Vibration     3          0.598              1.968              4.113
 Vibration     4          0.605              1.947              3.398
 Vibration     5          0.621              1.893              2.568
 Vibration     6          0.623              1.886              2.497
 Vibration     7          0.632              1.859              2.264
 Vibration     8          0.642              1.826              2.044
 Vibration     9          0.672              1.733              1.615
 Vibration    10          0.758              1.492              1.001
 Vibration    11          0.771              1.457              0.940
 Vibration    12          0.785              1.421              0.884
 Vibration    13          0.841              1.283              0.696
 Vibration    14          0.911              1.129              0.534
 Vibration    15          0.930              1.088              0.497
 Vibration    16          0.962              1.024              0.443

                           ! Non-Optimized Parameters !
 Normal termination of Gaussian 16 at Wed Dec  9 18:16:49 2020.

 ----------------------------------------------------------------------
 # B3LYP/6-311++G(d,p) empiricaldispersion=gd3bj scf=xqc pop=npa geom=c
 heck
 ----------------------------------------------------------------------

 ---------------------------------------
 CID_130146078_JID_2652_Energie_neutraal
 ---------------------------------------
 Structure from the checkpoint file:  "JID_2652.chk"
 Charge =  0 Multiplicity = 1

 SCF Done:  E(RB3LYP) =  -644.123454018     A.U. after   15 cycles
 Normal termination of Gaussian 16 at Wed Dec  9 18:18:29 2020.

 ----------------------------------------------------------------------
 # B3LYP/6-311++G(d,p) empiricaldispersion=gd3bj scf=xqc pop=npa geom=c
 heck
 ----------------------------------------------------------------------

 -------------------------------------
 CID_130146078_JID_2652_Energie_kation
 -------------------------------------
 Structure from the checkpoint file:  "JID_2652.chk"
 Charge =  1 Multiplicity = 2

 SCF Done:  E(UB3LYP) =  -643.774773050     A.U. after   29 cycles
 Normal termination of Gaussian 16 at Wed Dec  9 18:23:07 2020.
 Gaussian 16:  ES64L-G16RevA.03 25-Dec-2016

 ----------------------------------------------------------------------
 # B3LYP/6-311++G(d,p) empiricaldispersion=gd3bj scf=xqc pop=npa geom=c
 heck
 ----------------------------------------------------------------------

 ------------------------------------
 CID_130146078_JID_2652_Energie_anion
 ------------------------------------
 Structure from the checkpoint file:  "JID_2652.chk"
 Charge = -1 Multiplicity = 2

                         Standard orientation:
 ---------------------------------------------------------------------
 Center     Atomic      Atomic             Coordinates (Angstroms)
 Number     Number       Type             X           Y           Z
 ---------------------------------------------------------------------
      1          6           0       -3.832532    0.170475    0.266549
      2          7           0       -2.725723    0.622605   -0.560690
      3          6           0       -1.407978    0.320062   -0.393346
      4          8           0       -0.559336    0.626827   -1.223303
      5          6           0       -1.041129   -0.423675    0.886789
      6          6           0        0.472941   -0.565169    1.060274
      7          6           0        1.140858   -1.246872   -0.138107
      8          8           0        0.881528   -2.323008   -0.595411
      9          8           0        2.153739   -0.442052   -0.584014
     10          6           0        2.127881    0.783780    0.098534
     11          8           0        2.823404    1.712565   -0.199556
     12          7           0        1.236236    0.661652    1.132786
     13          1           0       -3.947038   -0.921154    0.253988
     14          1           0       -4.753124    0.613840   -0.117400
     15          1           0       -3.714461    0.496232    1.305719
     16          1           0       -2.932277    1.049135   -1.454960
     17          1           0       -1.473738    0.069281    1.765848
     18          1           0       -1.470898   -1.432777    0.854766
     19          1           0        0.655958   -1.195090    1.941153
     20          1           0        0.907058    1.504465    1.580329
 ---------------------------------------------------------------------

 SCF Done:  E(UB3LYP) =  -644.126252676     A.U. after   30 cycles

 The electronic state is 2-A.
 Alpha  occ. eigenvalues --  -19.09136 -19.02729 -19.01707 -18.99766 -14.25797
 Alpha  occ. eigenvalues --  -14.24609 -10.23703 -10.21687 -10.18367 -10.14620
 Alpha  occ. eigenvalues --  -10.10889 -10.09873  -1.04907  -0.97392  -0.95024
 Alpha  occ. eigenvalues --   -0.93765  -0.85445  -0.83208  -0.70033  -0.62060
 Alpha  occ. eigenvalues --   -0.60376  -0.56180  -0.52511  -0.48551  -0.43781
 Alpha  occ. eigenvalues --   -0.42772  -0.40111  -0.39369  -0.37852  -0.37200
 Alpha  occ. eigenvalues --   -0.36218  -0.34771  -0.33123  -0.32776  -0.31691
 Alpha  occ. eigenvalues --   -0.31141  -0.30251  -0.29200  -0.27626  -0.23297
 Alpha  occ. eigenvalues --   -0.21519  -0.19306  -0.18559  -0.17091  -0.16295
 Alpha  occ. eigenvalues --    0.03436
 Alpha virt. eigenvalues --    0.06198   0.07703   0.08161   0.08825   0.09684
 Alpha virt. eigenvalues --    0.10190   0.10444   0.12258   0.12849   0.13457
 Alpha virt. eigenvalues --    0.13846   0.14165   0.15199   0.16027   0.16532

  Beta  occ. eigenvalues --  -19.09137 -19.02680 -19.01694 -18.99758 -14.25776
  Beta  occ. eigenvalues --  -14.24594 -10.23690 -10.21623 -10.18368 -10.14612
  Beta  occ. eigenvalues --  -10.10810 -10.09807  -1.04868  -0.97329  -0.95009
  Beta  occ. eigenvalues --   -0.93724  -0.85412  -0.83176  -0.69952  -0.61957
  Beta  occ. eigenvalues --   -0.60256  -0.56129  -0.52450  -0.48491  -0.43680
  Beta  occ. eigenvalues --   -0.42684  -0.40005  -0.39299  -0.37804  -0.37125
  Beta  occ. eigenvalues --   -0.36158  -0.34725  -0.33041  -0.32705  -0.31618
  Beta  occ. eigenvalues --   -0.31031  -0.30177  -0.29137  -0.27581  -0.23180
  Beta  occ. eigenvalues --   -0.21487  -0.19266  -0.18518  -0.17043  -0.16266
  Beta virt. eigenvalues --    0.06483   0.07455   0.08417   0.08913   0.09470
  Beta virt. eigenvalues --    0.10140   0.10649   0.11302   0.12676   0.13039
  Beta virt. eigenvalues --    0.13790   0.14150   0.14840   0.15261   0.16150

 Mulliken charges and spin densities:
               1          2
     1  C    1.406812  -1.745180
     2  N   -0.514408   0.266797
     3  C   -0.252272   0.500182
     4  O   -0.331116  -0.006306
     5  C    0.797915  -1.149596
     6  C    0.973140  -0.967489
     7  C   -0.031994  -0.040288
     8  O   -0.310423   0.020678
     9  O   -0.066425  -0.005964
    10  C    0.392144  -0.171689
    11  O   -0.364875   0.014105
    12  N   -0.185223  -0.052894
    13  H   -0.292471   0.451938
    14  H   -0.872137   1.040232
    15  H   -0.512007   0.684085
    16  H    0.086296   0.215460
    17  H   -0.529771   0.742710
    18  H    0.108062   0.092369
    19  H   -0.552834   0.849889
    20  H    0.051586   0.260961
 Sum of Mulliken charges =  -1.00000   1.00000

 Dipole moment (field-independent basis, Debye):
    X=              3.6997    Y=             -0.6242    Z=             -1.4087  Tot=              4.0077
 Quadrupole moment (field-independent basis, Debye-Ang):
   XX=           -136.3827   YY=           -102.4123   ZZ=           -105.6701
   XY=             -0.3029   XZ=             12.9363   YZ=             -0.3785

 Summary of Natural Population Analysis:

                                       Natural Population
                Natural  -----------------------------------------------
    Atom  No    Charge         Core      Valence    Rydberg      Total
 -----------------------------------------------------------------------
      C    1   -0.18268      0.99965     2.17503    0.00801     3.18268
      N    2   -0.31244      0.99968     2.80245    0.01032     3.81244
      C    3    0.34423      0.99967     1.63308    0.02302     2.65577
      O    4   -0.32441      0.99988     3.31879    0.00575     4.32441
      C    5   -0.24172      0.99957     2.23265    0.00950     3.24172
      C    6   -0.05543      0.99957     2.04090    0.01495     3.05543
      C    7    0.42039      0.99967     1.55217    0.02777     2.57961
      O    8   -0.27959      0.99986     3.27381    0.00591     4.27959
      O    9   -0.27225      0.99984     3.26606    0.00635     4.27225
      C   10    0.46771      0.99971     1.50561    0.02698     2.53229
      O   11   -0.29921      0.99986     3.29382    0.00553     4.29921
      N   12   -0.33026      0.99966     2.82064    0.00996     3.83026
      H   13    0.09426      0.00000     0.40396    0.00178     0.40574
      H   14    0.10477      0.00000     0.39260    0.00263     0.39523
      H   15    0.10348      0.00000     0.39224    0.00428     0.39652
      H   16    0.19560      0.00000     0.30232    0.00208     0.30440
      H   17    0.12318      0.00000     0.37029    0.00653     0.37682
      H   18    0.12339      0.00000     0.37506    0.00155     0.37661
      H   19    0.11531      0.00000     0.38228    0.00241     0.38469
      H   20    0.20568      0.00000     0.29184    0.00248     0.29432
 =======================================================================
   * Total *    0.00000     11.99662    32.82559    0.17779    45.00000

 Normal termination of Gaussian 16 at Wed Dec  9 18:27:34 2020.
