 Gaussian 16, Revision A.03,

 -----------------------------------------------------------
 # opt freq B3LYP/6-31G(d) empiricaldispersion=gd3bj scf=xqc
 -----------------------------------------------------------

 -------------------------------
 CID_143026768_JID_5182_neutraal
 -------------------------------
 Symbolic Z-matrix:
 Charge =  0 Multiplicity = 1

 SCF Done:  E(RB3LYP) =  -1066.24160422     A.U. after   16 cycles
 SCF Done:  E(RB3LYP) =  -1066.24719424     A.U. after   14 cycles
 SCF Done:  E(RB3LYP) =  -1066.24775063     A.U. after   14 cycles
 SCF Done:  E(RB3LYP) =  -1066.24697440     A.U. after   14 cycles
 SCF Done:  E(RB3LYP) =  -1066.24240872     A.U. after   14 cycles
 SCF Done:  E(RB3LYP) =  -1066.24011709     A.U. after   14 cycles
 SCF Done:  E(RB3LYP) =  -1066.24824894     A.U. after   11 cycles
 SCF Done:  E(RB3LYP) =  -1066.24942210     A.U. after   14 cycles
 SCF Done:  E(RB3LYP) =  -1066.24953853     A.U. after   13 cycles
 SCF Done:  E(RB3LYP) =  -1066.24957437     A.U. after   12 cycles
 SCF Done:  E(RB3LYP) =  -1066.24958845     A.U. after   11 cycles
 SCF Done:  E(RB3LYP) =  -1066.24959622     A.U. after   10 cycles
 SCF Done:  E(RB3LYP) =  -1066.24960132     A.U. after   10 cycles
 SCF Done:  E(RB3LYP) =  -1066.24960460     A.U. after   10 cycles
 SCF Done:  E(RB3LYP) =  -1066.24960525     A.U. after    8 cycles
 SCF Done:  E(RB3LYP) =  -1066.24960535     A.U. after    8 cycles
 Optimization completed.
    -- Stationary point found.
 Normal termination of Gaussian 16 at Thu Dec 10 14:51:27 2020.

 --------------------------------------------------------------------
 #N Geom=AllCheck Guess=TCheck SCRF=Check GenChk RB3LYP/6-31G(d) Freq
 --------------------------------------------------------------------

 Structure from the checkpoint file:  "JID_5182.chk"
 -------------------------------
 CID_143026768_JID_5182_neutraal
 -------------------------------
 Charge =  0 Multiplicity = 1

 SCF Done:  E(RB3LYP) =  -1066.24960535     A.U. after    1 cycles

  Exact polarizability: 197.311  -8.216 157.863   6.647   2.961  87.552
 Approx polarizability: 298.797 -18.521 289.099  12.712  19.280 137.674

                      1                      2                      3
                      A                      A                      A
 Frequencies --     36.7555                58.4351                72.3448
 Red. masses --      5.3431                 5.2245                 3.1039
 Frc consts  --      0.0043                 0.0105                 0.0096
 IR Inten    --      1.1019                 0.3284                 2.1754

                      4                      5                      6
                      A                      A                      A
 Frequencies --     93.7956               104.9242               135.7241
 Red. masses --      7.2424                 4.2339                 1.1865
 Frc consts  --      0.0375                 0.0275                 0.0129
 IR Inten    --      0.4308                 1.6754                 0.5191

                      7                      8                      9
                      A                      A                      A
 Frequencies --    149.6056               158.4049               185.6778
 Red. masses --      1.7606                 1.9491                 3.5906
 Frc consts  --      0.0232                 0.0288                 0.0729
 IR Inten    --      0.2978                 0.5135                 0.2475

                     10                     11                     12
                      A                      A                      A
 Frequencies --    229.0108               239.3633               274.3500
 Red. masses --      3.8198                 3.9912                 4.9599
 Frc consts  --      0.1180                 0.1347                 0.2200
 IR Inten    --      1.7142                 1.3095                 1.6171

                     13                     14                     15
                      A                      A                      A
 Frequencies --    326.2599               348.3733               377.2101
 Red. masses --      4.9334                 5.2363                 7.0371
 Frc consts  --      0.3094                 0.3744                 0.5899
 IR Inten    --      1.6778                 3.0192                 5.1574

                     16                     17                     18
                      A                      A                      A
 Frequencies --    430.8704               440.8804               444.6274
 Red. masses --      5.1444                 8.9032                 4.2584
 Frc consts  --      0.5627                 1.0196                 0.4960
 IR Inten    --      0.9643                 1.4495                 0.4535

                     19                     20                     21
                      A                      A                      A
 Frequencies --    517.4816               554.7079               591.2596
 Red. masses --      4.5449                 5.2381                 3.9531
 Frc consts  --      0.7171                 0.9496                 0.8142
 IR Inten    --      5.3292                 3.1813                 7.2434

                     22                     23                     24
                      A                      A                      A
 Frequencies --    611.9920               642.1988               706.3697
 Red. masses --      4.2178                 6.7030                 5.6695
 Frc consts  --      0.9307                 1.6288                 1.6667
 IR Inten    --      6.4909                15.8093                 1.5093

                     25                     26                     27
                      A                      A                      A
 Frequencies --    708.8774               717.1675               751.1721
 Red. masses --      5.6832                 6.0663                 1.1766
 Frc consts  --      1.6826                 1.8383                 0.3912
 IR Inten    --      4.3658                21.8681               118.3873

                     28                     29                     30
                      A                      A                      A
 Frequencies --    760.2990               839.3915               848.3865
 Red. masses --      5.9473                 3.9025                 1.7125
 Frc consts  --      2.0255                 1.6200                 0.7262
 IR Inten    --      0.3289                 6.9220                30.1807

                     31                     32                     33
                      A                      A                      A
 Frequencies --    863.3736               868.1930               931.8011
 Red. masses --      3.2888                 1.4794                 1.4313
 Frc consts  --      1.4444                 0.6570                 0.7322
 IR Inten    --      1.4004                 1.4144                10.1241

                     34                     35                     36
                      A                      A                      A
 Frequencies --    970.1067               991.8480               993.2280
 Red. masses --      1.9053                 1.7777                 1.3870
 Frc consts  --      1.0565                 1.0304                 0.8062
 IR Inten    --     21.0892                 9.4503                 6.6209

                     37                     38                     39
                      A                      A                      A
 Frequencies --    997.7690              1018.5685              1074.0928
 Red. masses --      1.3258                 1.6076                 1.5093
 Frc consts  --      0.7777                 0.9827                 1.0259
 IR Inten    --      0.7238                 9.2097                 0.9456

                     40                     41                     42
                      A                      A                      A
 Frequencies --   1111.8525              1151.8356              1172.3196
 Red. masses --      2.6447                 2.4248                 1.4192
 Frc consts  --      1.9263                 1.8954                 1.1492
 IR Inten    --     24.0918                 2.6396                21.8639

                     43                     44                     45
                      A                      A                      A
 Frequencies --   1234.9585              1275.6792              1312.0457
 Red. masses --      1.7082                 2.9150                 5.1709
 Frc consts  --      1.5350                 2.7950                 5.2446
 IR Inten    --    111.2295                48.1372               152.4188

                     46                     47                     48
                      A                      A                      A
 Frequencies --   1337.5583              1348.0039              1373.8432
 Red. masses --      1.9534                 1.4566                 4.0275
 Frc consts  --      2.0591                 1.5595                 4.4788
 IR Inten    --    166.4498                48.1891               170.8682

                     49                     50                     51
                      A                      A                      A
 Frequencies --   1387.8174              1437.0822              1437.5392
 Red. masses --      1.1615                 1.2648                 3.1138
 Frc consts  --      1.3180                 1.5390                 3.7913
 IR Inten    --      4.0671                 0.6550                28.2270

                     52                     53                     54
                      A                      A                      A
 Frequencies --   1476.4908              1497.4578              1508.7099
 Red. masses --      3.0102                 1.0566                 1.0718
 Frc consts  --      3.8663                 1.3959                 1.4374
 IR Inten    --    101.5708                 4.5286                 3.7186

                     55                     56                     57
                      A                      A                      A
 Frequencies --   1515.0722              1516.8580              1544.9399
 Red. masses --      1.0532                 1.0519                 3.4475
 Frc consts  --      1.4244                 1.4260                 4.8481
 IR Inten    --     15.0908                 6.2998               164.8846

                     58                     59                     60
                      A                      A                      A
 Frequencies --   1610.6753              1638.2218              1687.7134
 Red. masses --      9.9937                 3.5069                 6.8005
 Frc consts  --     15.2754                 5.5452                11.4127
 IR Inten    --    206.3338                 8.1970                70.9828

                     61                     62                     63
                      A                      A                      A
 Frequencies --   1694.2015              3036.7054              3071.8198
 Red. masses --      6.3491                 1.0409                 1.0292
 Frc consts  --     10.7372                 5.6556                 5.7221
 IR Inten    --     66.4273                35.0354                22.4972

                     64                     65                     66
                      A                      A                      A
 Frequencies --   3082.9105              3141.1397              3157.5658
 Red. masses --      1.0978                 1.0949                 1.0910
 Frc consts  --      6.1477                 6.3648                 6.4088
 IR Inten    --     18.5465                 1.1163                19.8344

                     67                     68                     69
                      A                      A                      A
 Frequencies --   3160.8426              3164.0285              3209.7017
 Red. masses --      1.1077                 1.1054                 1.0886
 Frc consts  --      6.5206                 6.5199                 6.6075
 IR Inten    --      8.9871                 6.5695                 1.3042

                     70                     71                     72
                      A                      A                      A
 Frequencies --   3227.4773              3252.6859              3390.9610
 Red. masses --      1.0942                 1.0902                 1.0649
 Frc consts  --      6.7154                 6.7958                 7.2142
 IR Inten    --      3.1589                 2.7839               231.2579

 - Thermochemistry -
 -------------------
 Temperature   298.150 Kelvin.  Pressure   1.00000 Atm.
 Atom     1 has atomic number  6 and mass  12.00000

 Molecular mass:   225.04597 amu.
 Principal axes and moments of inertia in atomic units:
                           1         2         3
     Eigenvalues --  1916.989145896.543916985.78660
           X            0.99976  -0.02169  -0.00377
           Y            0.02155   0.99917  -0.03451
           Z            0.00451   0.03442   0.99940
 This molecule is an asymmetric top.
 Rotational symmetry number  1.
 Warning -- assumption of classical behavior for rotation
           may cause significant error
 Rotational temperatures (Kelvin)      0.04518     0.01469     0.01240
 Rotational constants (GHZ):           0.94145     0.30607     0.25834
 Zero-point vibrational energy     521760.9 (Joules/Mol)
                                  124.70385 (Kcal/Mol)
 Warning -- explicit consideration of  22 degrees of freedom as
           vibrations may cause significant error
 Vibrational temperatures:     52.88    84.08   104.09   134.95   150.96
          (Kelvin)            195.28   215.25   227.91   267.15   329.50
                              344.39   394.73   469.42   501.23   542.72
                              619.93   634.33   639.72   744.54   798.10
                              850.69   880.52   923.98  1016.31  1019.92
                             1031.84  1080.77  1093.90  1207.70  1220.64
                             1242.20  1249.14  1340.65  1395.77  1427.05
                             1429.03  1435.57  1465.49  1545.38  1599.71
                             1657.23  1686.71  1776.83  1835.42  1887.74
                             1924.45  1939.48  1976.65  1996.76  2067.64
                             2068.30  2124.34  2154.51  2170.70  2179.85
                             2182.42  2222.82  2317.40  2357.04  2428.24
                             2437.58  4369.14  4419.66  4435.62  4519.40
                             4543.03  4547.75  4552.33  4618.04  4643.62
                             4679.89  4878.84

 Zero-point correction=                           0.198728 (Hartree/Particle)
 Thermal correction to Energy=                    0.213474
 Thermal correction to Enthalpy=                  0.214418
 Thermal correction to Gibbs Free Energy=         0.155943
 Sum of electronic and zero-point Energies=          -1066.050877
 Sum of electronic and thermal Energies=             -1066.036132
 Sum of electronic and thermal Enthalpies=           -1066.035188
 Sum of electronic and thermal Free Energies=        -1066.093662

                     E (Thermal)             CV                S
                      KCal/Mol        Cal/Mol-Kelvin    Cal/Mol-Kelvin
 Total                  133.957             54.187            123.070
 Electronic               0.000              0.000              0.000
 Translational            0.889              2.981             42.136
 Rotational               0.889              2.981             32.735
 Vibrational            132.179             48.225             48.199
 Vibration     1          0.594              1.982              5.427
 Vibration     2          0.596              1.974              4.509
 Vibration     3          0.598              1.967              4.089
 Vibration     4          0.603              1.954              3.579
 Vibration     5          0.605              1.945              3.361
 Vibration     6          0.614              1.918              2.863
 Vibration     7          0.618              1.903              2.677
 Vibration     8          0.621              1.893              2.569
 Vibration     9          0.632              1.859              2.271
 Vibration    10          0.652              1.797              1.887
 Vibration    11          0.657              1.780              1.808
 Vibration    12          0.677              1.721              1.569
 Vibration    13          0.710              1.623              1.279
 Vibration    14          0.726              1.579              1.174
 Vibration    15          0.748              1.519              1.050
 Vibration    16          0.792              1.403              0.856
 Vibration    17          0.801              1.381              0.824
 Vibration    18          0.804              1.373              0.812
 Vibration    19          0.872              1.211              0.616
 Vibration    20          0.910              1.129              0.535
 Vibration    21          0.949              1.050              0.465
 Vibration    22          0.971              1.006              0.429

 Optimization completed.
    -- Stationary point found.
 Normal termination of Gaussian 16 at Thu Dec 10 14:58:49 2020.

 ----------------------------------------------------------------------
 # B3LYP/6-311++G(d,p) empiricaldispersion=gd3bj scf=xqc pop=npa geom=c
 heck
 ----------------------------------------------------------------------

 ---------------------------------------
 CID_143026768_JID_5182_Energie_neutraal
 ---------------------------------------
 Structure from the checkpoint file:  "JID_5182.chk"
 Charge =  0 Multiplicity = 1

 SCF Done:  E(RB3LYP) =  -1066.46948019     A.U. after   19 cycles
 Normal termination of Gaussian 16 at Thu Dec 10 15:03:04 2020.

 ----------------------------------------------------------------------
 # B3LYP/6-311++G(d,p) empiricaldispersion=gd3bj scf=xqc pop=npa geom=c
 heck
 ----------------------------------------------------------------------

 -------------------------------------
 CID_143026768_JID_5182_Energie_kation
 -------------------------------------
 Structure from the checkpoint file:  "JID_5182.chk"
 Charge =  1 Multiplicity = 2

 SCF Done:  E(UB3LYP) =  -1066.17683730     A.U. after   26 cycles
 Normal termination of Gaussian 16 at Thu Dec 10 15:11:23 2020.
 Gaussian 16:  ES64L-G16RevA.03 25-Dec-2016

 ----------------------------------------------------------------------
 # B3LYP/6-311++G(d,p) empiricaldispersion=gd3bj scf=xqc pop=npa geom=c
 heck
 ----------------------------------------------------------------------

 ------------------------------------
 CID_143026768_JID_5182_Energie_anion
 ------------------------------------
 Structure from the checkpoint file:  "JID_5182.chk"
 Charge = -1 Multiplicity = 2

                         Standard orientation:
 ---------------------------------------------------------------------
 Center     Atomic      Atomic             Coordinates (Angstroms)
 Number     Number       Type             X           Y           Z
 ---------------------------------------------------------------------
      1          6           0       -3.627074    2.181078   -0.732882
      2          6           0       -2.276068    1.537231   -0.751684
      3          6           0       -1.944246    0.308165   -0.311887
      4          6           0       -0.540567   -0.169900   -0.340631
      5          6           0        0.495775    0.664759    0.056842
      6          6           0        1.827902    0.231513    0.004384
      7          6           0        2.161043   -1.072798   -0.433624
      8          6           0        1.101065   -1.915217   -0.814875
      9          6           0       -0.208144   -1.477486   -0.765366
     10          8           0        3.404763   -1.556036   -0.501678
     11          7           0        2.855589    1.152126    0.433730
     12          8           0        2.535744    2.271052    0.818643
     13          8           0        4.048937    0.769970    0.394343
     14         16           0       -3.198099   -0.844640    0.240232
     15          6           0       -2.475837   -1.416792    1.823195
     16          1           0       -4.328467    1.633727   -0.098515
     17          1           0       -4.053438    2.231941   -1.744224
     18          1           0       -3.551266    3.214614   -0.372402
     19          1           0       -1.473950    2.125306   -1.197641
     20          1           0        0.295454    1.662015    0.426498
     21          1           0        1.351581   -2.915334   -1.151526
     22          1           0       -1.009356   -2.145735   -1.065352
     23          1           0        4.004163   -0.832269   -0.193131
     24          1           0       -1.509047   -1.900626    1.666768
     25          1           0       -2.365342   -0.583540    2.520823
     26          1           0       -3.178516   -2.143930    2.237580
 ---------------------------------------------------------------------

 SCF Done:  E(UB3LYP) =  -1066.51944623     A.U. after   24 cycles

 The electronic state is 2-A.
 Alpha  occ. eigenvalues --  -88.74854 -19.00845 -18.95211 -18.94797 -14.32152
 Alpha  occ. eigenvalues --  -10.10786 -10.10046 -10.09937 -10.07645 -10.07214
 Alpha  occ. eigenvalues --  -10.07037 -10.05611 -10.04289 -10.04097 -10.04033
 Alpha  occ. eigenvalues --   -7.83467  -5.79861  -5.79483  -5.78854  -1.02878
 Alpha  occ. eigenvalues --   -0.93179  -0.85436  -0.74618  -0.71395  -0.66981
 Alpha  occ. eigenvalues --   -0.64902  -0.63132  -0.58581  -0.54746  -0.53456
 Alpha  occ. eigenvalues --   -0.48565  -0.46893  -0.42043  -0.39725  -0.39064
 Alpha  occ. eigenvalues --   -0.36112  -0.35653  -0.35239  -0.34342  -0.33152
 Alpha  occ. eigenvalues --   -0.32506  -0.31766  -0.31054  -0.30282  -0.30175
 Alpha  occ. eigenvalues --   -0.28136  -0.27368  -0.26553  -0.25913  -0.22901
 Alpha  occ. eigenvalues --   -0.21893  -0.21048  -0.17324  -0.14555  -0.13443
 Alpha  occ. eigenvalues --   -0.13141  -0.12872  -0.11137  -0.09429   0.01758
 Alpha virt. eigenvalues --    0.06891   0.07439   0.08530   0.09546   0.10014
 Alpha virt. eigenvalues --    0.10754   0.11364   0.11618   0.12157   0.12607
 Alpha virt. eigenvalues --    0.13298   0.13588   0.14355   0.14427   0.14884

  Beta  occ. eigenvalues --  -88.74855 -19.00774 -18.94705 -18.94232 -14.31367
  Beta  occ. eigenvalues --  -10.10652 -10.10041 -10.09919 -10.07644 -10.07239
  Beta  occ. eigenvalues --  -10.07075 -10.05714 -10.04127 -10.04020 -10.03812
  Beta  occ. eigenvalues --   -7.83468  -5.79863  -5.79486  -5.78854  -1.01655
  Beta  occ. eigenvalues --   -0.93005  -0.84424  -0.74506  -0.71244  -0.66990
  Beta  occ. eigenvalues --   -0.64400  -0.62988  -0.58414  -0.54347  -0.52893
  Beta  occ. eigenvalues --   -0.48456  -0.46497  -0.41948  -0.39407  -0.38768
  Beta  occ. eigenvalues --   -0.35955  -0.34904  -0.34275  -0.33118  -0.32509
  Beta  occ. eigenvalues --   -0.32364  -0.31214  -0.30880  -0.30211  -0.30071
  Beta  occ. eigenvalues --   -0.27580  -0.26948  -0.26476  -0.25773  -0.22729
  Beta  occ. eigenvalues --   -0.21756  -0.20672  -0.17192  -0.12836  -0.12678
  Beta  occ. eigenvalues --   -0.12430  -0.10730  -0.10607  -0.08865
  Beta virt. eigenvalues --    0.06907   0.07424   0.08733   0.09091   0.09549
  Beta virt. eigenvalues --    0.10003   0.10736   0.11351   0.11656   0.12272
  Beta virt. eigenvalues --    0.13165   0.13544   0.14105   0.14390   0.14617

 Mulliken charges and spin densities:
               1          2
     1  C   -0.800163   0.009325
     2  C    0.694249  -0.078642
     3  C   -0.549847   0.058728
     4  C    2.029147  -0.102320
     5  C   -0.811952   0.212235
     6  C    0.471043  -0.041749
     7  C   -0.606182   0.063649
     8  C   -0.321121  -0.004388
     9  C   -1.219812   0.221316
    10  O   -0.229089   0.020837
    11  N   -0.408523   0.245117
    12  O   -0.162281   0.224728
    13  O   -0.175978   0.192375
    14  S   -0.059999   0.000167
    15  C   -0.732191  -0.002512
    16  H    0.138038  -0.001057
    17  H    0.133845   0.000628
    18  H    0.127648  -0.000681
    19  H    0.178540   0.009215
    20  H    0.251213  -0.008404
    21  H    0.157670   0.000051
    22  H    0.118366  -0.014672
    23  H    0.273129  -0.005377
    24  H    0.196723  -0.000742
    25  H    0.174839   0.000858
    26  H    0.132688   0.001316
 Sum of Mulliken charges =  -1.00000   1.00000

 Dipole moment (field-independent basis, Debye):
    X=             -9.4665    Y=             -2.9102    Z=             -0.4043  Tot=              9.9120
 Quadrupole moment (field-independent basis, Debye-Ang):
   XX=           -154.0543   YY=           -115.4888   ZZ=           -102.5677
   XY=            -12.5664   XZ=             -6.9843   YZ=             -8.0161

 Summary of Natural Population Analysis:

                                       Natural Population
                Natural  -----------------------------------------------
    Atom  No    Charge         Core      Valence    Rydberg      Total
 -----------------------------------------------------------------------
      C    1   -0.30289      0.99965     2.29865    0.00459     3.30289
      C    2   -0.10779      0.99946     2.09908    0.00925     3.10779
      C    3   -0.07562      0.99936     2.06387    0.01238     3.07562
      C    4   -0.08984      0.99946     2.08033    0.01005     3.08984
      C    5   -0.03727      0.99950     2.02824    0.00953     3.03727
      C    6   -0.00277      0.99940     1.99287    0.01050     3.00277
      C    7    0.19652      0.99940     1.79023    0.01385     2.80348
      C    8   -0.14147      0.99954     2.13241    0.00952     3.14147
      C    9   -0.03948      0.99954     2.03135    0.00858     3.03948
      O   10   -0.34475      0.99987     3.33705    0.00783     4.34475
      N   11    0.32566      0.99971     2.14871    0.02592     3.17434
      O   12   -0.17337      0.99990     3.16546    0.00801     4.17337
      O   13   -0.22387      0.99989     3.21586    0.00812     4.22387
      S   14    0.09325      4.99955     2.88593    0.02127     7.90675
      C   15   -0.34806      0.99962     2.34341    0.00503     3.34806
      H   16    0.10541      0.00000     0.39293    0.00167     0.39459
      H   17    0.09787      0.00000     0.40105    0.00108     0.40213
      H   18    0.09775      0.00000     0.40123    0.00102     0.40225
      H   19    0.10052      0.00000     0.39821    0.00127     0.39948
      H   20    0.11471      0.00000     0.38378    0.00151     0.38529
      H   21    0.09792      0.00000     0.40037    0.00171     0.40208
      H   22    0.09508      0.00000     0.40302    0.00190     0.40492
      H   23    0.25009      0.00000     0.24626    0.00365     0.24991
      H   24    0.11122      0.00000     0.38740    0.00138     0.38878
      H   25    0.10154      0.00000     0.39711    0.00135     0.39846
      H   26    0.09964      0.00000     0.39929    0.00108     0.40036
 =======================================================================
   * Total *    0.00000     18.99384    39.82409    0.18207    59.00000

 Normal termination of Gaussian 16 at Thu Dec 10 15:18:55 2020.
