 Gaussian 16, Revision A.03,

 -----------------------------------------------------------
 # opt freq B3LYP/6-31G(d) empiricaldispersion=gd3bj scf=xqc
 -----------------------------------------------------------

 -------------------------------
 CID_141009713_JID_4943_neutraal
 -------------------------------
 Symbolic Z-matrix:
 Charge =  0 Multiplicity = 1

 SCF Done:  E(RB3LYP) =  -595.075657624     A.U. after   14 cycles
 SCF Done:  E(RB3LYP) =  -595.078803343     A.U. after   12 cycles
 SCF Done:  E(RB3LYP) =  -595.079557124     A.U. after   12 cycles
 SCF Done:  E(RB3LYP) =  -595.080138639     A.U. after   12 cycles
 SCF Done:  E(RB3LYP) =  -595.080561599     A.U. after   11 cycles
 SCF Done:  E(RB3LYP) =  -595.080800102     A.U. after   12 cycles
 SCF Done:  E(RB3LYP) =  -595.080888257     A.U. after   11 cycles
 SCF Done:  E(RB3LYP) =  -595.080958783     A.U. after   11 cycles
 SCF Done:  E(RB3LYP) =  -595.081046666     A.U. after   11 cycles
 SCF Done:  E(RB3LYP) =  -595.081079811     A.U. after   10 cycles
 SCF Done:  E(RB3LYP) =  -595.081097959     A.U. after   10 cycles
 SCF Done:  E(RB3LYP) =  -595.081100818     A.U. after   10 cycles
 SCF Done:  E(RB3LYP) =  -595.081102716     A.U. after    9 cycles
 SCF Done:  E(RB3LYP) =  -595.081103046     A.U. after    9 cycles
 SCF Done:  E(RB3LYP) =  -595.081103149     A.U. after    7 cycles
 Optimization completed.
    -- Stationary point found.
 Normal termination of Gaussian 16 at Thu Dec 10 10:56:24 2020.

 --------------------------------------------------------------------
 #N Geom=AllCheck Guess=TCheck SCRF=Check GenChk RB3LYP/6-31G(d) Freq
 --------------------------------------------------------------------

 Structure from the checkpoint file:  "JID_4943.chk"
 -------------------------------
 CID_141009713_JID_4943_neutraal
 -------------------------------
 Charge =  0 Multiplicity = 1

 SCF Done:  E(RB3LYP) =  -595.081103149     A.U. after    1 cycles

  Exact polarizability: 183.620  10.829 109.544   6.068  -5.120 100.473
 Approx polarizability: 238.509  21.966 186.975   9.341  -7.485 168.433

                      1                      2                      3
                      A                      A                      A
 Frequencies --     13.9705                44.1246                72.8396
 Red. masses --      4.1890                 3.2724                 4.5018
 Frc consts  --      0.0005                 0.0038                 0.0141
 IR Inten    --      0.6904                 0.3906                 0.4254

                      4                      5                      6
                      A                      A                      A
 Frequencies --     89.4727               152.8442               225.7947
 Red. masses --      3.4744                 1.8046                 1.6339
 Frc consts  --      0.0164                 0.0248                 0.0491
 IR Inten    --      0.7827                 6.4325                 1.3293

                      7                      8                      9
                      A                      A                      A
 Frequencies --    233.6751               241.6784               279.5709
 Red. masses --      2.5295                 3.6055                 4.5578
 Frc consts  --      0.0814                 0.1241                 0.2099
 IR Inten    --      0.6201                 1.1029                 1.2342

                     10                     11                     12
                      A                      A                      A
 Frequencies --    369.7273               382.3335               417.5984
 Red. masses --      3.4067                 2.7640                 4.5194
 Frc consts  --      0.2744                 0.2381                 0.4644
 IR Inten    --     12.1214                11.0638                 3.9434

                     13                     14                     15
                      A                      A                      A
 Frequencies --    425.0448               469.1106               530.2231
 Red. masses --      3.1111                 4.4936                 4.6010
 Frc consts  --      0.3312                 0.5826                 0.7621
 IR Inten    --      0.0323                 7.1219                 1.7784

                     16                     17                     18
                      A                      A                      A
 Frequencies --    597.7321               632.0020               642.4418
 Red. masses --      5.1318                 6.3393                 4.8590
 Frc consts  --      1.0803                 1.4919                 1.1816
 IR Inten    --      0.7976                 0.1937                 0.7891

                     19                     20                     21
                      A                      A                      A
 Frequencies --    660.8961               694.6327               706.4665
 Red. masses --      3.6578                 1.2447                 2.1112
 Frc consts  --      0.9413                 0.3539                 0.6208
 IR Inten    --      0.0809                 7.3656                19.4329

                     22                     23                     24
                      A                      A                      A
 Frequencies --    734.8895               763.4991               790.4295
 Red. masses --      2.6251                 1.6670                 2.5857
 Frc consts  --      0.8353                 0.5725                 0.9518
 IR Inten    --     11.5901                47.4476                12.1765

                     25                     26                     27
                      A                      A                      A
 Frequencies --    825.7620               844.2942               879.3448
 Red. masses --      3.6495                 1.2474                 5.7931
 Frc consts  --      1.4662                 0.5239                 2.6392
 IR Inten    --     17.9299                 0.1951                13.4119

                     28                     29                     30
                      A                      A                      A
 Frequencies --    917.3189               923.4188               960.6888
 Red. masses --      1.2727                 1.5346                 1.3363
 Frc consts  --      0.6310                 0.7710                 0.7266
 IR Inten    --      0.7012                 7.1854                 0.0419

                     31                     32                     33
                      A                      A                      A
 Frequencies --    979.8095               987.0240              1024.1231
 Red. masses --      2.4732                 1.2373                 5.7636
 Frc consts  --      1.3989                 0.7102                 3.5616
 IR Inten    --     27.1728                 0.1171                 1.3505

                     34                     35                     36
                      A                      A                      A
 Frequencies --   1025.9240              1053.0455              1066.4834
 Red. masses --      2.0377                 2.0330                 1.7564
 Frc consts  --      1.2636                 1.3282                 1.1770
 IR Inten    --      2.1799                 4.9113                 6.6592

                     37                     38                     39
                      A                      A                      A
 Frequencies --   1103.2222              1117.9136              1163.2422
 Red. masses --      1.4820                 1.6474                 1.3220
 Frc consts  --      1.0627                 1.2130                 1.0540
 IR Inten    --      5.5244                27.2736                37.0782

                     40                     41                     42
                      A                      A                      A
 Frequencies --   1181.8158              1190.8356              1193.4431
 Red. masses --      1.3482                 1.1036                 1.1662
 Frc consts  --      1.1095                 0.9221                 0.9786
 IR Inten    --     60.2274                 0.1901                 3.3687

                     43                     44                     45
                      A                      A                      A
 Frequencies --   1212.8165              1232.9701              1273.6007
 Red. masses --      2.3100                 2.5939                 4.3143
 Frc consts  --      2.0019                 2.3234                 4.1232
 IR Inten    --    104.2482                 1.6694               334.9449

                     46                     47                     48
                      A                      A                      A
 Frequencies --   1286.3522              1335.6322              1346.4437
 Red. masses --      1.3877                 1.7435                 1.4625
 Frc consts  --      1.3529                 1.8325                 1.5622
 IR Inten    --     61.5983                14.7479                55.0305

                     49                     50                     51
                      A                      A                      A
 Frequencies --   1355.9927              1362.5130              1433.5765
 Red. masses --      2.1481                 3.3505                 1.7861
 Frc consts  --      2.3271                 3.6648                 2.1628
 IR Inten    --     25.8299                 0.7445               109.7611

                     52                     53                     54
                      A                      A                      A
 Frequencies --   1481.4004              1501.2132              1502.5817
 Red. masses --      1.2813                 1.9176                 1.5543
 Frc consts  --      1.6567                 2.5462                 2.0675
 IR Inten    --     12.8835                11.2355                17.9058

                     55                     56                     57
                      A                      A                      A
 Frequencies --   1512.6973              1540.7686              1543.2584
 Red. masses --      1.3349                 1.0876                 2.2646
 Frc consts  --      1.7997                 1.5212                 3.1777
 IR Inten    --     16.9366                11.3755                83.0640

                     58                     59                     60
                      A                      A                      A
 Frequencies --   1562.6632              1652.0987              1658.5713
 Red. masses --      1.2274                 6.0546                 5.6956
 Frc consts  --      1.7659                 9.7366                 9.2312
 IR Inten    --      7.5709                 4.4733                69.5544

                     61                     62                     63
                      A                      A                      A
 Frequencies --   1663.2589              1727.6070              2837.3392
 Red. masses --      5.1475                 6.3622                 1.0764
 Frc consts  --      8.3900                11.1879                 5.1056
 IR Inten    --     53.4067               234.3544               152.6815

                     64                     65                     66
                      A                      A                      A
 Frequencies --   2976.5444              3032.0982              3074.2786
 Red. masses --      1.0577                 1.0833                 1.0794
 Frc consts  --      5.5211                 5.8680                 6.0107
 IR Inten    --    116.1963                55.4639                42.5188

                     67                     68                     69
                      A                      A                      A
 Frequencies --   3135.6118              3186.0314              3195.3133
 Red. masses --      1.1005                 1.0851                 1.0894
 Frc consts  --      6.3752                 6.4899                 6.5532
 IR Inten    --     18.3010                 0.5923                14.4510

                     70                     71                     72
                      A                      A                      A
 Frequencies --   3201.1140              3208.2982              3219.4615
 Red. masses --      1.0900                 1.0934                 1.0937
 Frc consts  --      6.5810                 6.6312                 6.6790
 IR Inten    --     12.4847                34.4183                13.2015

                     73                     74                     75
                      A                      A                      A
 Frequencies --   3221.7163              3235.7833              3253.1523
 Red. masses --      1.0959                 1.0905                 1.0944
 Frc consts  --      6.7019                 6.7270                 6.8238
 IR Inten    --      0.4668                 2.8915                 5.3755

 - Thermochemistry -
 -------------------
 Temperature   298.150 Kelvin.  Pressure   1.00000 Atm.
 Atom     1 has atomic number  6 and mass  12.00000

 Molecular mass:   187.09971 amu.
 Principal axes and moments of inertia in atomic units:
                           1         2         3
     Eigenvalues --   881.098765517.311015766.16376
           X            1.00000  -0.00278   0.00077
           Y            0.00279   0.99979  -0.02021
           Z           -0.00071   0.02021   0.99980
 This molecule is an asymmetric top.
 Rotational symmetry number  1.
 Warning -- assumption of classical behavior for rotation
           may cause significant error
 Rotational temperatures (Kelvin)      0.09830     0.01570     0.01502
 Rotational constants (GHZ):           2.04828     0.32711     0.31299
 Zero-point vibrational energy     589588.3 (Joules/Mol)
                                  140.91498 (Kcal/Mol)
 Warning -- explicit consideration of  16 degrees of freedom as
           vibrations may cause significant error
 Vibrational temperatures:     20.10    63.49   104.80   128.73   219.91
          (Kelvin)            324.87   336.21   347.72   402.24   531.96
                              550.09   600.83   611.54   674.95   762.87
                              860.00   909.31   924.33   950.88   999.42
                             1016.45  1057.34  1098.50  1137.25  1188.09
                             1214.75  1265.18  1319.82  1328.59  1382.22
                             1409.73  1420.11  1473.48  1476.08  1515.10
                             1534.43  1587.29  1608.43  1673.65  1700.37
                             1713.35  1717.10  1744.97  1773.97  1832.43
                             1850.77  1921.68  1937.23  1950.97  1960.35
                             2062.60  2131.40  2159.91  2161.88  2176.43
                             2216.82  2220.40  2248.32  2377.00  2386.31
                             2393.06  2485.64  4082.30  4282.58  4362.51
                             4423.20  4511.45  4583.99  4597.34  4605.69
                             4616.03  4632.09  4635.33  4655.57  4680.56

 Zero-point correction=                           0.224562 (Hartree/Particle)
 Thermal correction to Energy=                    0.236877
 Thermal correction to Enthalpy=                  0.237821
 Thermal correction to Gibbs Free Energy=         0.183969
 Sum of electronic and zero-point Energies=           -594.856541
 Sum of electronic and thermal Energies=              -594.844226
 Sum of electronic and thermal Enthalpies=            -594.843282
 Sum of electronic and thermal Free Energies=         -594.897134

                     E (Thermal)             CV                S
                      KCal/Mol        Cal/Mol-Kelvin    Cal/Mol-Kelvin
 Total                  148.642             47.439            113.341
 Electronic               0.000              0.000              0.000
 Translational            0.889              2.981             41.585
 Rotational               0.889              2.981             31.706
 Vibrational            146.865             41.477             40.050
 Vibration     1          0.593              1.986              7.347
 Vibration     2          0.595              1.980              5.065
 Vibration     3          0.599              1.967              4.075
 Vibration     4          0.602              1.957              3.672
 Vibration     5          0.619              1.900              2.637
 Vibration     6          0.650              1.802              1.912
 Vibration     7          0.654              1.789              1.851
 Vibration     8          0.658              1.776              1.790
 Vibration     9          0.680              1.711              1.536
 Vibration    10          0.742              1.534              1.081
 Vibration    11          0.752              1.508              1.030
 Vibration    12          0.781              1.432              0.900
 Vibration    13          0.787              1.416              0.875
 Vibration    14          0.826              1.319              0.740
 Vibration    15          0.885              1.183              0.587
 Vibration    16          0.956              1.037              0.454

 Optimization completed.
    -- Stationary point found.
 Normal termination of Gaussian 16 at Thu Dec 10 11:03:12 2020.

 ----------------------------------------------------------------------
 # B3LYP/6-311++G(d,p) empiricaldispersion=gd3bj scf=xqc pop=npa geom=c
 heck
 ----------------------------------------------------------------------

 ---------------------------------------
 CID_141009713_JID_4943_Energie_neutraal
 ---------------------------------------
 Structure from the checkpoint file:  "JID_4943.chk"
 Charge =  0 Multiplicity = 1

 SCF Done:  E(RB3LYP) =  -595.240876374     A.U. after   15 cycles
 Normal termination of Gaussian 16 at Thu Dec 10 11:05:56 2020.

 ----------------------------------------------------------------------
 # B3LYP/6-311++G(d,p) empiricaldispersion=gd3bj scf=xqc pop=npa geom=c
 heck
 ----------------------------------------------------------------------

 -------------------------------------
 CID_141009713_JID_4943_Energie_kation
 -------------------------------------
 Structure from the checkpoint file:  "JID_4943.chk"
 Charge =  1 Multiplicity = 2

 SCF Done:  E(UB3LYP) =  -594.992011561     A.U. after   21 cycles
 Normal termination of Gaussian 16 at Thu Dec 10 11:10:52 2020.
 Gaussian 16:  ES64L-G16RevA.03 25-Dec-2016

 ----------------------------------------------------------------------
 # B3LYP/6-311++G(d,p) empiricaldispersion=gd3bj scf=xqc pop=npa geom=c
 heck
 ----------------------------------------------------------------------

 ------------------------------------
 CID_141009713_JID_4943_Energie_anion
 ------------------------------------
 Structure from the checkpoint file:  "JID_4943.chk"
 Charge = -1 Multiplicity = 2

                         Standard orientation:
 ---------------------------------------------------------------------
 Center     Atomic      Atomic             Coordinates (Angstroms)
 Number     Number       Type             X           Y           Z
 ---------------------------------------------------------------------
      1          6           0        4.574962   -0.853868   -0.331771
      2          7           0        3.236988   -0.308101   -0.281600
      3          6           0        2.180231   -1.305930   -0.079943
      4          6           0        0.810304   -0.680848   -0.149141
      5          6           0        0.661082    0.617117    0.176399
      6          6           0        1.803201    1.463226    0.457587
      7          6           0        3.033908    0.965880    0.193757
      8          8           0       -0.538820    1.298736    0.211301
      9          6           0       -1.709264    0.569930    0.092575
     10          6           0       -2.438392    0.662351   -1.090344
     11          6           0       -3.657009   -0.010213   -1.196816
     12          6           0       -4.133900   -0.774766   -0.131316
     13          6           0       -3.390115   -0.863000    1.048226
     14          6           0       -2.174694   -0.190600    1.166004
     15          1           0        5.302574   -0.051094   -0.477872
     16          1           0        4.661685   -1.553624   -1.171377
     17          1           0        4.833510   -1.400548    0.592076
     18          1           0        2.292332   -2.073193   -0.857968
     19          1           0        2.349327   -1.830002    0.888915
     20          1           0       -0.032228   -1.312659   -0.400300
     21          1           0        1.655451    2.488839    0.767746
     22          1           0        3.929245    1.573112    0.290094
     23          1           0       -2.045608    1.261884   -1.904941
     24          1           0       -4.231969    0.063327   -2.115587
     25          1           0       -5.081929   -1.297612   -0.217207
     26          1           0       -3.759713   -1.453190    1.882093
     27          1           0       -1.582914   -0.244098    2.073822
 ---------------------------------------------------------------------

 SCF Done:  E(UB3LYP) =  -595.227019936     A.U. after   33 cycles
 SCF Done:  E(UB3LYP) =  -595.227019936     a.u. after    1 cycles

 The electronic state is 2-A.
 Alpha  occ. eigenvalues --  -19.06665 -14.24151 -10.14573 -10.13554 -10.11352
 Alpha  occ. eigenvalues --  -10.11189 -10.10143 -10.09253 -10.09232 -10.09008
 Alpha  occ. eigenvalues --  -10.08997 -10.08759 -10.05933 -10.05897  -0.98645
 Alpha  occ. eigenvalues --   -0.86135  -0.77228  -0.71250  -0.66760  -0.66636
 Alpha  occ. eigenvalues --   -0.65912  -0.60605  -0.55058  -0.54412  -0.52975
 Alpha  occ. eigenvalues --   -0.49586  -0.46026  -0.42028  -0.40953  -0.39719
 Alpha  occ. eigenvalues --   -0.38724  -0.37791  -0.36397  -0.36016  -0.34221
 Alpha  occ. eigenvalues --   -0.33502  -0.32444  -0.31110  -0.30141  -0.29315
 Alpha  occ. eigenvalues --   -0.28490  -0.28121  -0.26792  -0.26105  -0.25107
 Alpha  occ. eigenvalues --   -0.22316  -0.17515  -0.16546  -0.14791  -0.08591
 Alpha  occ. eigenvalues --    0.04124
 Alpha virt. eigenvalues --    0.05318   0.06631   0.06934   0.07138   0.07540
 Alpha virt. eigenvalues --    0.07845   0.08023   0.08954   0.09306   0.10040
 Alpha virt. eigenvalues --    0.10420   0.11272   0.11912   0.12731   0.13119

  Beta  occ. eigenvalues --  -19.06660 -14.24153 -10.14571 -10.13554 -10.11327
  Beta  occ. eigenvalues --  -10.11163 -10.10087 -10.09240 -10.09220 -10.09006
  Beta  occ. eigenvalues --  -10.08991 -10.08741 -10.05922 -10.05885  -0.98634
  Beta  occ. eigenvalues --   -0.86120  -0.77207  -0.71226  -0.66726  -0.66607
  Beta  occ. eigenvalues --   -0.65882  -0.60541  -0.55015  -0.54370  -0.52948
  Beta  occ. eigenvalues --   -0.49544  -0.45989  -0.41977  -0.40907  -0.39689
  Beta  occ. eigenvalues --   -0.38701  -0.37754  -0.36359  -0.35980  -0.34197
  Beta  occ. eigenvalues --   -0.33470  -0.32414  -0.31070  -0.30092  -0.29286
  Beta  occ. eigenvalues --   -0.28462  -0.28084  -0.26757  -0.26075  -0.25087
  Beta  occ. eigenvalues --   -0.22269  -0.17500  -0.16523  -0.14764  -0.08543
  Beta virt. eigenvalues --    0.06234   0.06592   0.06806   0.07123   0.07582
  Beta virt. eigenvalues --    0.08046   0.08197   0.08507   0.09431   0.09805
  Beta virt. eigenvalues --    0.10448   0.10779   0.11763   0.12083   0.12995

 Mulliken charges and spin densities:
               1          2
     1  C    1.226618  -1.529079
     2  N   -0.203312   0.370102
     3  C    1.235489  -2.027089
     4  C   -0.701768   0.916829
     5  C   -0.049453  -0.548222
     6  C   -0.335635   0.506468
     7  C    0.013686  -0.197537
     8  O   -0.039413   0.002140
     9  C   -0.199888  -0.184040
    10  C   -0.385892   0.564311
    11  C    0.005433  -0.210108
    12  C    1.132249  -1.546818
    13  C    0.032673  -0.151586
    14  C    0.077808   0.130304
    15  H   -0.485561   0.621480
    16  H   -0.446470   0.598204
    17  H   -0.375612   0.520746
    18  H   -0.016043   0.185883
    19  H   -0.159019   0.287511
    20  H    0.085321   0.097289
    21  H    0.099109   0.064880
    22  H   -0.449533   0.600275
    23  H    0.116064   0.053361
    24  H   -0.369675   0.553335
    25  H   -0.497979   0.654606
    26  H   -0.424110   0.611319
    27  H    0.114913   0.055435
 Sum of Mulliken charges =  -1.00000   1.00000

 Dipole moment (field-independent basis, Debye):
    X=             -2.9836    Y=              3.0593    Z=              0.2678  Tot=              4.2817
 Quadrupole moment (field-independent basis, Debye-Ang):
   XX=           -207.4399   YY=           -118.2921   ZZ=           -113.3738
   XY=             -1.5070   XZ=             -0.3750   YZ=              0.2311

 Summary of Natural Population Analysis:

                                       Natural Population
                Natural  -----------------------------------------------
    Atom  No    Charge         Core      Valence    Rydberg      Total
 -----------------------------------------------------------------------
      C    1   -0.17172      0.99964     2.16320    0.00888     3.17172
      N    2   -0.24260      0.99968     2.73105    0.01187     3.74260
      C    3   -0.08236      0.99962     2.07115    0.01159     3.08236
      C    4   -0.16576      0.99949     2.15690    0.00937     3.16576
      C    5    0.15763      0.99932     1.82937    0.01368     2.84237
      C    6   -0.18441      0.99952     2.17219    0.01270     3.18441
      C    7    0.04580      0.99953     1.94247    0.01221     2.95420
      O    8   -0.27402      0.99984     3.26358    0.01059     4.27402
      C    9    0.15110      0.99935     1.83573    0.01382     2.84890
      C   10   -0.11822      0.99950     2.10899    0.00973     3.11822
      C   11   -0.09730      0.99957     2.08725    0.01048     3.09730
      C   12   -0.10708      0.99956     2.09717    0.01035     3.10708
      C   13   -0.09731      0.99957     2.08723    0.01051     3.09731
      C   14   -0.11783      0.99950     2.10895    0.00938     3.11783
      H   15    0.10036      0.00000     0.39747    0.00217     0.39964
      H   16    0.09742      0.00000     0.40063    0.00195     0.40258
      H   17    0.08935      0.00000     0.40748    0.00317     0.41065
      H   18    0.09678      0.00000     0.40148    0.00174     0.40322
      H   19    0.07929      0.00000     0.41903    0.00169     0.42071
      H   20    0.10744      0.00000     0.39134    0.00122     0.39256
      H   21    0.10855      0.00000     0.39049    0.00096     0.39145
      H   22    0.09778      0.00000     0.40101    0.00121     0.40222
      H   23    0.10771      0.00000     0.39140    0.00088     0.39229
      H   24    0.10270      0.00000     0.39614    0.00115     0.39730
      H   25    0.10448      0.00000     0.39347    0.00205     0.39552
      H   26    0.10317      0.00000     0.39557    0.00125     0.39683
      H   27    0.10905      0.00000     0.38997    0.00098     0.39095
 =======================================================================
   * Total *    0.00000     13.99369    35.83072    0.17558    50.00000

 Normal termination of Gaussian 16 at Thu Dec 10 11:18:28 2020.
