 Gaussian 16, Revision A.03,

 -----------------------------------------------------------
 # opt freq B3LYP/6-31G(d) empiricaldispersion=gd3bj scf=xqc
 -----------------------------------------------------------

 ------------------------------
 CID_53835919_JID_1066_neutraal
 ------------------------------
 Symbolic Z-matrix:
 Charge =  0 Multiplicity = 1

 SCF Done:  E(RB3LYP) =  -465.712563311     A.U. after   13 cycles
 SCF Done:  E(RB3LYP) =  -465.717129655     A.U. after   11 cycles
 SCF Done:  E(RB3LYP) =  -465.710990078     A.U. after   12 cycles
 SCF Done:  E(RB3LYP) =  -465.714221521     A.U. after   11 cycles
 SCF Done:  E(RB3LYP) =  -465.717958585     A.U. after    9 cycles
 SCF Done:  E(RB3LYP) =  -465.718018230     A.U. after   10 cycles
 SCF Done:  E(RB3LYP) =  -465.718408774     A.U. after   10 cycles
 SCF Done:  E(RB3LYP) =  -465.718577892     A.U. after   10 cycles
 SCF Done:  E(RB3LYP) =  -465.718868153     A.U. after   10 cycles
 SCF Done:  E(RB3LYP) =  -465.718934151     A.U. after   10 cycles
 SCF Done:  E(RB3LYP) =  -465.718951497     A.U. after    9 cycles
 SCF Done:  E(RB3LYP) =  -465.718957872     A.U. after    8 cycles
 SCF Done:  E(RB3LYP) =  -465.718959141     A.U. after    7 cycles
 SCF Done:  E(RB3LYP) =  -465.718959363     A.U. after    7 cycles
 SCF Done:  E(RB3LYP) =  -465.718959510     A.U. after    7 cycles
 SCF Done:  E(RB3LYP) =  -465.718959558     A.U. after    6 cycles
 Optimization completed.
    -- Stationary point found.

 1\1\GINC-NODE201\FOpt\RB3LYP\6-31G(d)\C9H22N2\VSC10255\08-Dec-2020\0\\
 # opt freq B3LYP/6-31G(d) empiricaldispersion=gd3bj scf=xqc\\CID_53835
 919_JID_1066_neutraal\\0,1\C,1.0543799603,0.0113277521,-0.026876595\C,
 0.3694892663,-1.2067121262,0.6010970828\C,0.9801614931,-1.6833137532,1
 .9312908991\N,0.3591120445,-1.0772785398,3.1224697845\C,0.78074933,-1.
 7256455797,4.4054586448\C,2.30225641,-1.6212609241,4.6615174081\C,0.03
 17175094,-1.0872955792,5.5871625708\C,0.3723268258,-3.2111828141,4.370
 0717111\N,0.6224346117,0.3449481731,3.0884399408\C,-0.5777825014,1.162

 Normal termination of Gaussian 16 at Tue Dec  8 19:17:17 2020.

 --------------------------------------------------------------------
 #N Geom=AllCheck Guess=TCheck SCRF=Check GenChk RB3LYP/6-31G(d) Freq
 --------------------------------------------------------------------

 Structure from the checkpoint file:  "JID_1066.chk"
 ------------------------------
 CID_53835919_JID_1066_neutraal
 ------------------------------
 Charge =  0 Multiplicity = 1

 SCF Done:  E(RB3LYP) =  -465.718959558     A.U. after    1 cycles

  Exact polarizability: 121.560   1.860 114.484  -0.616   1.095  96.283
 Approx polarizability: 152.722   3.081 153.309  -1.808   3.115 144.688

                      1                      2                      3
                      A                      A                      A
 Frequencies --     57.4336                67.5390                79.2836
 Red. masses --      2.5416                 2.4122                 2.5038
 Frc consts  --      0.0049                 0.0065                 0.0093
 IR Inten    --      0.0848                 0.0172                 0.2278

                      4                      5                      6
                      A                      A                      A
 Frequencies --    137.9351               159.7976               185.4691
 Red. masses --      2.6027                 1.8476                 1.4589
 Frc consts  --      0.0292                 0.0278                 0.0296
 IR Inten    --      0.1274                 0.5533                 0.5065

                      7                      8                      9
                      A                      A                      A
 Frequencies --    197.0794               227.3576               241.4376
 Red. masses --      1.3963                 1.6994                 1.5620
 Frc consts  --      0.0320                 0.0518                 0.0536
 IR Inten    --      0.9737                 0.8357                 1.2335

                     10                     11                     12
                      A                      A                      A
 Frequencies --    256.0181               275.8611               302.7383
 Red. masses --      1.4069                 1.2278                 1.6485
 Frc consts  --      0.0543                 0.0551                 0.0890
 IR Inten    --      0.5627                 1.3037                 0.2700

                     13                     14                     15
                      A                      A                      A
 Frequencies --    312.1536               327.2978               349.3338
 Red. masses --      1.9485                 1.4354                 1.8889
 Frc consts  --      0.1119                 0.0906                 0.1358
 IR Inten    --      0.9970                 0.6879                 4.7279

                     16                     17                     18
                      A                      A                      A
 Frequencies --    357.7241               399.3464               420.3698
 Red. masses --      2.2322                 2.0183                 2.2759
 Frc consts  --      0.1683                 0.1896                 0.2370
 IR Inten    --      1.9339                 0.6084                 0.6999

                     19                     20                     21
                      A                      A                      A
 Frequencies --    462.8229               477.4375               526.4574
 Red. masses --      2.6131                 2.6848                 1.9592
 Frc consts  --      0.3298                 0.3606                 0.3199
 IR Inten    --      0.2484                 4.4147                 5.3260

                     22                     23                     24
                      A                      A                      A
 Frequencies --    558.4681               637.2411               742.5286
 Red. masses --      2.5871                 2.7326                 1.3695
 Frc consts  --      0.4754                 0.6538                 0.4449
 IR Inten    --      2.2032                33.2818                16.1899

                     25                     26                     27
                      A                      A                      A
 Frequencies --    787.3454               791.7953               874.3362
 Red. masses --      2.7682                 1.2255                 2.0322
 Frc consts  --      1.0111                 0.4527                 0.9153
 IR Inten    --      0.6998                 6.8507                21.6187

                     28                     29                     30
                      A                      A                      A
 Frequencies --    886.7254               911.1892               923.8090
 Red. masses --      2.0685                 1.9376                 1.7380
 Frc consts  --      0.9583                 0.9478                 0.8739
 IR Inten    --     13.1494                 6.3256                 0.6774

                     31                     32                     33
                      A                      A                      A
 Frequencies --    940.2371               943.0412               973.9271
 Red. masses --      1.4560                 1.6299                 1.2238
 Frc consts  --      0.7584                 0.8540                 0.6839
 IR Inten    --      8.7119                 0.5786                 0.5660

                     34                     35                     36
                      A                      A                      A
 Frequencies --   1007.0225              1032.2125              1057.4391
 Red. masses --      2.6167                 1.8613                 1.3928
 Frc consts  --      1.5634                 1.1684                 0.9176
 IR Inten    --      7.7446                 5.1416                 6.2338

                     37                     38                     39
                      A                      A                      A
 Frequencies --   1071.1099              1090.5470              1118.9187
 Red. masses --      1.5491                 2.3134                 2.3226
 Frc consts  --      1.0471                 1.6210                 1.7133
 IR Inten    --      1.8769                11.2349                 4.6058

                     40                     41                     42
                      A                      A                      A
 Frequencies --   1136.2908              1159.5911              1169.1287
 Red. masses --      2.0264                 2.1770                 2.5990
 Frc consts  --      1.5416                 1.7247                 2.0931
 IR Inten    --     16.8416                 2.4681                 2.8407

                     43                     44                     45
                      A                      A                      A
 Frequencies --   1209.4310              1248.1964              1263.6514
 Red. masses --      1.9509                 2.3845                 2.6120
 Frc consts  --      1.6813                 2.1889                 2.4574
 IR Inten    --      2.8187                51.2843                28.1576

                     46                     47                     48
                      A                      A                      A
 Frequencies --   1285.5324              1300.8859              1351.2270
 Red. masses --      2.6327                 1.2898                 1.1279
 Frc consts  --      2.5634                 1.2860                 1.2133
 IR Inten    --      3.4940                 0.9794                 3.1983

                     49                     50                     51
                      A                      A                      A
 Frequencies --   1359.2010              1394.1781              1406.8340
 Red. masses --      1.1976                 1.3444                 1.2859
 Frc consts  --      1.3036                 1.5396                 1.4995
 IR Inten    --      3.2455                 3.6158                 5.0330

                     52                     53                     54
                      A                      A                      A
 Frequencies --   1419.7916              1425.1198              1425.5909
 Red. masses --      1.2825                 1.2236                 1.2709
 Frc consts  --      1.5232                 1.4642                 1.5217
 IR Inten    --      8.9338                 9.2631                 4.4442

                     55                     56                     57
                      A                      A                      A
 Frequencies --   1435.1253              1442.0959              1456.2546
 Red. masses --      1.2598                 1.2699                 1.2173
 Frc consts  --      1.5287                 1.5559                 1.5210
 IR Inten    --     16.9471                 4.5132                13.4441

                     58                     59                     60
                      A                      A                      A
 Frequencies --   1502.3777              1509.1756              1510.7791
 Red. masses --      1.0680                 1.0791                 1.0647
 Frc consts  --      1.4203                 1.4481                 1.4318
 IR Inten    --      1.5609                 0.3883                 0.2036

                     61                     62                     63
                      A                      A                      A
 Frequencies --   1512.9435              1518.2121              1520.0536
 Red. masses --      1.0591                 1.0512                 1.0848
 Frc consts  --      1.4284                 1.4275                 1.4767
 IR Inten    --      1.7990                 1.6747                 6.0978

                     64                     65                     66
                      A                      A                      A
 Frequencies --   1522.7938              1523.9052              1531.3839
 Red. masses --      1.0494                 1.0744                 1.0635
 Frc consts  --      1.4338                 1.4700                 1.4694
 IR Inten    --      2.3877                 1.7786                 3.4023

                     67                     68                     69
                      A                      A                      A
 Frequencies --   1537.0040              1545.1760              1546.4645
 Red. masses --      1.0622                 1.0631                 1.0651
 Frc consts  --      1.4784                 1.4954                 1.5008
 IR Inten    --      4.5999                 3.8242                 8.5599

                     70                     71                     72
                      A                      A                      A
 Frequencies --   1549.1134              1556.7317              2985.5635
 Red. masses --      1.0665                 1.0569                 1.0718
 Frc consts  --      1.5079                 1.5090                 5.6288
 IR Inten    --      8.6047                 7.3157                45.6197

                     73                     74                     75
                      A                      A                      A
 Frequencies --   3035.2246              3045.5907              3047.2540
 Red. masses --      1.0646                 1.0615                 1.0425
 Frc consts  --      5.7785                 5.8014                 5.7033
 IR Inten    --     34.2868                34.5150                47.2274

                     76                     77                     78
                      A                      A                      A
 Frequencies --   3052.3713              3052.9024              3058.8922
 Red. masses --      1.0384                 1.0382                 1.0359
 Frc consts  --      5.7003                 5.7011                 5.7105
 IR Inten    --     13.8293                31.1774                18.7677

                     79                     80                     81
                      A                      A                      A
 Frequencies --   3069.4364              3075.9131              3091.3638
 Red. masses --      1.0371                 1.0974                 1.0990
 Frc consts  --      5.7570                 6.1176                 6.1880
 IR Inten    --     17.0702                31.4283                 7.6037

                     82                     83                     84
                      A                      A                      A
 Frequencies --   3103.0130              3111.9703              3115.2599
 Red. masses --      1.1011                 1.1013                 1.1002
 Frc consts  --      6.2469                 6.2837                 6.2910
 IR Inten    --     47.4023                 9.8011                71.4505

                     85                     86                     87
                      A                      A                      A
 Frequencies --   3118.8455              3128.0902              3131.3413
 Red. masses --      1.0975                 1.0975                 1.0988
 Frc consts  --      6.2896                 6.3272                 6.3479
 IR Inten    --     33.5753                37.7718                13.7709

                     88                     89                     90
                      A                      A                      A
 Frequencies --   3134.0509              3142.2334              3144.3245
 Red. masses --      1.1011                 1.0977                 1.1020
 Frc consts  --      6.3724                 6.3858                 6.4191
 IR Inten    --     46.8417                28.0137                29.5268

                     91                     92                     93
                      A                      A                      A
 Frequencies --   3154.2112              3158.7102              3524.7085
 Red. masses --      1.1016                 1.0969                 1.0742
 Frc consts  --      6.4573                 6.4482                 7.8627
 IR Inten    --     32.9086                21.8639                 1.6110

 - Thermochemistry -
 -------------------
 Temperature   298.150 Kelvin.  Pressure   1.00000 Atm.
 Atom     1 has atomic number  6 and mass  12.00000

 Molecular mass:   158.17830 amu.
 Principal axes and moments of inertia in atomic units:
                           1         2         3
     Eigenvalues --  1474.414862101.320182901.05227
           X            0.99999  -0.00420   0.00027
           Y            0.00420   0.99996  -0.00790
           Z           -0.00024   0.00790   0.99997
 This molecule is an asymmetric top.
 Rotational symmetry number  1.
 Warning -- assumption of classical behavior for rotation
           may cause significant error
 Rotational temperatures (Kelvin)      0.05874     0.04122     0.02986
 Rotational constants (GHZ):           1.22404     0.85886     0.62210
 Zero-point vibrational energy     813007.8 (Joules/Mol)
                                  194.31354 (Kcal/Mol)
 Warning -- explicit consideration of  22 degrees of freedom as
           vibrations may cause significant error
 Vibrational temperatures:     82.63    97.17   114.07   198.46   229.91
          (Kelvin)            266.85   283.55   327.12   347.37   368.35
                              396.90   435.57   449.12   470.91   502.61
                              514.69   574.57   604.82   665.90   686.93
                              757.45   803.51   916.85  1068.33  1132.81
                             1139.22  1257.97  1275.80  1311.00  1329.16
                             1352.79  1356.83  1401.26  1448.88  1485.12
                             1521.42  1541.09  1569.05  1609.87  1634.87
                             1668.39  1682.12  1740.10  1795.88  1818.11
                             1849.59  1871.68  1944.11  1955.59  2005.91
                             2024.12  2042.76  2050.43  2051.11  2064.83
                             2074.85  2095.23  2161.59  2171.37  2173.67
                             2176.79  2184.37  2187.02  2190.96  2192.56
                             2203.32  2211.41  2223.16  2225.02  2228.83
                             2239.79  4295.56  4367.01  4381.93  4384.32
                             4391.68  4392.45  4401.06  4416.23  4425.55
                             4447.78  4464.54  4477.43  4482.16  4487.32
                             4500.62  4505.30  4509.20  4520.97  4523.98
                             4538.21  4544.68  5071.27

 Zero-point correction=                           0.309658 (Hartree/Particle)
 Thermal correction to Energy=                    0.323864
 Thermal correction to Enthalpy=                  0.324808
 Thermal correction to Gibbs Free Energy=         0.270202
 Sum of electronic and zero-point Energies=           -465.409301
 Sum of electronic and thermal Energies=              -465.395096
 Sum of electronic and thermal Enthalpies=            -465.394152
 Sum of electronic and thermal Free Energies=         -465.448758

                     E (Thermal)             CV                S
                      KCal/Mol        Cal/Mol-Kelvin    Cal/Mol-Kelvin
 Total                  203.228             54.113            114.928
 Electronic               0.000              0.000              0.000
 Translational            0.889              2.981             41.085
 Rotational               0.889              2.981             30.575
 Vibrational            201.450             48.151             43.268
 Vibration     1          0.596              1.975              4.543
 Vibration     2          0.598              1.970              4.224
 Vibration     3          0.600              1.963              3.909
 Vibration     4          0.614              1.915              2.832
 Vibration     5          0.622              1.892              2.552
 Vibration     6          0.632              1.860              2.273
 Vibration     7          0.636              1.844              2.160
 Vibration     8          0.651              1.799              1.900
 Vibration     9          0.658              1.777              1.792
 Vibration    10          0.666              1.753              1.689
 Vibration    11          0.678              1.718              1.559
 Vibration    12          0.694              1.669              1.402
 Vibration    13          0.700              1.651              1.351
 Vibration    14          0.711              1.621              1.273
 Vibration    15          0.727              1.577              1.169
 Vibration    16          0.733              1.559              1.132
 Vibration    17          0.765              1.472              0.965
 Vibration    18          0.783              1.426              0.891
 Vibration    19          0.820              1.333              0.758
 Vibration    20          0.834              1.300              0.717
 Vibration    21          0.881              1.191              0.595
 Vibration    22          0.914              1.121              0.527

 Optimization completed.
    -- Stationary point found.

 1\1\GINC-NODE201\Freq\RB3LYP\6-31G(d)\C9H22N2\VSC10255\08-Dec-2020\0\\
 #N Geom=AllCheck Guess=TCheck SCRF=Check GenChk RB3LYP/6-31G(d) Freq\\
 CID_53835919_JID_1066_neutraal\\0,1\C,1.0543799603,0.0113277521,-0.026
 876595\C,0.3694892663,-1.2067121262,0.6010970828\C,0.9801614931,-1.683
 3137532,1.9312908991\N,0.3591120445,-1.0772785398,3.1224697845\C,0.780
 74933,-1.7256455797,4.4054586448\C,2.30225641,-1.6212609241,4.66151740
 81\C,0.0317175094,-1.0872955792,5.5871625708\C,0.3723268258,-3.2111828
 141,4.3700717111\N,0.6224346117,0.3449481731,3.0884399408\C,-0.5777825

 Normal termination of Gaussian 16 at Tue Dec  8 19:25:28 2020.

 ----------------------------------------------------------------------
 # B3LYP/6-311++G(d,p) empiricaldispersion=gd3bj scf=xqc pop=npa geom=c
 heck
 ----------------------------------------------------------------------

 --------------------------------------
 CID_53835919_JID_1066_Energie_neutraal
 --------------------------------------
 Structure from the checkpoint file:  "JID_1066.chk"
 Charge =  0 Multiplicity = 1

 SCF Done:  E(RB3LYP) =  -465.854387236     A.U. after   13 cycles
 Normal termination of Gaussian 16 at Tue Dec  8 19:29:11 2020.

 ----------------------------------------------------------------------
 # B3LYP/6-311++G(d,p) empiricaldispersion=gd3bj scf=xqc pop=npa geom=c
 heck
 ----------------------------------------------------------------------

 ------------------------------------
 CID_53835919_JID_1066_Energie_kation
 ------------------------------------
 Structure from the checkpoint file:  "JID_1066.chk"
 Charge =  1 Multiplicity = 2

 SCF Done:  E(UB3LYP) =  -465.582734340     A.U. after   18 cycles
 Normal termination of Gaussian 16 at Tue Dec  8 19:36:35 2020.
 Gaussian 16:  ES64L-G16RevA.03 25-Dec-2016

 -----------------------------------
 CID_53835919_JID_1066_Energie_anion
 -----------------------------------
 Structure from the checkpoint file:  "JID_1066.chk"
 Charge = -1 Multiplicity = 2

                         Standard orientation:
 ---------------------------------------------------------------------
 Center     Atomic      Atomic             Coordinates (Angstroms)
 Number     Number       Type             X           Y           Z
 ---------------------------------------------------------------------
      1          6           0        3.183001   -0.917423    0.390370
      2          6           0        2.169150   -1.160444   -0.732169
      3          6           0        0.721869   -1.394515   -0.263046
      4          7           0       -0.085851   -0.164157   -0.187591
      5          6           0       -1.545749   -0.425578    0.023541
      6          6           0       -1.839346   -1.168229    1.347821
      7          6           0       -2.323462    0.901079    0.013325
      8          6           0       -2.077337   -1.262017   -1.156572
      9          7           0        0.493683    0.688744    0.827261
     10          6           0        1.096412    1.915916    0.292657
     11          6           0        0.254546    2.825317   -0.605325
     12          1           0        4.186660   -0.745525   -0.016380
     13          1           0        3.237962   -1.792700    1.049607
     14          1           0        2.898809   -0.063479    1.008281
     15          1           0        2.170441   -0.331231   -1.450006
     16          1           0        2.486536   -2.048338   -1.295404
     17          1           0        0.235967   -2.046682   -0.990995
     18          1           0        0.742573   -1.930378    0.700380
     19          1           0       -1.499668   -0.600987    2.222189
     20          1           0       -2.917189   -1.327802    1.460776
     21          1           0       -1.352459   -2.147239    1.376165
     22          1           0       -2.187087    1.424123   -0.936143
     23          1           0       -3.390490    0.694903    0.145131
     24          1           0       -2.022342    1.575834    0.819229
     25          1           0       -1.728514   -0.838660   -2.103938
     26          1           0       -1.768586   -2.309591   -1.106823
     27          1           0       -3.172260   -1.248180   -1.153293
     28          1           0       -0.203195    0.913068    1.530902
     29          1           0        1.445813    2.472920    1.172230
     30          1           0        1.995813    1.620580   -0.257725
     31          1           0       -0.600811    3.255529   -0.073801
     32          1           0        0.870413    3.653697   -0.975774
     33          1           0       -0.117713    2.263395   -1.465912
 ---------------------------------------------------------------------

 SCF Done:  E(UB3LYP) =  -465.837207809     A.U. after   26 cycles

 The electronic state is 2-A.
 Alpha  occ. eigenvalues --  -14.21824 -14.21029 -10.10597 -10.08531 -10.07852
 Alpha  occ. eigenvalues --  -10.06152 -10.05291 -10.05171 -10.05029 -10.04970
 Alpha  occ. eigenvalues --  -10.04944  -0.86350  -0.73315  -0.68960  -0.65401
 Alpha  occ. eigenvalues --   -0.61582  -0.58316  -0.58143  -0.55450  -0.50166
 Alpha  occ. eigenvalues --   -0.47844  -0.45364  -0.39093  -0.36675  -0.36432
 Alpha  occ. eigenvalues --   -0.34008  -0.33708  -0.33419  -0.32561  -0.30468
 Alpha  occ. eigenvalues --   -0.30069  -0.29763  -0.28146  -0.27805  -0.27077
 Alpha  occ. eigenvalues --   -0.26409  -0.25892  -0.24458  -0.23728  -0.23532
 Alpha  occ. eigenvalues --   -0.22961  -0.22573  -0.21354  -0.15172  -0.09658
 Alpha  occ. eigenvalues --    0.04741
 Alpha virt. eigenvalues --    0.06995   0.07094   0.08015   0.08942   0.09159
 Alpha virt. eigenvalues --    0.09609   0.09911   0.10400   0.11320   0.11931
 Alpha virt. eigenvalues --    0.12273   0.12718   0.12991   0.13608   0.13926

  Beta  occ. eigenvalues --  -14.21811 -14.21014 -10.10590 -10.08515 -10.07841
  Beta  occ. eigenvalues --  -10.06141 -10.05281 -10.05139 -10.04993 -10.04945
  Beta  occ. eigenvalues --  -10.04910  -0.86327  -0.73289  -0.68935  -0.65372
  Beta  occ. eigenvalues --   -0.61544  -0.58253  -0.58081  -0.55413  -0.50107
  Beta  occ. eigenvalues --   -0.47794  -0.45312  -0.39046  -0.36636  -0.36402
  Beta  occ. eigenvalues --   -0.33968  -0.33686  -0.33389  -0.32525  -0.30440
  Beta  occ. eigenvalues --   -0.30042  -0.29724  -0.28109  -0.27763  -0.27041
  Beta  occ. eigenvalues --   -0.26371  -0.25855  -0.24428  -0.23706  -0.23492
  Beta  occ. eigenvalues --   -0.22932  -0.22544  -0.21323  -0.15139  -0.09613
  Beta virt. eigenvalues --    0.06849   0.07705   0.07838   0.08471   0.09539
  Beta virt. eigenvalues --    0.09834   0.10054   0.10207   0.10857   0.11847
  Beta virt. eigenvalues --    0.12202   0.12782   0.13109   0.13357   0.13825

 Mulliken charges and spin densities:
               1          2
     1  C   -0.354922  -0.208076
     2  C    0.669435  -0.744926
     3  C   -0.149734  -0.149834
     4  N    0.449817  -0.053849
     5  C   -2.354474   2.007871
     6  C    1.378254  -1.876310
     7  C    0.560546  -0.919840
     8  C    1.073907  -1.479699
     9  N   -0.401615   0.134496
    10  C   -0.377104   0.132109
    11  C    0.624418  -1.157418
    12  H    0.025793   0.087018
    13  H   -0.008081   0.127198
    14  H   -0.064050   0.218246
    15  H    0.072892   0.050834
    16  H   -0.169615   0.314893
    17  H    0.042917   0.078238
    18  H    0.156469  -0.059101
    19  H   -0.303740   0.439142
    20  H   -0.297810   0.460115
    21  H   -0.288580   0.446947
    22  H   -0.064945   0.205151
    23  H   -0.152930   0.310026
    24  H   -0.459566   0.609651
    25  H    0.018805   0.137836
    26  H   -0.419730   0.575037
    27  H   -0.257469   0.403635
    28  H    0.415170  -0.165492
    29  H   -0.297913   0.432002
    30  H    0.223551  -0.084484
    31  H   -0.171709   0.310058
    32  H   -0.164270   0.303949
    33  H    0.046283   0.114579
 Sum of Mulliken charges =  -1.00000   1.00000

 Dipole moment (field-independent basis, Debye):
    X=              3.9493    Y=              0.0220    Z=             -1.2954  Tot=              4.1564
 Quadrupole moment (field-independent basis, Debye-Ang):
   XX=           -130.1418   YY=           -126.1675   ZZ=           -110.1129
   XY=             -3.1527   XZ=              2.2093   YZ=             -2.7497

 Summary of Natural Population Analysis:

                                       Natural Population
                Natural  -----------------------------------------------
    Atom  No    Charge         Core      Valence    Rydberg      Total
 -----------------------------------------------------------------------
      C    1   -0.28631      0.99966     2.28222    0.00443     3.28631
      C    2   -0.19575      0.99964     2.18790    0.00821     3.19575
      C    3   -0.08220      0.99959     2.07046    0.01215     3.08220
      N    4   -0.20308      0.99968     2.68867    0.01473     3.70308
      C    5    0.05814      0.99957     1.92679    0.01550     2.94186
      C    6   -0.29788      0.99961     2.29101    0.00726     3.29788
      C    7   -0.28776      0.99961     2.28018    0.00797     3.28776
      C    8   -0.28844      0.99961     2.28157    0.00726     3.28844
      N    9   -0.25911      0.99975     2.74594    0.01342     3.75911
      C   10   -0.08619      0.99963     2.07490    0.01166     3.08619
      C   11   -0.29653      0.99966     2.29190    0.00497     3.29653
      H   12    0.09164      0.00000     0.40748    0.00088     0.40836
      H   13    0.09328      0.00000     0.40566    0.00106     0.40672
      H   14    0.10649      0.00000     0.39213    0.00138     0.39351
      H   15    0.09714      0.00000     0.40138    0.00149     0.40286
      H   16    0.09347      0.00000     0.40550    0.00104     0.40653
      H   17    0.09601      0.00000     0.40209    0.00190     0.40399
      H   18    0.08243      0.00000     0.41578    0.00178     0.41757
      H   19    0.09943      0.00000     0.39931    0.00127     0.40057
      H   20    0.10399      0.00000     0.39458    0.00143     0.39601
      H   21    0.10162      0.00000     0.39719    0.00119     0.39838
      H   22    0.10327      0.00000     0.39535    0.00138     0.39673
      H   23    0.10267      0.00000     0.39617    0.00116     0.39733
      H   24    0.09947      0.00000     0.39880    0.00173     0.40053
      H   25    0.10397      0.00000     0.39474    0.00128     0.39603
      H   26    0.10051      0.00000     0.39810    0.00139     0.39949
      H   27    0.10304      0.00000     0.39580    0.00116     0.39696
      H   28    0.17354      0.00000     0.32291    0.00355     0.32646
      H   29    0.09034      0.00000     0.40854    0.00111     0.40966
      H   30    0.08704      0.00000     0.41124    0.00172     0.41296
      H   31    0.09710      0.00000     0.40161    0.00129     0.40290
      H   32    0.09625      0.00000     0.40285    0.00090     0.40375
      H   33    0.10240      0.00000     0.39612    0.00148     0.39760
 =======================================================================
   * Total *   -0.00000     10.99599    33.86485    0.13916    45.00000

 Normal termination of Gaussian 16 at Tue Dec  8 19:47:05 2020.
