 Gaussian 16, Revision A.03,

 -----------------------------------------------------------
 # opt freq B3LYP/6-31G(d) empiricaldispersion=gd3bj scf=xqc
 -----------------------------------------------------------

 -------------------------------
 CID_83267714_JID_10429_neutraal
 -------------------------------
 Symbolic Z-matrix:
 Charge =  0 Multiplicity = 1

 SCF Done:  E(RB3LYP) =  -1205.91430793     A.U. after   15 cycles
 SCF Done:  E(RB3LYP) =  -1205.92119061     A.U. after   12 cycles
 SCF Done:  E(RB3LYP) =  -1205.91782064     A.U. after   13 cycles
 SCF Done:  E(RB3LYP) =  -1205.92240521     A.U. after   12 cycles
 SCF Done:  E(RB3LYP) =  -1205.92484197     A.U. after   12 cycles
 SCF Done:  E(RB3LYP) =  -1205.92629341     A.U. after   12 cycles
 SCF Done:  E(RB3LYP) =  -1205.92736538     A.U. after   12 cycles
 SCF Done:  E(RB3LYP) =  -1205.92794852     A.U. after   11 cycles
 SCF Done:  E(RB3LYP) =  -1205.92829729     A.U. after   12 cycles
 SCF Done:  E(RB3LYP) =  -1205.92841913     A.U. after   12 cycles
 SCF Done:  E(RB3LYP) =  -1205.93020777     A.U. after    9 cycles
 SCF Done:  E(RB3LYP) =  -1205.93020918     A.U. after    9 cycles
 SCF Done:  E(RB3LYP) =  -1205.93020942     A.U. after    7 cycles
 SCF Done:  E(RB3LYP) =  -1205.93020953     A.U. after    7 cycles
 Optimization completed.
    -- Stationary point found.
 Normal termination of Gaussian 16 at Sat Dec 12 16:09:07 2020.

 --------------------------------------------------------------------
 #N Geom=AllCheck Guess=TCheck SCRF=Check GenChk RB3LYP/6-31G(d) Freq
 --------------------------------------------------------------------

 Structure from the checkpoint file:  "JID_10429.chk"
 -------------------------------
 CID_83267714_JID_10429_neutraal
 -------------------------------
 Charge =  0 Multiplicity = 1

 SCF Done:  E(RB3LYP) =  -1205.93020953     A.U. after    1 cycles

  Exact polarizability: 227.047  11.129 157.711  -5.794  -7.759 167.208
 Approx polarizability: 318.924  23.298 241.162 -11.894 -21.406 279.198

                      1                      2                      3
                      A                      A                      A
 Frequencies --     23.9281                45.7701                60.3092
 Red. masses --      4.2860                 5.5627                 3.5075
 Frc consts  --      0.0014                 0.0069                 0.0075
 IR Inten    --      0.0915                 0.9878                 0.3880

                      4                      5                      6
                      A                      A                      A
 Frequencies --     71.9410                81.3080                99.8319
 Red. masses --      3.7057                 3.2773                 2.9799
 Frc consts  --      0.0113                 0.0128                 0.0175
 IR Inten    --      0.0741                 0.0555                 0.9913

                      7                      8                      9
                      A                      A                      A
 Frequencies --    129.7008               143.7131               167.2607
 Red. masses --      5.1691                 1.7550                 1.6025
 Frc consts  --      0.0512                 0.0214                 0.0264
 IR Inten    --      2.3432                 0.1198                 1.3168

                     10                     11                     12
                      A                      A                      A
 Frequencies --    173.1389               200.9463               222.4199
 Red. masses --      2.8921                 4.1740                 3.5492
 Frc consts  --      0.0511                 0.0993                 0.1034
 IR Inten    --      0.3224                 1.0972                 0.7094

                     13                     14                     15
                      A                      A                      A
 Frequencies --    240.1830               250.1867               260.7683
 Red. masses --      2.5964                 3.2769                 2.2444
 Frc consts  --      0.0882                 0.1208                 0.0899
 IR Inten    --      1.5569                 4.0429                 1.2156

                     16                     17                     18
                      A                      A                      A
 Frequencies --    275.0594               300.3691               322.0488
 Red. masses --      3.7993                 4.1888                 2.6728
 Frc consts  --      0.1694                 0.2227                 0.1633
 IR Inten    --      2.5878                 3.7860                 1.4083

                     19                     20                     21
                      A                      A                      A
 Frequencies --    341.7217               382.9018               417.7418
 Red. masses --      4.1135                 2.5908                 2.8752
 Frc consts  --      0.2830                 0.2238                 0.2956
 IR Inten    --      8.5282                 2.6354                 9.3361

                     22                     23                     24
                      A                      A                      A
 Frequencies --    469.9667               482.7950               539.2620
 Red. masses --      4.3504                 2.8499                 2.7903
 Frc consts  --      0.5661                 0.3914                 0.4781
 IR Inten    --      0.2436                 6.8628                 7.1081

                     25                     26                     27
                      A                      A                      A
 Frequencies --    556.1866               570.8619               600.1450
 Red. masses --      5.8355                 4.2178                 2.8185
 Frc consts  --      1.0636                 0.8098                 0.5981
 IR Inten    --      0.3717                 2.8065                 5.3807

                     28                     29                     30
                      A                      A                      A
 Frequencies --    610.9022               618.2117               668.8654
 Red. masses --      2.9957                 3.8128                 5.2552
 Frc consts  --      0.6587                 0.8586                 1.3852
 IR Inten    --      4.8463                 6.4048                12.2739

                     31                     32                     33
                      A                      A                      A
 Frequencies --    697.9826               741.2717               747.1611
 Red. masses --      1.3190                 3.9328                 4.2554
 Frc consts  --      0.3786                 1.2732                 1.3997
 IR Inten    --      4.6635                 7.6268                24.7520

                     34                     35                     36
                      A                      A                      A
 Frequencies --    758.3402               779.5551               783.7842
 Red. masses --      4.4677                 3.1999                 1.7348
 Frc consts  --      1.5138                 1.1457                 0.6279
 IR Inten    --     26.6716                24.4865                 1.9994

                     37                     38                     39
                      A                      A                      A
 Frequencies --    796.9351               808.0977               843.2916
 Red. masses --      1.0978                 1.3270                 2.0749
 Frc consts  --      0.4108                 0.5106                 0.8694
 IR Inten    --      3.4819                40.2042                10.6560

                     40                     41                     42
                      A                      A                      A
 Frequencies --    859.5440               863.4787               875.8248
 Red. masses --      4.1817                 2.5639                 2.4156
 Frc consts  --      1.8203                 1.1263                 1.0917
 IR Inten    --     10.6893                36.3229                 9.5406

                     43                     44                     45
                      A                      A                      A
 Frequencies --    878.9603               888.9677               915.8039
 Red. masses --      3.1991                 2.5354                 2.5944
 Frc consts  --      1.4562                 1.1805                 1.2820
 IR Inten    --     15.4509                 3.0511                 0.8932

                     46                     47                     48
                      A                      A                      A
 Frequencies --    925.8169               948.5247               954.3343
 Red. masses --      2.0245                 2.0270                 1.3565
 Frc consts  --      1.0224                 1.0745                 0.7279
 IR Inten    --      9.4554                 5.8608                 1.9106

                     49                     50                     51
                      A                      A                      A
 Frequencies --    976.0972               982.5484              1018.3125
 Red. masses --      1.9721                 2.2246                 2.1682
 Frc consts  --      1.1070                 1.2654                 1.3247
 IR Inten    --      9.4632                 4.5203                 7.7306

                     52                     53                     54
                      A                      A                      A
 Frequencies --   1029.9393              1042.4044              1046.5444
 Red. masses --      2.1263                 1.5130                 1.5265
 Frc consts  --      1.3289                 0.9686                 0.9850
 IR Inten    --     21.7791                 7.2855                 4.6165

                     55                     56                     57
                      A                      A                      A
 Frequencies --   1056.8396              1060.2889              1072.9756
 Red. masses --      2.3270                 1.8927                 1.6091
 Frc consts  --      1.5313                 1.2537                 1.0915
 IR Inten    --     10.2873                 5.4307                14.7565

                     58                     59                     60
                      A                      A                      A
 Frequencies --   1076.3677              1091.3281              1097.7821
 Red. masses --      1.4845                 1.4195                 2.7508
 Frc consts  --      1.0133                 0.9961                 1.9532
 IR Inten    --     11.3967                 1.4526                 4.4004

                     61                     62                     63
                      A                      A                      A
 Frequencies --   1137.3003              1146.4626              1175.5636
 Red. masses --      2.9550                 2.6726                 1.9744
 Frc consts  --      2.2520                 2.0697                 1.6076
 IR Inten    --     10.2298                10.2355                26.2537

                     64                     65                     66
                      A                      A                      A
 Frequencies --   1191.2112              1209.6004              1211.6609
 Red. masses --      1.4049                 1.5154                 1.3393
 Frc consts  --      1.1746                 1.3063                 1.1585
 IR Inten    --     10.3308                 1.1302                 0.7086

                     67                     68                     69
                      A                      A                      A
 Frequencies --   1216.1624              1235.5473              1237.7349
 Red. masses --      1.5237                 1.7763                 2.1856
 Frc consts  --      1.3278                 1.5977                 1.9727
 IR Inten    --      5.0149                 6.9951                39.2027

                     70                     71                     72
                      A                      A                      A
 Frequencies --   1259.5941              1278.6993              1317.6516
 Red. masses --      1.4337                 1.2817                 1.3412
 Frc consts  --      1.3402                 1.2347                 1.3719
 IR Inten    --      1.3583                 3.3918                26.7224

                     73                     74                     75
                      A                      A                      A
 Frequencies --   1324.0077              1335.0663              1343.2537
 Red. masses --      1.4052                 1.8108                 1.3436
 Frc consts  --      1.4513                 1.9016                 1.4283
 IR Inten    --     21.5793                91.6882                15.5465

                     76                     77                     78
                      A                      A                      A
 Frequencies --   1357.8506              1363.9048              1368.7155
 Red. masses --      1.3392                 1.5729                 1.4477
 Frc consts  --      1.4548                 1.7239                 1.5979
 IR Inten    --      2.6757                24.7981                 0.6110

                     79                     80                     81
                      A                      A                      A
 Frequencies --   1371.7772              1394.0175              1401.0548
 Red. masses --      2.0195                 1.5004                 1.5050
 Frc consts  --      2.2390                 1.7179                 1.7406
 IR Inten    --      0.2092                 2.5892                19.3229

                     82                     83                     84
                      A                      A                      A
 Frequencies --   1416.3195              1428.7512              1452.8294
 Red. masses --      1.3577                 3.0918                 1.2637
 Frc consts  --      1.6046                 3.7185                 1.5715
 IR Inten    --     55.3251                63.6636                11.8082

                     85                     86                     87
                      A                      A                      A
 Frequencies --   1458.2848              1462.9103              1472.7251
 Red. masses --      1.9326                 1.2655                 1.1377
 Frc consts  --      2.4215                 1.5957                 1.4538
 IR Inten    --     99.5338                 6.7056                 4.9458

                     88                     89                     90
                      A                      A                      A
 Frequencies --   1493.1457              1501.6582              1515.0310
 Red. masses --      1.1259                 3.1478                 1.1566
 Frc consts  --      1.4789                 4.1821                 1.5641
 IR Inten    --     15.3596                 0.8737                 5.3514

                     91                     92                     93
                      A                      A                      A
 Frequencies --   1516.8833              1520.3467              1521.7364
 Red. masses --      1.3959                 1.0998                 1.0868
 Frc consts  --      1.8923                 1.4977                 1.4828
 IR Inten    --      7.2323                12.1827                 3.8774

                     94                     95                     96
                      A                      A                      A
 Frequencies --   1526.8916              1529.4531              1547.4759
 Red. masses --      1.1793                 1.1395                 1.1095
 Frc consts  --      1.6198                 1.5705                 1.5655
 IR Inten    --     18.1267                 7.8967                 3.8415

                     97                     98                     99
                      A                      A                      A
 Frequencies --   1614.1979              1793.3761              3037.6904
 Red. masses --      5.7821                11.2746                 1.0718
 Frc consts  --      8.8767                21.3646                 5.8268
 IR Inten    --      0.5915               234.7308                16.0482

                    100                    101                    102
                      A                      A                      A
 Frequencies --   3038.3775              3040.6198              3054.7331
 Red. masses --      1.0670                 1.0770                 1.0841
 Frc consts  --      5.8034                 5.8666                 5.9604
 IR Inten    --     25.0242                57.1945                 7.6740

                    103                    104                    105
                      A                      A                      A
 Frequencies --   3059.5765              3065.3530              3068.6562
 Red. masses --      1.0383                 1.0602                 1.0691
 Frc consts  --      5.7264                 5.8695                 5.9314
 IR Inten    --     16.5967                35.0000                60.4782

                    106                    107                    108
                      A                      A                      A
 Frequencies --   3080.9682              3093.1584              3099.4592
 Red. masses --      1.0728                 1.1011                 1.0942
 Frc consts  --      5.9998                 6.2068                 6.1934
 IR Inten    --     26.6239                 4.7908                23.3520

                    109                    110                    111
                      A                      A                      A
 Frequencies --   3108.9911              3116.3839              3135.0764
 Red. masses --      1.1019                 1.0986                 1.0980
 Frc consts  --      6.2754                 6.2861                 6.3584
 IR Inten    --     33.4848                34.7516                25.1988

                    112                    113                    114
                      A                      A                      A
 Frequencies --   3143.8242              3148.2742              3150.9918
 Red. masses --      1.0945                 1.1021                 1.0530
 Frc consts  --      6.3737                 6.4359                 6.1600
 IR Inten    --     10.9271                 3.5965                12.3986

                    115                    116                    117
                      A                      A                      A
 Frequencies --   3157.3558              3236.8053              3252.4224
 Red. masses --      1.0540                 1.1205                 1.1180
 Frc consts  --      6.1905                 6.9163                 6.9677
 IR Inten    --      6.4665                 0.3655                 4.9251

                    118                    119                    120
                      A                      A                      A
 Frequencies --   3257.7790              3261.2357              3463.2993
 Red. masses --      1.0931                 1.0941                 1.0747
 Frc consts  --      6.8355                 6.8560                 7.5951
 IR Inten    --      0.9434                 0.8840                 0.4079

 - Thermochemistry -
 -------------------
 Temperature   298.150 Kelvin.  Pressure   1.00000 Atm.
 Atom     1 has atomic number  6 and mass  12.00000

 Molecular mass:   290.14529 amu.
 Principal axes and moments of inertia in atomic units:
                           1         2         3
     Eigenvalues --  3408.970067313.868598623.63109
           X            0.99998   0.00649   0.00105
           Y           -0.00649   0.99998  -0.00279
           Z           -0.00107   0.00278   1.00000
 This molecule is an asymmetric top.
 Rotational symmetry number  1.
 Warning -- assumption of classical behavior for rotation
           may cause significant error
 Rotational temperatures (Kelvin)      0.02541     0.01184     0.01004
 Rotational constants (GHZ):           0.52941     0.24676     0.20928
 Zero-point vibrational energy     949042.0 (Joules/Mol)
                                  226.82648 (Kcal/Mol)
 Warning -- explicit consideration of  29 degrees of freedom as
           vibrations may cause significant error
 Vibrational temperatures:     34.43    65.85    86.77   103.51   116.98
          (Kelvin)            143.64   186.61   206.77   240.65   249.11
                              289.12   320.01   345.57   359.96   375.19
                              395.75   432.16   463.36   491.66   550.91
                              601.04   676.18   694.63   775.88   800.23
                              821.34   863.47   878.95   889.47   962.35
                             1004.24  1066.52  1075.00  1091.08  1121.61
                             1127.69  1146.61  1162.67  1213.31  1236.69
                             1242.35  1260.12  1264.63  1279.03  1317.64
                             1332.04  1364.72  1373.07  1404.39  1413.67
                             1465.12  1481.85  1499.79  1505.74  1520.56
                             1525.52  1543.77  1548.65  1570.18  1579.46
                             1636.32  1649.50  1691.37  1713.89  1740.35
                             1743.31  1749.79  1777.68  1780.82  1812.27
                             1839.76  1895.81  1904.95  1920.86  1932.64
                             1953.64  1962.35  1969.28  1973.68  2005.68
                             2015.81  2037.77  2055.65  2090.30  2098.15
                             2104.80  2118.92  2148.30  2160.55  2179.79
                             2182.46  2187.44  2189.44  2196.86  2200.54
                             2226.47  2322.47  2580.27  4370.56  4371.55
                             4374.77  4395.08  4402.05  4410.36  4415.11
                             4432.83  4450.37  4459.43  4473.14  4483.78
                             4510.68  4523.26  4529.66  4533.57  4542.73
                             4657.04  4679.51  4687.22  4692.19  4982.92

 Zero-point correction=                           0.361471 (Hartree/Particle)
 Thermal correction to Energy=                    0.380130
 Thermal correction to Enthalpy=                  0.381074
 Thermal correction to Gibbs Free Energy=         0.314158
 Sum of electronic and zero-point Energies=          -1205.568739
 Sum of electronic and thermal Energies=             -1205.550080
 Sum of electronic and thermal Enthalpies=           -1205.549135
 Sum of electronic and thermal Free Energies=        -1205.616051

                     E (Thermal)             CV                S
                      KCal/Mol        Cal/Mol-Kelvin    Cal/Mol-Kelvin
 Total                  238.535             73.209            140.836
 Electronic               0.000              0.000              0.000
 Translational            0.889              2.981             42.893
 Rotational               0.889              2.981             33.730
 Vibrational            236.758             67.247             64.213
 Vibration     1          0.593              1.985              6.278
 Vibration     2          0.595              1.979              4.992
 Vibration     3          0.597              1.973              4.447
 Vibration     4          0.598              1.967              4.100
 Vibration     5          0.600              1.962              3.859
 Vibration     6          0.604              1.949              3.458
 Vibration     7          0.612              1.924              2.950
 Vibration     8          0.616              1.909              2.754
 Vibration     9          0.624              1.883              2.466
 Vibration    10          0.627              1.876              2.401
 Vibration    11          0.638              1.839              2.124
 Vibration    12          0.648              1.807              1.939
 Vibration    13          0.657              1.779              1.802
 Vibration    14          0.663              1.762              1.729
 Vibration    15          0.669              1.744              1.657
 Vibration    16          0.677              1.719              1.564
 Vibration    17          0.693              1.673              1.415
 Vibration    18          0.707              1.631              1.300
 Vibration    19          0.721              1.592              1.204
 Vibration    20          0.752              1.507              1.028
 Vibration    21          0.781              1.432              0.900
 Vibration    22          0.827              1.317              0.738
 Vibration    23          0.839              1.288              0.703
 Vibration    24          0.894              1.163              0.567
 Vibration    25          0.912              1.126              0.531
 Vibration    26          0.927              1.094              0.503
 Vibration    27          0.958              1.031              0.449
 Vibration    28          0.970              1.009              0.431
 Vibration    29          0.978              0.993              0.419

 Optimization completed.
    -- Stationary point found.
 Normal termination of Gaussian 16 at Sat Dec 12 16:37:36 2020.

 ----------------------------------------------------------------------
 # B3LYP/6-311++G(d,p) empiricaldispersion=gd3bj scf=xqc pop=npa geom=c
 heck
 ----------------------------------------------------------------------

 ---------------------------------------
 CID_83267714_JID_10429_Energie_neutraal
 ---------------------------------------
 Structure from the checkpoint file:  "JID_10429.chk"
 Charge =  0 Multiplicity = 1

 SCF Done:  E(RB3LYP) =  -1206.17301884     A.U. after   16 cycles
 Normal termination of Gaussian 16 at Sat Dec 12 16:49:53 2020.

 ----------------------------------------------------------------------
 # B3LYP/6-311++G(d,p) empiricaldispersion=gd3bj scf=xqc pop=npa geom=c
 heck
 ----------------------------------------------------------------------

 -------------------------------------
 CID_83267714_JID_10429_Energie_kation
 -------------------------------------
 Structure from the checkpoint file:  "JID_10429.chk"
 Charge =  1 Multiplicity = 2

 SCF Done:  E(UB3LYP) =  -1205.87851683     A.U. after   33 cycles
 SCF Done:  E(UB3LYP) =  -1205.87851683     a.u. after    2 cycles
 Normal termination of Gaussian 16 at Sat Dec 12 17:49:52 2020.
 Gaussian 16:  ES64L-G16RevA.03 25-Dec-2016

 ----------------------------------------------------------------------
 # B3LYP/6-311++G(d,p) empiricaldispersion=gd3bj scf=xqc pop=npa geom=c
 heck
 ----------------------------------------------------------------------

 ------------------------------------
 CID_83267714_JID_10429_Energie_anion
 ------------------------------------
 Structure from the checkpoint file:  "JID_10429.chk"
 Charge = -1 Multiplicity = 2

                         Standard orientation:
 ---------------------------------------------------------------------
 Center     Atomic      Atomic             Coordinates (Angstroms)
 Number     Number       Type             X           Y           Z
 ---------------------------------------------------------------------
      1          6           0        0.861625   -1.692468    1.815222
      2          6           0        1.866803   -1.255201    0.785753
      3          6           0        3.172236   -0.963887    1.080321
      4         16           0        4.092537   -0.497556   -0.316059
      5          6           0        2.701073   -0.698401   -1.327179
      6          6           0        1.593383   -1.088002   -0.622503
      7          6           0        0.270246   -1.357457   -1.295281
      8          7           0       -0.885877   -0.614236   -0.807135
      9          6           0       -1.298588    0.737416   -1.252186
     10          7           0       -2.774268    0.742705   -1.096997
     11          6           0       -3.060092   -0.310591   -0.138359
     12          6           0       -1.911342   -1.271941   -0.172023
     13          8           0       -1.883380   -2.414627    0.268998
     14          6           0       -4.454547   -0.792145    0.116620
     15          6           0       -3.731143   -0.020662    1.187368
     16          6           0       -0.685751    1.922068   -0.485490
     17          6           0       -0.692552    1.801860    1.066459
     18          6           0        0.714771    2.247525    1.533331
     19          6           0        1.277999    3.059758    0.355595
     20          6           0        0.764901    2.286683   -0.866194
     21          1           0        0.217365   -0.859364    2.118793
     22          1           0        0.199035   -2.472446    1.431287
     23          1           0        1.365398   -2.064654    2.712353
     24          1           0        3.650204   -1.011871    2.049754
     25          1           0        2.767756   -0.503300   -2.389434
     26          1           0        0.375404   -1.169382   -2.371453
     27          1           0        0.001281   -2.411848   -1.165486
     28          1           0       -1.047274    0.847383   -2.315075
     29          1           0       -3.181160    0.456787   -1.987198
     30          1           0       -5.253855   -0.288622   -0.420088
     31          1           0       -4.574907   -1.863363    0.248547
     32          1           0       -3.371091   -0.563787    2.056114
     33          1           0       -4.016378    1.012774    1.355030
     34          1           0       -1.324296    2.766934   -0.767704
     35          1           0       -1.473857    2.440788    1.489385
     36          1           0       -0.913001    0.782863    1.390915
     37          1           0        1.349389    1.368955    1.694736
     38          1           0        0.689633    2.810777    2.472044
     39          1           0        2.369210    3.148178    0.378719
     40          1           0        0.860774    4.076012    0.361247
     41          1           0        1.370442    1.387440   -0.998533
     42          1           0        0.813266    2.861047   -1.798781
 ---------------------------------------------------------------------

 SCF Done:  E(UB3LYP) =  -1206.16204501     A.U. after   33 cycles
 SCF Done:  E(UB3LYP) =  -1206.16204501     a.u. after    1 cycles

 The electronic state is 2-A.
 Alpha  occ. eigenvalues --  -88.78156 -18.99535 -14.24499 -14.21164 -10.17068
 Alpha  occ. eigenvalues --  -10.13960 -10.12120 -10.11648 -10.09987 -10.09908
 Alpha  occ. eigenvalues --  -10.09140 -10.08853 -10.08752 -10.08707 -10.07350
 Alpha  occ. eigenvalues --  -10.07020 -10.06692 -10.06658 -10.06511 -10.05784
 Alpha  occ. eigenvalues --   -7.86777  -5.83058  -5.82701  -5.82388  -0.94754
 Alpha  occ. eigenvalues --   -0.87594  -0.80891  -0.78799  -0.75053  -0.73530
 Alpha  occ. eigenvalues --   -0.67766  -0.66628  -0.63995  -0.61107  -0.60046
 Alpha  occ. eigenvalues --   -0.57985  -0.56608  -0.52169  -0.50736  -0.48248
 Alpha  occ. eigenvalues --   -0.47583  -0.46783  -0.45173  -0.43707  -0.41524
 Alpha  occ. eigenvalues --   -0.40385  -0.39848  -0.38711  -0.38023  -0.37434
 Alpha  occ. eigenvalues --   -0.34986  -0.34531  -0.33709  -0.33266  -0.32166
 Alpha  occ. eigenvalues --   -0.31775  -0.31606  -0.30949  -0.30602  -0.29577
 Alpha  occ. eigenvalues --   -0.28358  -0.27871  -0.26910  -0.26827  -0.25246
 Alpha  occ. eigenvalues --   -0.25098  -0.24381  -0.23967  -0.23239  -0.22782
 Alpha  occ. eigenvalues --   -0.22224  -0.21845  -0.21482  -0.18234  -0.15642
 Alpha  occ. eigenvalues --   -0.14941  -0.14272  -0.13837   0.04375
 Alpha virt. eigenvalues --    0.06474   0.06614   0.07096   0.07138   0.08067
 Alpha virt. eigenvalues --    0.08352   0.08963   0.09280   0.09762   0.09914
 Alpha virt. eigenvalues --    0.10334   0.10840   0.10973   0.11615   0.11879

  Beta  occ. eigenvalues --  -88.78147 -18.99499 -14.24509 -14.21132 -10.17043
  Beta  occ. eigenvalues --  -10.13936 -10.12122 -10.11627 -10.09940 -10.09837
  Beta  occ. eigenvalues --  -10.09135 -10.08840 -10.08747 -10.08696 -10.07348
  Beta  occ. eigenvalues --  -10.07015 -10.06689 -10.06651 -10.06505 -10.05773
  Beta  occ. eigenvalues --   -7.86768  -5.83054  -5.82696  -5.82358  -0.94701
  Beta  occ. eigenvalues --   -0.87559  -0.80865  -0.78742  -0.75024  -0.73508
  Beta  occ. eigenvalues --   -0.67721  -0.66571  -0.63963  -0.61086  -0.59967
  Beta  occ. eigenvalues --   -0.57937  -0.56571  -0.52141  -0.50693  -0.48167
  Beta  occ. eigenvalues --   -0.47530  -0.46756  -0.45142  -0.43661  -0.41468
  Beta  occ. eigenvalues --   -0.40357  -0.39791  -0.38680  -0.37992  -0.37391
  Beta  occ. eigenvalues --   -0.34942  -0.34484  -0.33663  -0.33241  -0.32125
  Beta  occ. eigenvalues --   -0.31722  -0.31573  -0.30912  -0.30540  -0.29539
  Beta  occ. eigenvalues --   -0.28341  -0.27798  -0.26841  -0.26751  -0.25204
  Beta  occ. eigenvalues --   -0.25060  -0.24363  -0.23946  -0.23216  -0.22756
  Beta  occ. eigenvalues --   -0.22202  -0.21809  -0.21446  -0.18185  -0.15585
  Beta  occ. eigenvalues --   -0.14821  -0.13992  -0.13800
  Beta virt. eigenvalues --    0.06331   0.07045   0.07098   0.07409   0.07784
  Beta virt. eigenvalues --    0.08371   0.08780   0.09214   0.09386   0.09999
  Beta virt. eigenvalues --    0.10110   0.10551   0.11008   0.11151   0.11902

 Mulliken charges and spin densities:
               1          2
     1  C   -0.515414  -0.256940
     2  C   -0.830420   0.325542
     3  C   -0.556610   0.523108
     4  S    0.263170  -0.403899
     5  C    1.345972  -0.944306
     6  C   -0.596679   1.571519
     7  C    0.588301  -2.071295
     8  N    0.201020   0.067122
     9  C    0.689678  -0.971670
    10  N   -0.135258   0.153851
    11  C   -0.245246   0.481773
    12  C   -0.224385  -0.322022
    13  O   -0.309292   0.013930
    14  C    0.703696  -0.891765
    15  C   -0.297285  -0.008394
    16  C   -0.375309   0.425958
    17  C   -0.071785  -0.101710
    18  C   -0.300212  -0.064200
    19  C   -0.380407  -0.180507
    20  C    0.218283  -0.578309
    21  H    0.267872  -0.090724
    22  H    0.175132   0.011495
    23  H    0.049838   0.096746
    24  H    0.175299   0.064592
    25  H   -0.580249   0.866192
    26  H   -0.407707   0.573088
    27  H    0.135983   0.086817
    28  H   -0.809785   1.066944
    29  H   -0.297788   0.583028
    30  H   -0.105700   0.268724
    31  H    0.151319   0.023035
    32  H    0.108710   0.056680
    33  H    0.167099  -0.007032
    34  H    0.024461   0.238623
    35  H    0.053462   0.123846
    36  H   -0.086291   0.127406
    37  H    0.186528  -0.056773
    38  H    0.073569   0.092977
    39  H   -0.048284   0.201121
    40  H    0.028086   0.088747
    41  H    0.837879  -0.631921
    42  H   -0.271254   0.448600
 Sum of Mulliken charges =  -1.00000   1.00000

 Dipole moment (field-independent basis, Debye):
    X=              2.6372    Y=             -0.7693    Z=              8.1462  Tot=              8.5969
 Quadrupole moment (field-independent basis, Debye-Ang):
   XX=           -184.9892   YY=           -175.6914   ZZ=           -180.9626
   XY=              0.1643   XZ=             -4.5014   YZ=              3.9524

 Summary of Natural Population Analysis:

                                       Natural Population
                Natural  -----------------------------------------------
    Atom  No    Charge         Core      Valence    Rydberg      Total
 -----------------------------------------------------------------------
      C    1   -0.29708      0.99962     2.29241    0.00506     3.29708
      C    2   -0.03600      0.99944     2.02638    0.01019     3.03600
      C    3   -0.18794      0.99945     2.17888    0.00961     3.18794
      S    4    0.19843      4.99945     2.78042    0.02170     7.80157
      C    5   -0.17892      0.99945     2.16702    0.01244     3.17892
      C    6   -0.04671      0.99941     2.03572    0.01157     3.04671
      C    7   -0.09147      0.99955     2.07886    0.01306     3.09147
      N    8   -0.26658      0.99961     2.75086    0.01611     3.76658
      C    9    0.10167      0.99955     1.88163    0.01715     2.89833
      N   10   -0.33120      0.99972     2.81870    0.01278     3.83120
      C   11    0.00841      0.99949     1.97706    0.01505     2.99159
      C   12    0.35233      0.99953     1.62404    0.02410     2.64767
      O   13   -0.32764      0.99988     3.32302    0.00474     4.32764
      C   14   -0.19072      0.99959     2.18220    0.00893     3.19072
      C   15   -0.18722      0.99959     2.18062    0.00701     3.18722
      C   16   -0.11736      0.99956     2.10499    0.01280     3.11736
      C   17   -0.19164      0.99962     2.18451    0.00751     3.19164
      C   18   -0.19455      0.99964     2.18756    0.00736     3.19455
      C   19   -0.18793      0.99964     2.18071    0.00758     3.18793
      C   20   -0.19476      0.99960     2.18668    0.00848     3.19476
      H   21    0.10428      0.00000     0.39471    0.00101     0.39572
      H   22    0.11994      0.00000     0.37902    0.00104     0.38006
      H   23    0.09861      0.00000     0.40062    0.00077     0.40139
      H   24    0.10531      0.00000     0.39381    0.00088     0.39469
      H   25    0.11378      0.00000     0.38459    0.00162     0.38622
      H   26    0.10636      0.00000     0.39149    0.00215     0.39364
      H   27    0.11557      0.00000     0.38299    0.00144     0.38443
      H   28    0.10178      0.00000     0.39213    0.00609     0.39822
      H   29    0.18269      0.00000     0.31115    0.00617     0.31731
      H   30    0.10705      0.00000     0.39205    0.00090     0.39295
      H   31    0.11167      0.00000     0.38744    0.00089     0.38833
      H   32    0.10430      0.00000     0.39478    0.00092     0.39570
      H   33    0.10709      0.00000     0.39181    0.00110     0.39291
      H   34    0.10566      0.00000     0.39251    0.00183     0.39434
      H   35    0.09796      0.00000     0.40107    0.00097     0.40204
      H   36    0.09847      0.00000     0.39956    0.00197     0.40153
      H   37    0.09920      0.00000     0.39906    0.00174     0.40080
      H   38    0.09442      0.00000     0.40478    0.00080     0.40558
      H   39    0.09826      0.00000     0.40075    0.00099     0.40174
      H   40    0.09138      0.00000     0.40758    0.00104     0.40862
      H   41    0.10220      0.00000     0.39411    0.00369     0.39780
      H   42    0.10091      0.00000     0.39776    0.00132     0.39909
 =======================================================================
   * Total *   -0.00000     23.99138    53.73605    0.27257    78.00000

 Normal termination of Gaussian 16 at Sat Dec 12 18:22:13 2020.
