 Gaussian 16, Revision A.03,

 -----------------------------------------------------------
 # opt freq B3LYP/6-31G(d) empiricaldispersion=gd3bj scf=xqc
 -----------------------------------------------------------

 -------------------------------
 CID_116995943_JID_4917_neutraal
 -------------------------------
 Symbolic Z-matrix:
 Charge =  0 Multiplicity = 1

 SCF Done:  E(RB3LYP) =  -1008.34135929     A.U. after   15 cycles
 SCF Done:  E(RB3LYP) =  -1008.34645026     A.U. after   13 cycles
 SCF Done:  E(RB3LYP) =  -1008.34809966     A.U. after   13 cycles
 SCF Done:  E(RB3LYP) =  -1008.34879854     A.U. after   13 cycles
 SCF Done:  E(RB3LYP) =  -1008.34915250     A.U. after   12 cycles
 SCF Done:  E(RB3LYP) =  -1008.34919638     A.U. after   11 cycles
 SCF Done:  E(RB3LYP) =  -1008.34923354     A.U. after   10 cycles
 SCF Done:  E(RB3LYP) =  -1008.34924917     A.U. after   11 cycles
 SCF Done:  E(RB3LYP) =  -1008.34925567     A.U. after   10 cycles
 SCF Done:  E(RB3LYP) =  -1008.34925870     A.U. after    9 cycles
 SCF Done:  E(RB3LYP) =  -1008.34925944     A.U. after    8 cycles
 SCF Done:  E(RB3LYP) =  -1008.34925962     A.U. after    8 cycles
 SCF Done:  E(RB3LYP) =  -1008.34925968     A.U. after    8 cycles
 Optimization completed.
    -- Stationary point found.
 Normal termination of Gaussian 16 at Thu Dec 10 10:52:32 2020.

 --------------------------------------------------------------------
 #N Geom=AllCheck Guess=TCheck SCRF=Check GenChk RB3LYP/6-31G(d) Freq
 --------------------------------------------------------------------

 Structure from the checkpoint file:  "JID_4917.chk"
 -------------------------------
 CID_116995943_JID_4917_neutraal
 -------------------------------
 Charge =  0 Multiplicity = 1

 SCF Done:  E(RB3LYP) =  -1008.34925968     A.U. after    1 cycles

  Exact polarizability: 172.537  -2.305 110.328   0.005  -0.006  92.070
 Approx polarizability: 212.421   4.660 199.693   0.000  -0.037 133.112

                      1                      2                      3
                      A                      A                      A
 Frequencies --     35.4480                44.7475                48.6028
 Red. masses --      4.6591                 8.8413                 3.4778
 Frc consts  --      0.0034                 0.0104                 0.0048
 IR Inten    --      0.7930                 2.2188                 2.0811

                      4                      5                      6
                      A                      A                      A
 Frequencies --     92.6372               105.3024               139.7211
 Red. masses --      5.7664                 5.0835                 1.0916
 Frc consts  --      0.0292                 0.0332                 0.0126
 IR Inten    --      5.2666                 4.5078                 0.0918

                      7                      8                      9
                      A                      A                      A
 Frequencies --    178.0076               180.4977               210.6277
 Red. masses --      3.4193                 2.1037                 3.9084
 Frc consts  --      0.0638                 0.0404                 0.1022
 IR Inten    --      2.5046                 0.7875                 0.8460

                     10                     11                     12
                      A                      A                      A
 Frequencies --    219.6816               314.7183               375.5813
 Red. masses --      5.6110                 4.5659                 3.8055
 Frc consts  --      0.1595                 0.2665                 0.3163
 IR Inten    --      0.0008                 2.2258                 1.1783

                     13                     14                     15
                      A                      A                      A
 Frequencies --    389.0412               424.4030               435.4336
 Red. masses --      6.5615                 3.8411                 2.1570
 Frc consts  --      0.5851                 0.4076                 0.2410
 IR Inten    --      2.0786                 4.6867                 4.9568

                     16                     17                     18
                      A                      A                      A
 Frequencies --    488.7282               502.8879               515.9980
 Red. masses --      3.5593                 3.5365                 5.7792
 Frc consts  --      0.5009                 0.5270                 0.9066
 IR Inten    --      2.4250                 5.6820                 0.9457

                     19                     20                     21
                      A                      A                      A
 Frequencies --    667.6588               684.6446               707.5158
 Red. masses --      4.1460                12.7515                 6.4586
 Frc consts  --      1.0889                 3.5216                 1.9049
 IR Inten    --      2.9039                 1.2962                 3.7646

                     22                     23                     24
                      A                      A                      A
 Frequencies --    741.7466               749.9019               774.2082
 Red. masses --      9.0504                 3.4393                 1.5897
 Frc consts  --      2.9338                 1.1396                 0.5614
 IR Inten    --      4.7776                 3.9422                 2.4881

                     25                     26                     27
                      A                      A                      A
 Frequencies --    812.7812               875.5793               930.0582
 Red. masses --      2.4534                 2.7803                 1.3749
 Frc consts  --      0.9549                 1.2559                 0.7007
 IR Inten    --      4.6234                 7.0361                 0.3260

                     28                     29                     30
                      A                      A                      A
 Frequencies --    960.0913               972.4465               981.8848
 Red. masses --      2.2202                 8.2624                 8.4117
 Frc consts  --      1.2058                 4.6035                 4.7781
 IR Inten    --     11.5168                10.6820                 4.1106

                     31                     32                     33
                      A                      A                      A
 Frequencies --    995.2197              1005.8624              1016.3409
 Red. masses --      2.6147                 1.1810                 1.7172
 Frc consts  --      1.5258                 0.7040                 1.0451
 IR Inten    --     19.0028                 4.0851                10.2565

                     34                     35                     36
                      A                      A                      A
 Frequencies --   1027.7081              1039.7980              1076.4710
 Red. masses --      2.0646                 3.8573                 1.6398
 Frc consts  --      1.2848                 2.4572                 1.1195
 IR Inten    --      1.7063                 3.5984                 2.2269

                     37                     38                     39
                      A                      A                      A
 Frequencies --   1123.0927              1132.0740              1189.1553
 Red. masses --      1.6184                 2.4420                 2.2387
 Frc consts  --      1.2028                 1.8439                 1.8652
 IR Inten    --      0.3859                 0.0627                42.2243

                     40                     41                     42
                      A                      A                      A
 Frequencies --   1193.2812              1231.2351              1276.4611
 Red. masses --      8.0188                 1.3140                 1.5105
 Frc consts  --      6.7274                 1.1737                 1.4501
 IR Inten    --    146.7675                 0.4444                 8.7892

                     43                     44                     45
                      A                      A                      A
 Frequencies --   1289.8877              1323.9798              1327.4024
 Red. masses --      1.4115                 1.4570                 1.3489
 Frc consts  --      1.3836                 1.5047                 1.4003
 IR Inten    --      0.5725                12.2005                 0.7972

                     46                     47                     48
                      A                      A                      A
 Frequencies --   1352.1684              1367.1102              1368.6766
 Red. masses --      4.1249                 1.4437                 1.3655
 Frc consts  --      4.4435                 1.5897                 1.5071
 IR Inten    --      9.5234                11.9982                 0.4716

                     49                     50                     51
                      A                      A                      A
 Frequencies --   1387.5316              1391.3747              1413.7592
 Red. masses --      1.4632                 1.1654                 1.5399
 Frc consts  --      1.6598                 1.3293                 1.8134
 IR Inten    --      3.4978                 4.3493                 2.2302

                     52                     53                     54
                      A                      A                      A
 Frequencies --   1487.7561              1491.1900              1501.6080
 Red. masses --      1.0506                 1.0936                 1.0919
 Frc consts  --      1.3702                 1.4327                 1.4507
 IR Inten    --      9.3890                 6.2332                 9.2566

                     55                     56                     57
                      A                      A                      A
 Frequencies --   1502.1625              1520.8644              1528.1747
 Red. masses --      1.1307                 1.0877                 6.1556
 Frc consts  --      1.5033                 1.4823                 8.4697
 IR Inten    --      3.7127                 3.3665               149.0510

                     58                     59                     60
                      A                      A                      A
 Frequencies --   1534.7668              1638.7866              1826.1667
 Red. masses --      1.0882                 9.7754                11.0214
 Frc consts  --      1.5102                15.4678                21.6556
 IR Inten    --      4.6771                39.6718               202.4307

                     61                     62                     63
                      A                      A                      A
 Frequencies --   3025.3996              3032.2740              3055.0842
 Red. masses --      1.0690                 1.0695                 1.0692
 Frc consts  --      5.7650                 5.7939                 5.8800
 IR Inten    --      1.1215                20.3183                 7.0150

                     64                     65                     66
                      A                      A                      A
 Frequencies --   3056.4888              3068.4871              3088.5927
 Red. masses --      1.0606                 1.0754                 1.0286
 Frc consts  --      5.8379                 5.9659                 5.7814
 IR Inten    --     14.5101                18.9900                12.5559

                     67                     68                     69
                      A                      A                      A
 Frequencies --   3101.2873              3105.9300              3126.7982
 Red. masses --      1.1038                 1.1034                 1.0943
 Frc consts  --      6.2548                 6.2712                 6.3037
 IR Inten    --     21.2386                24.0836                15.2350

                     70                     71                     72
                      A                      A                      A
 Frequencies --   3128.0854              3184.0231              3189.0920
 Red. masses --      1.0952                 1.1065                 1.1087
 Frc consts  --      6.3142                 6.6093                 6.6432
 IR Inten    --     14.2292                 2.7551                 1.5498

 - Thermochemistry -
 -------------------
 Temperature   298.150 Kelvin.  Pressure   1.00000 Atm.
 Atom     1 has atomic number  6 and mass  12.00000

 Molecular mass:   212.06195 amu.
 Principal axes and moments of inertia in atomic units:
                           1         2         3
     Eigenvalues --  1010.969277155.637077413.68911
           X            0.99999  -0.00425   0.00001
           Y            0.00425   0.99999   0.00024
           Z           -0.00001  -0.00024   1.00000
 This molecule is an asymmetric top.
 Rotational symmetry number  1.
 Warning -- assumption of classical behavior for rotation
           may cause significant error
 Rotational temperatures (Kelvin)      0.08567     0.01210     0.01168
 Rotational constants (GHZ):           1.78516     0.25221     0.24343
 Zero-point vibrational energy     545988.7 (Joules/Mol)
                                  130.49444 (Kcal/Mol)
 Warning -- explicit consideration of  18 degrees of freedom as
           vibrations may cause significant error
 Vibrational temperatures:     51.00    64.38    69.93   133.28   151.51
          (Kelvin)            201.03   256.11   259.70   303.05   316.07
                              452.81   540.38   559.74   610.62   626.49
                              703.17   723.54   742.41   960.61   985.05
                             1017.96  1067.21  1078.94  1113.91  1169.41
                             1259.76  1338.15  1381.36  1399.13  1412.71
                             1431.90  1447.21  1462.29  1478.64  1496.04
                             1548.80  1615.88  1628.80  1710.93  1716.87
                             1771.47  1836.54  1855.86  1904.91  1909.84
                             1945.47  1966.97  1969.22  1996.35  2001.88
                             2034.08  2140.55  2145.49  2160.48  2161.28
                             2188.18  2198.70  2208.19  2357.85  2627.45
                             4352.88  4362.77  4395.58  4397.61  4414.87
                             4443.80  4462.06  4468.74  4498.77  4500.62
                             4581.10  4588.39

 Zero-point correction=                           0.207956 (Hartree/Particle)
 Thermal correction to Energy=                    0.221384
 Thermal correction to Enthalpy=                  0.222328
 Thermal correction to Gibbs Free Energy=         0.165890
 Sum of electronic and zero-point Energies=          -1008.141304
 Sum of electronic and thermal Energies=             -1008.127876
 Sum of electronic and thermal Enthalpies=           -1008.126932
 Sum of electronic and thermal Free Energies=        -1008.183369

                     E (Thermal)             CV                S
                      KCal/Mol        Cal/Mol-Kelvin    Cal/Mol-Kelvin
 Total                  138.920             48.955            118.783
 Electronic               0.000              0.000              0.000
 Translational            0.889              2.981             41.959
 Rotational               0.889              2.981             32.350
 Vibrational            137.143             42.993             44.474
 Vibration     1          0.594              1.982              5.499
 Vibration     2          0.595              1.980              5.037
 Vibration     3          0.595              1.978              4.873
 Vibration     4          0.602              1.954              3.604
 Vibration     5          0.605              1.945              3.354
 Vibration     6          0.615              1.914              2.808
 Vibration     7          0.628              1.869              2.349
 Vibration     8          0.629              1.866              2.323
 Vibration     9          0.643              1.825              2.038
 Vibration    10          0.647              1.811              1.962
 Vibration    11          0.702              1.646              1.337
 Vibration    12          0.746              1.522              1.057
 Vibration    13          0.757              1.494              1.004
 Vibration    14          0.786              1.417              0.877
 Vibration    15          0.796              1.393              0.841
 Vibration    16          0.845              1.275              0.687
 Vibration    17          0.858              1.244              0.651
 Vibration    18          0.871              1.215              0.619

                           ! Non-Optimized Parameters !
 Normal termination of Gaussian 16 at Thu Dec 10 10:59:52 2020.

 ----------------------------------------------------------------------
 # B3LYP/6-311++G(d,p) empiricaldispersion=gd3bj scf=xqc pop=npa geom=c
 heck
 ----------------------------------------------------------------------

 ---------------------------------------
 CID_116995943_JID_4917_Energie_neutraal
 ---------------------------------------
 Structure from the checkpoint file:  "JID_4917.chk"
 Charge =  0 Multiplicity = 1

 SCF Done:  E(RB3LYP) =  -1008.54432911     A.U. after   14 cycles
 Normal termination of Gaussian 16 at Thu Dec 10 11:02:46 2020.

 ----------------------------------------------------------------------
 # B3LYP/6-311++G(d,p) empiricaldispersion=gd3bj scf=xqc pop=npa geom=c
 heck
 ----------------------------------------------------------------------

 -------------------------------------
 CID_116995943_JID_4917_Energie_kation
 -------------------------------------
 Structure from the checkpoint file:  "JID_4917.chk"
 Charge =  1 Multiplicity = 2

 SCF Done:  E(UB3LYP) =  -1008.23294071     A.U. after   30 cycles
 Normal termination of Gaussian 16 at Thu Dec 10 11:10:44 2020.
 Gaussian 16:  ES64L-G16RevA.03 25-Dec-2016

 ----------------------------------------------------------------------
 # B3LYP/6-311++G(d,p) empiricaldispersion=gd3bj scf=xqc pop=npa geom=c
 heck
 ----------------------------------------------------------------------

 ------------------------------------
 CID_116995943_JID_4917_Energie_anion
 ------------------------------------
 Structure from the checkpoint file:  "JID_4917.chk"
 Charge = -1 Multiplicity = 2

                         Standard orientation:
 ---------------------------------------------------------------------
 Center     Atomic      Atomic             Coordinates (Angstroms)
 Number     Number       Type             X           Y           Z
 ---------------------------------------------------------------------
      1          6           0        4.973799   -0.156626    0.000769
      2         16           0        3.501583   -1.242995    0.000611
      3          6           0        2.284818    0.008964   -0.000158
      4          7           0        2.420829    1.299247   -0.000845
      5          7           0        1.112285    1.819293   -0.001222
      6          6           0        0.306390    0.809352   -0.000752
      7          8           0        0.980563   -0.391986   -0.000048
      8          6           0       -1.181544    0.790548   -0.000762
      9          6           0       -1.737384    0.108417    1.267402
     10          6           0       -3.276318    0.126914    1.282580
     11          6           0       -3.861095   -0.448754    0.000442
     12          8           0       -4.728452   -1.299678    0.001313
     13          6           0       -3.276252    0.124237   -1.282863
     14          6           0       -1.737319    0.105749   -1.267535
     15          1           0        5.838018   -0.824041    0.001111
     16          1           0        4.978891    0.470940    0.892778
     17          1           0        4.979298    0.470580   -0.891488
     18          1           0       -1.485807    1.844504   -0.001875
     19          1           0       -1.348296    0.606783    2.161765
     20          1           0       -1.380663   -0.928510    1.297980
     21          1           0       -3.620998    1.168238    1.370301
     22          1           0       -3.677730   -0.430874    2.132621
     23          1           0       -3.677617   -0.435322   -2.131762
     24          1           0       -3.620917    1.165378   -1.372779
     25          1           0       -1.348153    0.602212   -2.162921
     26          1           0       -1.380614   -0.931244   -1.295891
 ---------------------------------------------------------------------

 SCF Done:  E(UB3LYP) =  -1008.54026194     A.U. after   30 cycles

 The electronic state is 2-A.
 Alpha  occ. eigenvalues --  -88.78557 -19.12426 -18.98992 -14.24818 -14.24528
 Alpha  occ. eigenvalues --  -10.20010 -10.17810 -10.13132 -10.11189 -10.10680
 Alpha  occ. eigenvalues --  -10.08734 -10.08733 -10.07452 -10.07451  -7.87139
 Alpha  occ. eigenvalues --   -5.83554  -5.83134  -5.82526  -1.07187  -0.92569
 Alpha  occ. eigenvalues --   -0.89041  -0.78265  -0.74202  -0.69942  -0.66165
 Alpha  occ. eigenvalues --   -0.64276  -0.60101  -0.54861  -0.53547  -0.51896
 Alpha  occ. eigenvalues --   -0.48850  -0.43463  -0.42293  -0.41059  -0.38073
 Alpha  occ. eigenvalues --   -0.36271  -0.35764  -0.35456  -0.34638  -0.34215
 Alpha  occ. eigenvalues --   -0.32703  -0.31802  -0.31055  -0.29812  -0.27384
 Alpha  occ. eigenvalues --   -0.27039  -0.26681  -0.25605  -0.24975  -0.24920
 Alpha  occ. eigenvalues --   -0.23857  -0.22743  -0.21521  -0.19600  -0.14678
 Alpha  occ. eigenvalues --   -0.13467   0.03888
 Alpha virt. eigenvalues --    0.04990   0.07715   0.07950   0.08088   0.08482
 Alpha virt. eigenvalues --    0.08894   0.09703   0.09904   0.10572   0.10761
 Alpha virt. eigenvalues --    0.11136   0.11633   0.11873   0.11937   0.13142

  Beta  occ. eigenvalues --  -88.78545 -19.12422 -18.98760 -14.24811 -14.24518
  Beta  occ. eigenvalues --  -10.20002 -10.17811 -10.12905 -10.11111 -10.10667
  Beta  occ. eigenvalues --  -10.08708 -10.08707 -10.07459 -10.07457  -7.87127
  Beta  occ. eigenvalues --   -5.83525  -5.83118  -5.82520  -1.07176  -0.92120
  Beta  occ. eigenvalues --   -0.89029  -0.78232  -0.74122  -0.69856  -0.66111
  Beta  occ. eigenvalues --   -0.64111  -0.60008  -0.54758  -0.53488  -0.51818
  Beta  occ. eigenvalues --   -0.48776  -0.43187  -0.42239  -0.41041  -0.37999
  Beta  occ. eigenvalues --   -0.36193  -0.35703  -0.35255  -0.34569  -0.33891
  Beta  occ. eigenvalues --   -0.32606  -0.31675  -0.30808  -0.29789  -0.27189
  Beta  occ. eigenvalues --   -0.26871  -0.26627  -0.25583  -0.24860  -0.24796
  Beta  occ. eigenvalues --   -0.23228  -0.22520  -0.21484  -0.19579  -0.14649
  Beta  occ. eigenvalues --   -0.13279
  Beta virt. eigenvalues --    0.06299   0.06753   0.07736   0.08266   0.08302
  Beta virt. eigenvalues --    0.09258   0.09562   0.10125   0.10572   0.10962
  Beta virt. eigenvalues --    0.11304   0.11336   0.11704   0.11999   0.12040

 Mulliken charges and spin densities:
               1          2
     1  C    0.658566  -1.315731
     2  S   -0.502922   0.121018
     3  C    0.585359  -0.242785
     4  N   -0.155079   0.107744
     5  N    0.086374  -0.075349
     6  C   -0.255929   0.269321
     7  O    0.104581   0.009501
     8  C   -0.289273   0.171492
     9  C   -0.018563  -0.232362
    10  C    0.159476  -0.545635
    11  C   -0.268812   0.356121
    12  O   -0.353019   0.088458
    13  C    0.159973  -0.546139
    14  C   -0.018790  -0.232201
    15  H   -0.721761   0.900807
    16  H   -0.083969   0.287349
    17  H   -0.083884   0.287252
    18  H    0.014791   0.223154
    19  H   -0.051677   0.231274
    20  H    0.140703   0.005234
    21  H   -0.270014   0.438213
    22  H    0.172511   0.009155
    23  H    0.172521   0.009142
    24  H   -0.270133   0.438341
    25  H   -0.051856   0.231469
    26  H    0.140827   0.005157
 Sum of Mulliken charges =  -1.00000   1.00000

 Dipole moment (field-independent basis, Debye):
    X=             -0.7000    Y=             -1.5206    Z=              0.0009  Tot=              1.6740
 Quadrupole moment (field-independent basis, Debye-Ang):
   XX=           -212.3313   YY=           -125.4932   ZZ=           -109.9208
   XY=             -0.7233   XZ=             -0.0058   YZ=              0.0133

 Summary of Natural Population Analysis:

                                       Natural Population
                Natural  -----------------------------------------------
    Atom  No    Charge         Core      Valence    Rydberg      Total
 -----------------------------------------------------------------------
      C    1   -0.33997      0.99962     2.33365    0.00671     3.33997
      S    2    0.14214      4.99952     2.83567    0.02267     7.85786
      C    3    0.16598      0.99959     1.81237    0.02206     2.83402
      N    4   -0.18505      0.99964     2.67171    0.01370     3.68505
      N    5   -0.15665      0.99966     2.64523    0.01176     3.65665
      C    6    0.26644      0.99955     1.71363    0.02038     2.73356
      O    7   -0.24720      0.99985     3.24041    0.00694     4.24720
      C    8   -0.14182      0.99954     2.13139    0.01089     3.14182
      C    9   -0.18161      0.99962     2.17270    0.00930     3.18161
      C   10   -0.23660      0.99959     2.22789    0.00913     3.23660
      C   11    0.31683      0.99966     1.66197    0.02153     2.68317
      O   12   -0.27407      0.99987     3.26760    0.00660     4.27407
      C   13   -0.23660      0.99959     2.22789    0.00913     3.23660
      C   14   -0.18161      0.99962     2.17270    0.00930     3.18161
      H   15    0.11166      0.00000     0.38531    0.00303     0.38834
      H   16    0.11067      0.00000     0.38739    0.00194     0.38933
      H   17    0.11068      0.00000     0.38738    0.00194     0.38932
      H   18    0.11654      0.00000     0.38081    0.00265     0.38346
      H   19    0.10411      0.00000     0.39485    0.00104     0.39589
      H   20    0.09872      0.00000     0.40006    0.00122     0.40128
      H   21    0.10989      0.00000     0.38757    0.00253     0.39011
      H   22    0.10741      0.00000     0.39163    0.00096     0.39259
      H   23    0.10741      0.00000     0.39163    0.00096     0.39259
      H   24    0.10989      0.00000     0.38757    0.00253     0.39011
      H   25    0.10411      0.00000     0.39485    0.00104     0.39589
      H   26    0.09872      0.00000     0.40006    0.00122     0.40128
 =======================================================================
   * Total *    0.00000     17.99489    37.80394    0.20117    56.00000

 Normal termination of Gaussian 16 at Thu Dec 10 11:17:34 2020.
