 Gaussian 16, Revision A.03,

 -----------------------------------------------------------
 # opt freq B3LYP/6-31G(d) empiricaldispersion=gd3bj scf=xqc
 -----------------------------------------------------------

 --------------------------------
 CID_105850225_JID_10100_neutraal
 --------------------------------
 Symbolic Z-matrix:
 Charge =  0 Multiplicity = 1

 SCF Done:  E(RB3LYP) =  -994.252656962     A.U. after   14 cycles
 SCF Done:  E(RB3LYP) =  -994.265939245     A.U. after   12 cycles
 SCF Done:  E(RB3LYP) =  -994.267582768     A.U. after   12 cycles
 SCF Done:  E(RB3LYP) =  -994.268228882     A.U. after   12 cycles
 SCF Done:  E(RB3LYP) =  -994.268335045     A.U. after   12 cycles
 SCF Done:  E(RB3LYP) =  -994.269072740     A.U. after   11 cycles
 SCF Done:  E(RB3LYP) =  -994.269295519     A.U. after   11 cycles
 SCF Done:  E(RB3LYP) =  -994.269349999     A.U. after   11 cycles
 SCF Done:  E(RB3LYP) =  -994.269367078     A.U. after    9 cycles
 SCF Done:  E(RB3LYP) =  -994.269370426     A.U. after    9 cycles
 SCF Done:  E(RB3LYP) =  -994.269371111     A.U. after    8 cycles
 SCF Done:  E(RB3LYP) =  -994.269371483     A.U. after    7 cycles
 SCF Done:  E(RB3LYP) =  -994.269371726     A.U. after    7 cycles
 SCF Done:  E(RB3LYP) =  -994.269371782     A.U. after    7 cycles
 SCF Done:  E(RB3LYP) =  -994.269371802     A.U. after    7 cycles
 Optimization completed.
    -- Stationary point found.
 Normal termination of Gaussian 16 at Sun Dec 13 12:43:29 2020.

 --------------------------------------------------------------------
 #N Geom=AllCheck Guess=TCheck SCRF=Check GenChk RB3LYP/6-31G(d) Freq
 --------------------------------------------------------------------

 Structure from the checkpoint file:  "JID_10100.chk"
 --------------------------------
 CID_105850225_JID_10100_neutraal
 --------------------------------
 Charge =  0 Multiplicity = 1

 SCF Done:  E(RB3LYP) =  -994.269371802     A.U. after    1 cycles

  Exact polarizability: 192.734   3.829 159.292   8.359  -2.093 129.791
 Approx polarizability: 223.976   8.582 242.112   6.314 -13.023 197.663

                      1                      2                      3
                      A                      A                      A
 Frequencies --     17.3002                26.7869                32.1257
 Red. masses --      4.4384                 5.2275                 4.6539
 Frc consts  --      0.0008                 0.0022                 0.0028
 IR Inten    --      0.1524                 0.3573                 0.0497

                      4                      5                      6
                      A                      A                      A
 Frequencies --     44.0184                46.8438                53.0399
 Red. masses --      5.1233                 4.3417                 5.3179
 Frc consts  --      0.0058                 0.0056                 0.0088
 IR Inten    --      0.2170                 0.9991                 3.2133

                      7                      8                      9
                      A                      A                      A
 Frequencies --     84.0492                98.7358               109.9563
 Red. masses --      4.6845                 3.2956                 5.1530
 Frc consts  --      0.0195                 0.0189                 0.0367
 IR Inten    --      1.2094                 0.7488                 0.4233

                     10                     11                     12
                      A                      A                      A
 Frequencies --    110.8213               149.2624               184.0291
 Red. masses --      3.6384                 2.8591                 3.3284
 Frc consts  --      0.0263                 0.0375                 0.0664
 IR Inten    --      0.3899                 2.9673                 4.8939

                     13                     14                     15
                      A                      A                      A
 Frequencies --    211.6322               227.4049               244.8444
 Red. masses --      3.9755                 4.1358                 2.3862
 Frc consts  --      0.1049                 0.1260                 0.0843
 IR Inten    --      7.1694                 7.7645                 1.2924

                     16                     17                     18
                      A                      A                      A
 Frequencies --    262.0932               290.3633               302.8774
 Red. masses --      2.3755                 1.4360                 1.1886
 Frc consts  --      0.0961                 0.0713                 0.0642
 IR Inten    --      1.3928                 0.6192                 0.4453

                     19                     20                     21
                      A                      A                      A
 Frequencies --    327.0890               334.6372               356.5211
 Red. masses --      3.2595                 2.2658                 3.2593
 Frc consts  --      0.2055                 0.1495                 0.2441
 IR Inten    --      3.2974                 1.8568                 6.3219

                     22                     23                     24
                      A                      A                      A
 Frequencies --    364.8389               390.2716               399.0564
 Red. masses --      3.6750                 2.5666                 2.4154
 Frc consts  --      0.2882                 0.2303                 0.2266
 IR Inten    --      2.0588                 0.8787                 1.2711

                     25                     26                     27
                      A                      A                      A
 Frequencies --    438.3950               468.5783               475.6219
 Red. masses --      3.4228                 2.8407                 2.8780
 Frc consts  --      0.3876                 0.3675                 0.3836
 IR Inten    --      9.6872                 2.5183                 3.6138

                     28                     29                     30
                      A                      A                      A
 Frequencies --    508.7110               533.4867               561.6318
 Red. masses --      2.4572                 1.4363                 2.7983
 Frc consts  --      0.3747                 0.2408                 0.5201
 IR Inten    --     27.2093                49.0795                 8.1734

                     31                     32                     33
                      A                      A                      A
 Frequencies --    563.4593               574.2189               632.8931
 Red. masses --      2.4963                 4.0771                 2.4210
 Frc consts  --      0.4670                 0.7921                 0.5714
 IR Inten    --     11.1574                 4.5812                77.3816

                     34                     35                     36
                      A                      A                      A
 Frequencies --    652.8273               680.8526               707.9739
 Red. masses --      3.7696                 3.2583                 1.8559
 Frc consts  --      0.9465                 0.8899                 0.5481
 IR Inten    --     17.3049                13.3827                94.4280

                     37                     38                     39
                      A                      A                      A
 Frequencies --    737.2586               777.3007               813.4639
 Red. masses --      3.2100                 8.0369                 1.1789
 Frc consts  --      1.0280                 2.8610                 0.4596
 IR Inten    --     43.2372                12.1289                 0.4015

                     40                     41                     42
                      A                      A                      A
 Frequencies --    819.2954               825.2042               863.3071
 Red. masses --      1.4540                 1.8549                 4.5629
 Frc consts  --      0.5750                 0.7442                 2.0036
 IR Inten    --      2.3143                 7.6774                 6.1527

                     43                     44                     45
                      A                      A                      A
 Frequencies --    873.2653               897.4642               917.7467
 Red. masses --      2.3100                 2.5434                 2.0584
 Frc consts  --      1.0379                 1.2070                 1.0215
 IR Inten    --      8.1931                 8.6801                 2.0594

                     46                     47                     48
                      A                      A                      A
 Frequencies --    924.4574               933.4232               965.3081
 Red. masses --      1.8421                 2.3810                 1.8135
 Frc consts  --      0.9276                 1.2223                 0.9956
 IR Inten    --      3.5873                 8.1806                 2.4822

                     49                     50                     51
                      A                      A                      A
 Frequencies --    972.8386               983.2291              1030.0873
 Red. masses --      2.7253                 1.7312                 1.9658
 Frc consts  --      1.5196                 0.9860                 1.2290
 IR Inten    --      3.6563                 6.5574                15.6925

                     52                     53                     54
                      A                      A                      A
 Frequencies --   1046.6811              1052.3418              1068.0517
 Red. masses --      1.7227                 2.2355                 3.5665
 Frc consts  --      1.1120                 1.4586                 2.3971
 IR Inten    --     11.9960                17.5316                 5.7410

                     55                     56                     57
                      A                      A                      A
 Frequencies --   1098.5097              1114.6901              1129.6617
 Red. masses --      2.4625                 2.4569                 4.2205
 Frc consts  --      1.7508                 1.7986                 3.1733
 IR Inten    --     17.0675                 6.4454               103.2229

                     58                     59                     60
                      A                      A                      A
 Frequencies --   1139.0346              1145.7663              1154.1524
 Red. masses --      2.0346                 1.9742                 1.7640
 Frc consts  --      1.5553                 1.5270                 1.3844
 IR Inten    --      7.5641                63.9535                78.8495

                     61                     62                     63
                      A                      A                      A
 Frequencies --   1158.3921              1181.1613              1202.3251
 Red. masses --      2.6808                 1.5959                 2.2237
 Frc consts  --      2.1195                 1.3119                 1.8939
 IR Inten    --      3.1795                 3.3338               151.2339

                     64                     65                     66
                      A                      A                      A
 Frequencies --   1210.6468              1219.0560              1223.3460
 Red. masses --      1.8639                 2.4239                 1.5685
 Frc consts  --      1.6095                 2.1223                 1.3830
 IR Inten    --      4.2496                63.9061                17.0661

                     67                     68                     69
                      A                      A                      A
 Frequencies --   1238.0145              1252.3202              1264.9117
 Red. masses --      2.5158                 1.6056                 3.1400
 Frc consts  --      2.2718                 1.4836                 2.9601
 IR Inten    --     42.7887                76.8453               106.7871

                     70                     71                     72
                      A                      A                      A
 Frequencies --   1276.1560              1280.3608              1286.4284
 Red. masses --      1.3729                 1.6077                 1.6109
 Frc consts  --      1.3174                 1.5528                 1.5707
 IR Inten    --     33.1486                25.8967               119.2454

                     73                     74                     75
                      A                      A                      A
 Frequencies --   1296.8050              1321.0401              1324.8657
 Red. masses --      1.3762                 1.3574                 1.3021
 Frc consts  --      1.3636                 1.3956                 1.3466
 IR Inten    --      0.4715                 0.4278                45.2558

                     76                     77                     78
                      A                      A                      A
 Frequencies --   1347.6765              1363.1841              1386.6425
 Red. masses --      1.1165                 1.9588                 1.2598
 Frc consts  --      1.1947                 2.1446                 1.4272
 IR Inten    --     19.2671                 7.8350                30.2886

                     79                     80                     81
                      A                      A                      A
 Frequencies --   1391.0389              1408.6906              1417.5281
 Red. masses --      1.7255                 1.8597                 1.1999
 Frc consts  --      1.9672                 2.1744                 1.4205
 IR Inten    --     59.0320                18.5366                10.9547

                     82                     83                     84
                      A                      A                      A
 Frequencies --   1428.2908              1437.3247              1439.0445
 Red. masses --      5.8347                 1.2485                 1.2826
 Frc consts  --      7.0130                 1.5196                 1.5649
 IR Inten    --    676.8004                 2.6058                22.6745

                     85                     86                     87
                      A                      A                      A
 Frequencies --   1444.7510              1484.6210              1496.3925
 Red. masses --      1.3144                 1.4839                 1.0810
 Frc consts  --      1.6164                 1.9270                 1.4262
 IR Inten    --     14.5958                14.9569                 1.2875

                     88                     89                     90
                      A                      A                      A
 Frequencies --   1500.9387              1517.0109              1520.2429
 Red. masses --      1.0932                 1.0741                 1.0603
 Frc consts  --      1.4510                 1.4564                 1.4437
 IR Inten    --      2.2402                 3.6516                 3.4865

                     91                     92                     93
                      A                      A                      A
 Frequencies --   1526.8870              1527.0623              1533.9794
 Red. masses --      1.0703                 1.0587                 1.0599
 Frc consts  --      1.4702                 1.4546                 1.4695
 IR Inten    --      1.5199                 1.7659                 1.0994

                     94                     95                     96
                      A                      A                      A
 Frequencies --   1534.8051              1543.6997              1548.0946
 Red. masses --      1.1187                 1.0803                 1.1182
 Frc consts  --      1.5526                 1.5168                 1.5789
 IR Inten    --      3.2590                 2.9057                10.8625

                     97                     98                     99
                      A                      A                      A
 Frequencies --   1787.2334              1845.5812              3026.7588
 Red. masses --      8.4555                 9.8774                 1.0685
 Frc consts  --     15.9130                19.8225                 5.7675
 IR Inten    --    442.9904               242.8472                43.7089

                    100                    101                    102
                      A                      A                      A
 Frequencies --   3048.2649              3052.6929              3053.5072
 Red. masses --      1.0573                 1.0543                 1.0360
 Frc consts  --      5.7883                 5.7886                 5.6911
 IR Inten    --      1.5614                40.1213                13.1431

                    103                    104                    105
                      A                      A                      A
 Frequencies --   3057.2666              3067.9220              3081.6321
 Red. masses --      1.0390                 1.0866                 1.0573
 Frc consts  --      5.7218                 6.0255                 5.9159
 IR Inten    --     20.3527                24.2054                30.6446

                    106                    107                    108
                      A                      A                      A
 Frequencies --   3083.5456              3088.3724              3093.7947
 Red. masses --      1.0578                 1.0608                 1.0950
 Frc consts  --      5.9257                 5.9615                 6.1750
 IR Inten    --     44.7905                 3.6826                20.9094

                    109                    110                    111
                      A                      A                      A
 Frequencies --   3095.8940              3103.6818              3108.8675
 Red. masses --      1.1061                 1.0908                 1.1058
 Frc consts  --      6.2461                 6.1910                 6.2970
 IR Inten    --     14.3716                 2.8173                22.2018

                    112                    113                    114
                      A                      A                      A
 Frequencies --   3120.9307              3121.7576              3133.6649
 Red. masses --      1.1002                 1.1009                 1.1039
 Frc consts  --      6.3139                 6.3211                 6.3869
 IR Inten    --     65.1171                22.2302                40.4093

                    115                    116                    117
                      A                      A                      A
 Frequencies --   3136.6131              3138.6846              3146.3906
 Red. masses --      1.1111                 1.1084                 1.1054
 Frc consts  --      6.4404                 6.4333                 6.4474
 IR Inten    --     18.7330                18.8434                39.7190

                    118                    119                    120
                      A                      A                      A
 Frequencies --   3146.7883              3605.6658              3679.9703
 Red. masses --      1.1033                 1.0759                 1.0640
 Frc consts  --      6.4370                 8.2414                 8.4892
 IR Inten    --     20.5050                24.4584                56.3047

 - Thermochemistry -
 -------------------
 Temperature   298.150 Kelvin.  Pressure   1.00000 Atm.
 Atom     1 has atomic number  6 and mass  12.00000

 Molecular mass:   286.15287 amu.
 Principal axes and moments of inertia in atomic units:
                           1         2         3
     Eigenvalues --  3192.23054********************
           X            0.99991   0.00899   0.00957
           Y           -0.00920   0.99972   0.02188
           Z           -0.00937  -0.02196   0.99971
 This molecule is an asymmetric top.
 Rotational symmetry number  1.
 Warning -- assumption of classical behavior for rotation
           may cause significant error
 Rotational temperatures (Kelvin)      0.02713     0.00644     0.00565
 Rotational constants (GHZ):           0.56535     0.13415     0.11769
 Zero-point vibrational energy     939720.5 (Joules/Mol)
                                  224.59860 (Kcal/Mol)
 Warning -- explicit consideration of  32 degrees of freedom as
           vibrations may cause significant error
 Vibrational temperatures:     24.89    38.54    46.22    63.33    67.40
          (Kelvin)             76.31   120.93   142.06   158.20   159.45
                              214.76   264.78   304.49   327.18   352.28
                              377.09   417.77   435.77   470.61   481.47
                              512.95   524.92   561.51   574.15   630.75
                              674.18   684.31   731.92   767.57   808.06
                              810.69   826.17   910.59   939.27   979.59
                             1018.62  1060.75  1118.36  1170.39  1178.78
                             1187.28  1242.11  1256.43  1291.25  1320.43
                             1330.09  1342.99  1388.86  1399.70  1414.65
                             1482.07  1505.94  1514.09  1536.69  1580.51
                             1603.79  1625.33  1638.82  1648.50  1660.57
                             1666.67  1699.43  1729.88  1741.85  1753.95
                             1760.12  1781.23  1801.81  1819.93  1836.10
                             1842.15  1850.88  1865.81  1900.68  1906.19
                             1939.01  1961.32  1995.07  2001.39  2026.79
                             2039.51  2054.99  2067.99  2070.46  2078.67
                             2136.04  2152.98  2159.52  2182.64  2187.29
                             2196.85  2197.10  2207.05  2208.24  2221.04
                             2227.36  2571.43  2655.38  4354.83  4385.77
                             4392.14  4393.32  4398.72  4414.06  4433.78
                             4436.53  4443.48  4451.28  4454.30  4465.51
                             4472.97  4490.32  4491.51  4508.64  4512.89
                             4515.87  4526.95  4527.53  5187.75  5294.66

 Zero-point correction=                           0.357921 (Hartree/Particle)
 Thermal correction to Energy=                    0.378732
 Thermal correction to Enthalpy=                  0.379676
 Thermal correction to Gibbs Free Energy=         0.305134
 Sum of electronic and zero-point Energies=           -993.911451
 Sum of electronic and thermal Energies=              -993.890640
 Sum of electronic and thermal Enthalpies=            -993.889696
 Sum of electronic and thermal Free Energies=         -993.964238

                     E (Thermal)             CV                S
                      KCal/Mol        Cal/Mol-Kelvin    Cal/Mol-Kelvin
 Total                  237.658             77.364            156.887
 Electronic               0.000              0.000              0.000
 Translational            0.889              2.981             42.852
 Rotational               0.889              2.981             34.842
 Vibrational            235.880             71.403             79.193
 Vibration     1          0.593              1.986              6.922
 Vibration     2          0.593              1.984              6.054
 Vibration     3          0.594              1.983              5.694
 Vibration     4          0.595              1.980              5.070
 Vibration     5          0.595              1.979              4.946
 Vibration     6          0.596              1.976              4.701
 Vibration     7          0.601              1.960              3.794
 Vibration     8          0.604              1.950              3.479
 Vibration     9          0.606              1.941              3.270
 Vibration    10          0.607              1.941              3.254
 Vibration    11          0.618              1.903              2.682
 Vibration    12          0.631              1.862              2.287
 Vibration    13          0.643              1.823              2.030
 Vibration    14          0.651              1.799              1.899
 Vibration    15          0.660              1.771              1.767
 Vibration    16          0.669              1.742              1.648
 Vibration    17          0.686              1.692              1.472
 Vibration    18          0.694              1.668              1.401
 Vibration    19          0.711              1.621              1.274
 Vibration    20          0.716              1.606              1.238
 Vibration    21          0.732              1.562              1.137
 Vibration    22          0.738              1.545              1.101
 Vibration    23          0.758              1.491              0.999
 Vibration    24          0.765              1.472              0.966
 Vibration    25          0.799              1.386              0.832
 Vibration    26          0.826              1.320              0.742
 Vibration    27          0.832              1.304              0.722
 Vibration    28          0.864              1.231              0.637
 Vibration    29          0.888              1.176              0.579
 Vibration    30          0.917              1.114              0.521
 Vibration    31          0.919              1.110              0.517
 Vibration    32          0.931              1.087              0.496

                           ! Non-Optimized Parameters !
 Normal termination of Gaussian 16 at Sun Dec 13 13:06:03 2020.

 ----------------------------------------------------------------------
 # B3LYP/6-311++G(d,p) empiricaldispersion=gd3bj scf=xqc pop=npa geom=c
 heck
 ----------------------------------------------------------------------

 ----------------------------------------
 CID_105850225_JID_10100_Energie_neutraal
 ----------------------------------------
 Structure from the checkpoint file:  "JID_10100.chk"
 Charge =  0 Multiplicity = 1

 SCF Done:  E(RB3LYP) =  -994.569099512     A.U. after   14 cycles
 Normal termination of Gaussian 16 at Sun Dec 13 13:16:16 2020.

 ----------------------------------------------------------------------
 # B3LYP/6-311++G(d,p) empiricaldispersion=gd3bj scf=xqc pop=npa geom=c
 heck
 ----------------------------------------------------------------------

 --------------------------------------
 CID_105850225_JID_10100_Energie_kation
 --------------------------------------
 Structure from the checkpoint file:  "JID_10100.chk"
 Charge =  1 Multiplicity = 2

 SCF Done:  E(UB3LYP) =  -994.256860249     A.U. after   30 cycles
 Normal termination of Gaussian 16 at Sun Dec 13 13:47:59 2020.
 Gaussian 16:  ES64L-G16RevA.03 25-Dec-2016

 ----------------------------------------------------------------------
 # B3LYP/6-311++G(d,p) empiricaldispersion=gd3bj scf=xqc pop=npa geom=c
 heck
 ----------------------------------------------------------------------

 -------------------------------------
 CID_105850225_JID_10100_Energie_anion
 -------------------------------------
 Structure from the checkpoint file:  "JID_10100.chk"
 Charge = -1 Multiplicity = 2

                         Standard orientation:
 ---------------------------------------------------------------------
 Center     Atomic      Atomic             Coordinates (Angstroms)
 Number     Number       Type             X           Y           Z
 ---------------------------------------------------------------------
      1          6           0       -5.640264   -0.785611   -1.407811
      2          6           0       -5.129904   -1.967218   -0.583974
      3          8           0       -4.812628   -1.664866    0.767567
      4          6           0       -3.641168   -0.937189    1.051816
      5          6           0       -2.407555   -0.911851    0.111989
      6          6           0       -2.161314    0.548272    0.592198
      7          6           0       -3.643919    0.615729    1.036034
      8          7           0       -1.720003    1.542278   -0.364351
      9          6           0       -0.520682    2.225777   -0.326358
     10          8           0       -0.376637    3.330918   -0.836216
     11          7           0        0.515895    1.573052    0.329533
     12          6           0        1.898710    2.050085    0.146342
     13          6           0        2.390561    0.588996    0.254485
     14          6           0        0.896691    0.154057    0.142455
     15          6           0        3.041961    0.236386    1.584221
     16          8           0        3.189960    0.270805   -0.876568
     17          6           0        3.482088   -1.095492   -1.042035
     18          6           0        4.719091   -1.602336   -0.308166
     19          8           0        4.870758   -2.755063    0.030581
     20          8           0        5.652412   -0.644676   -0.130272
     21          1           0       -6.434490   -0.260918   -0.866805
     22          1           0       -6.048778   -1.144603   -2.359789
     23          1           0       -4.847710   -0.066771   -1.639186
     24          1           0       -5.917057   -2.724387   -0.509992
     25          1           0       -4.273010   -2.440694   -1.084313
     26          1           0       -3.333924   -1.280116    2.045932
     27          1           0       -1.623627   -1.659291    0.264308
     28          1           0       -2.686142   -0.897349   -0.945198
     29          1           0       -1.493559    0.573802    1.456764
     30          1           0       -4.275486    1.001696    0.230449
     31          1           0       -3.882405    1.145758    1.962142
     32          1           0       -2.442527    2.091079   -0.812152
     33          1           0        2.069300    2.479419   -0.844719
     34          1           0        2.242727    2.745345    0.917761
     35          1           0        0.523776   -0.525310    0.914970
     36          1           0        0.635823   -0.234647   -0.849143
     37          1           0        3.161594   -0.846415    1.705320
     38          1           0        4.025445    0.708273    1.660711
     39          1           0        2.412684    0.593045    2.406060
     40          1           0        2.646955   -1.747085   -0.755291
     41          1           0        3.667913   -1.248457   -2.112181
     42          1           0        6.404561   -1.084265    0.310169
 ---------------------------------------------------------------------

 SCF Done:  E(UB3LYP) =  -994.563378549     A.U. after   33 cycles
 SCF Done:  E(UB3LYP) =  -994.563378548     a.u. after    1 cycles

 The electronic state is 2-A.
 Alpha  occ. eigenvalues --  -19.08780 -19.05667 -19.04694 -19.03572 -19.00074
 Alpha  occ. eigenvalues --  -14.25209 -14.24967 -10.22556 -10.20883 -10.16021
 Alpha  occ. eigenvalues --  -10.15547 -10.14701 -10.14182 -10.13895 -10.12586
 Alpha  occ. eigenvalues --  -10.11818 -10.09580 -10.09079 -10.09000 -10.08215
 Alpha  occ. eigenvalues --   -1.03102  -0.97522  -0.96538  -0.95892  -0.94137
 Alpha  occ. eigenvalues --   -0.87100  -0.84590  -0.76165  -0.70657  -0.68293
 Alpha  occ. eigenvalues --   -0.65424  -0.62046  -0.61646  -0.59747  -0.59045
 Alpha  occ. eigenvalues --   -0.54498  -0.54032  -0.50691  -0.48799  -0.47430
 Alpha  occ. eigenvalues --   -0.45684  -0.43694  -0.42191  -0.42142  -0.41513
 Alpha  occ. eigenvalues --   -0.40889  -0.40460  -0.39333  -0.37759  -0.36940
 Alpha  occ. eigenvalues --   -0.36534  -0.35800  -0.35337  -0.34313  -0.33800
 Alpha  occ. eigenvalues --   -0.33539  -0.32814  -0.32192  -0.31968  -0.31506
 Alpha  occ. eigenvalues --   -0.31179  -0.30403  -0.29115  -0.28308  -0.27709
 Alpha  occ. eigenvalues --   -0.27033  -0.26493  -0.26032  -0.24472  -0.23933
 Alpha  occ. eigenvalues --   -0.22385  -0.21754  -0.19504  -0.18350  -0.17756
 Alpha  occ. eigenvalues --   -0.16899  -0.16629   0.03425
 Alpha virt. eigenvalues --    0.04825   0.05587   0.06426   0.06519   0.06950
 Alpha virt. eigenvalues --    0.07601   0.08376   0.08492   0.08978   0.09536
 Alpha virt. eigenvalues --    0.09757   0.10252   0.10535   0.10658   0.11362

  Beta  occ. eigenvalues --  -19.08725 -19.05664 -19.04691 -19.03556 -19.00073
  Beta  occ. eigenvalues --  -14.25204 -14.24963 -10.22550 -10.20883 -10.16021
  Beta  occ. eigenvalues --  -10.15515 -10.14691 -10.14166 -10.13887 -10.12560
  Beta  occ. eigenvalues --  -10.11814 -10.09571 -10.09056 -10.08979 -10.08184
  Beta  occ. eigenvalues --   -1.03028  -0.97516  -0.96534  -0.95882  -0.94076
  Beta  occ. eigenvalues --   -0.87090  -0.84579  -0.76148  -0.70636  -0.68265
  Beta  occ. eigenvalues --   -0.65359  -0.62010  -0.61613  -0.59710  -0.59010
  Beta  occ. eigenvalues --   -0.54456  -0.53947  -0.50646  -0.48756  -0.47398
  Beta  occ. eigenvalues --   -0.45652  -0.43669  -0.42147  -0.42107  -0.41479
  Beta  occ. eigenvalues --   -0.40854  -0.40422  -0.39313  -0.37735  -0.36918
  Beta  occ. eigenvalues --   -0.36503  -0.35769  -0.35308  -0.34288  -0.33779
  Beta  occ. eigenvalues --   -0.33516  -0.32789  -0.32167  -0.31930  -0.31482
  Beta  occ. eigenvalues --   -0.31154  -0.30379  -0.29089  -0.28283  -0.27685
  Beta  occ. eigenvalues --   -0.27008  -0.26464  -0.26006  -0.24423  -0.23912
  Beta  occ. eigenvalues --   -0.22366  -0.21725  -0.19491  -0.18326  -0.17733
  Beta  occ. eigenvalues --   -0.16885  -0.16614
  Beta virt. eigenvalues --    0.05253   0.05860   0.06403   0.06645   0.06919
  Beta virt. eigenvalues --    0.07342   0.07845   0.08697   0.08730   0.09267
  Beta virt. eigenvalues --    0.09677   0.09829   0.10498   0.10701   0.10749

 Mulliken charges and spin densities:
               1          2
     1  C    0.063344  -0.506321
     2  C    0.037141  -0.286933
     3  O   -0.053808   0.005722
     4  C   -1.065640   0.470131
     5  C    0.797066  -0.910404
     6  C   -0.209070  -0.174770
     7  C    0.004613  -0.208579
     8  N   -0.038066   0.040556
     9  C    0.221615  -0.029501
    10  O   -0.362243  -0.000612
    11  N    0.007156  -0.009098
    12  C    0.111672  -0.368600
    13  C   -0.857086   0.788167
    14  C   -0.253703  -0.367207
    15  C    0.622095  -1.112659
    16  O    0.040080   0.006582
    17  C    0.545368  -0.695558
    18  C   -0.054178  -0.188138
    19  O   -0.250953   0.039396
    20  O   -0.143227   0.013865
    21  H    0.061222   0.100253
    22  H   -0.097972   0.228717
    23  H   -0.017822   0.156476
    24  H   -0.099236   0.267564
    25  H   -0.074652   0.228074
    26  H   -0.214546   0.419917
    27  H   -0.189717   0.335881
    28  H    0.117650   0.085285
    29  H    0.183632   0.115536
    30  H    0.075438   0.062607
    31  H    0.040192   0.134979
    32  H    0.297295   0.013702
    33  H    0.192135   0.010104
    34  H    0.086856   0.106519
    35  H    0.099825   0.119633
    36  H    0.003704   0.218364
    37  H   -0.099114   0.288963
    38  H    0.152675   0.036010
    39  H   -0.251571   0.416760
    40  H   -0.010888   0.232373
    41  H   -0.071995   0.272184
    42  H   -0.345286   0.644060
 Sum of Mulliken charges =  -1.00000   1.00000

 Dipole moment (field-independent basis, Debye):
    X=             -4.3682    Y=              2.6632    Z=             -0.5862  Tot=              5.1495
 Quadrupole moment (field-independent basis, Debye-Ang):
   XX=           -244.0908   YY=           -178.5932   ZZ=           -156.4999
   XY=              1.9158   XZ=             -3.0910   YZ=              6.3388

 Summary of Natural Population Analysis:

                                       Natural Population
                Natural  -----------------------------------------------
    Atom  No    Charge         Core      Valence    Rydberg      Total
 -----------------------------------------------------------------------
      C    1   -0.30114      0.99966     2.29720    0.00428     3.30114
      C    2   -0.01116      0.99958     1.99884    0.01274     3.01116
      O    3   -0.29932      0.99987     3.28992    0.00953     4.29932
      C    4    0.06709      0.99951     1.91758    0.01581     2.93291
      C    5   -0.20581      0.99961     2.19679    0.00941     3.20581
      C    6   -0.01917      0.99958     2.00607    0.01352     3.01917
      C    7   -0.19741      0.99961     2.18998    0.00782     3.19741
      N    8   -0.32660      0.99965     2.81846    0.00849     3.82660
      C    9    0.41455      0.99966     1.56324    0.02254     2.58545
      O   10   -0.33431      0.99988     3.32943    0.00500     4.33431
      N   11   -0.27763      0.99966     2.76861    0.00935     3.77763
      C   12   -0.07435      0.99959     2.06461    0.01015     3.07435
      C   13    0.13131      0.99948     1.85242    0.01678     2.86869
      C   14   -0.09276      0.99958     2.08168    0.01150     3.09276
      C   15   -0.30450      0.99961     2.29807    0.00682     3.30450
      O   16   -0.29486      0.99986     3.28512    0.00988     4.29486
      C   17   -0.05991      0.99952     2.04785    0.01254     3.05991
      C   18    0.39144      0.99974     1.58452    0.02431     2.60856
      O   19   -0.30426      0.99987     3.29774    0.00664     4.30426
      O   20   -0.33732      0.99987     3.32978    0.00766     4.33732
      H   21    0.10002      0.00000     0.39883    0.00115     0.39998
      H   22    0.10209      0.00000     0.39663    0.00128     0.39791
      H   23    0.09472      0.00000     0.40393    0.00135     0.40528
      H   24    0.08900      0.00000     0.40977    0.00122     0.41100
      H   25    0.08142      0.00000     0.41725    0.00133     0.41858
      H   26    0.09146      0.00000     0.40691    0.00163     0.40854
      H   27    0.10498      0.00000     0.39348    0.00154     0.39502
      H   28    0.10123      0.00000     0.39691    0.00186     0.39877
      H   29    0.10364      0.00000     0.39385    0.00251     0.39636
      H   30    0.09748      0.00000     0.40089    0.00163     0.40252
      H   31    0.10106      0.00000     0.39790    0.00104     0.39894
      H   32    0.19320      0.00000     0.30427    0.00253     0.30680
      H   33    0.10796      0.00000     0.39076    0.00128     0.39204
      H   34    0.09589      0.00000     0.40305    0.00106     0.40411
      H   35    0.09931      0.00000     0.39879    0.00191     0.40069
      H   36    0.10024      0.00000     0.39817    0.00160     0.39976
      H   37    0.10452      0.00000     0.39420    0.00128     0.39548
      H   38    0.11033      0.00000     0.38850    0.00117     0.38967
      H   39    0.10774      0.00000     0.39101    0.00124     0.39226
      H   40    0.09797      0.00000     0.40042    0.00160     0.40203
      H   41    0.10732      0.00000     0.39151    0.00117     0.39268
      H   42    0.24454      0.00000     0.24278    0.01268     0.25546
 =======================================================================
   * Total *    0.00000     19.99339    56.73775    0.26886    77.00000

 Normal termination of Gaussian 16 at Sun Dec 13 14:23:15 2020.
