 Gaussian 16, Revision A.03,

 -----------------------------------------------------------
 # opt freq B3LYP/6-31G(d) empiricaldispersion=gd3bj scf=xqc
 -----------------------------------------------------------

 -------------------------------
 CID_114631795_JID_7066_neutraal
 -------------------------------
 Symbolic Z-matrix:
 Charge =  0 Multiplicity = 1

 SCF Done:  E(RB3LYP) =  -818.108252455     A.U. after   15 cycles
 SCF Done:  E(RB3LYP) =  -818.122797136     A.U. after   13 cycles
 SCF Done:  E(RB3LYP) =  -818.123313081     A.U. after   13 cycles
 SCF Done:  E(RB3LYP) =  -818.125900864     A.U. after   13 cycles
 SCF Done:  E(RB3LYP) =  -818.126655656     A.U. after   13 cycles
 SCF Done:  E(RB3LYP) =  -818.128337965     A.U. after   13 cycles
 SCF Done:  E(RB3LYP) =  -818.129077916     A.U. after   13 cycles
 SCF Done:  E(RB3LYP) =  -818.129321138     A.U. after   13 cycles
 SCF Done:  E(RB3LYP) =  -818.129366357     A.U. after   10 cycles
 SCF Done:  E(RB3LYP) =  -818.129402746     A.U. after   11 cycles
 SCF Done:  E(RB3LYP) =  -818.129446590     A.U. after   10 cycles
 SCF Done:  E(RB3LYP) =  -818.129448290     A.U. after    8 cycles
 SCF Done:  E(RB3LYP) =  -818.129449662     A.U. after    9 cycles
 SCF Done:  E(RB3LYP) =  -818.129450095     A.U. after    8 cycles
 SCF Done:  E(RB3LYP) =  -818.129450460     A.U. after    8 cycles
 SCF Done:  E(RB3LYP) =  -818.129450579     A.U. after    8 cycles
 Optimization completed.
    -- Stationary point found.
 Normal termination of Gaussian 16 at Sun Dec 13 12:37:45 2020.

 --------------------------------------------------------------------
 #N Geom=AllCheck Guess=TCheck SCRF=Check GenChk RB3LYP/6-31G(d) Freq
 --------------------------------------------------------------------

 Structure from the checkpoint file:  "JID_7066.chk"
 -------------------------------
 CID_114631795_JID_7066_neutraal
 -------------------------------
 Charge =  0 Multiplicity = 1

 SCF Done:  E(RB3LYP) =  -818.129450580     A.U. after    1 cycles

  Exact polarizability: 182.121   4.121 148.454 -20.271   4.650  98.041
 Approx polarizability: 262.279  10.357 245.679 -45.862  16.205 157.064

                      1                      2                      3
                      A                      A                      A
 Frequencies --     28.8636                33.2073                46.3216
 Red. masses --      4.0557                 4.9385                 7.0680
 Frc consts  --      0.0020                 0.0032                 0.0089
 IR Inten    --      0.4650                 0.3805                 0.8671

                      4                      5                      6
                      A                      A                      A
 Frequencies --     67.3656               103.6030               147.0618
 Red. masses --      5.6023                 6.0171                 4.7083
 Frc consts  --      0.0150                 0.0381                 0.0600
 IR Inten    --      3.3165                 7.1359                 1.6188

                      7                      8                      9
                      A                      A                      A
 Frequencies --    178.5546               188.4382               201.6267
 Red. masses --      1.5438                 3.1708                 2.3964
 Frc consts  --      0.0290                 0.0663                 0.0574
 IR Inten    --      3.3555                 2.9459                 0.5945

                     10                     11                     12
                      A                      A                      A
 Frequencies --    242.0193               250.5520               260.0419
 Red. masses --      5.1745                 2.6492                 1.1485
 Frc consts  --      0.1786                 0.0980                 0.0458
 IR Inten    --      0.8305                37.0361                57.9840

                     13                     14                     15
                      A                      A                      A
 Frequencies --    277.8501               283.7602               297.0735
 Red. masses --      1.0664                 4.2105                 4.3375
 Frc consts  --      0.0485                 0.1998                 0.2255
 IR Inten    --      1.7301                 5.6977                 6.5565

                     16                     17                     18
                      A                      A                      A
 Frequencies --    341.9670               380.6571               399.2248
 Red. masses --      2.8339                 4.8934                 2.9015
 Frc consts  --      0.1953                 0.4178                 0.2725
 IR Inten    --      0.3652                 0.5079                 5.6615

                     19                     20                     21
                      A                      A                      A
 Frequencies --    416.2119               452.3241               460.8119
 Red. masses --      4.1598                 4.0890                 2.4207
 Frc consts  --      0.4246                 0.4929                 0.3029
 IR Inten    --      9.9922                 2.5219                 4.0834

                     22                     23                     24
                      A                      A                      A
 Frequencies --    520.3818               551.1951               566.7365
 Red. masses --      3.9362                 3.3249                 3.5832
 Frc consts  --      0.6280                 0.5952                 0.6781
 IR Inten    --     14.6359                 1.6421                14.2757

                     25                     26                     27
                      A                      A                      A
 Frequencies --    612.0811               628.8195               643.7157
 Red. masses --      1.3911                 2.8208                 4.2209
 Frc consts  --      0.3071                 0.6572                 1.0305
 IR Inten    --     64.2166                44.4288                37.3568

                     28                     29                     30
                      A                      A                      A
 Frequencies --    656.1060               698.2926               744.1608
 Red. masses --      3.4143                 2.2728                 5.2262
 Frc consts  --      0.8660                 0.6530                 1.7052
 IR Inten    --     31.1592                35.7217                14.5921

                     31                     32                     33
                      A                      A                      A
 Frequencies --    765.6023               794.0637               815.9358
 Red. masses --      3.9331                 3.6620                 2.6703
 Frc consts  --      1.3583                 1.3604                 1.0474
 IR Inten    --     10.3360                60.9920                 2.8039

                     34                     35                     36
                      A                      A                      A
 Frequencies --    845.1455               860.5213               870.5287
 Red. masses --      2.6043                 1.4553                 2.4270
 Frc consts  --      1.0960                 0.6349                 1.0836
 IR Inten    --     17.5879                 6.9617                 8.7341

                     37                     38                     39
                      A                      A                      A
 Frequencies --    920.3707               954.9998               971.4030
 Red. masses --      4.3010                 1.9673                 1.3795
 Frc consts  --      2.1466                 1.0571                 0.7669
 IR Inten    --      3.7125                 6.2582                 1.8392

                     40                     41                     42
                      A                      A                      A
 Frequencies --    977.7443               987.8638               996.1673
 Red. masses --      1.3741                 1.8413                 2.4570
 Frc consts  --      0.7740                 1.0587                 1.4365
 IR Inten    --      0.8612                 5.9204                 3.0014

                     43                     44                     45
                      A                      A                      A
 Frequencies --   1027.5157              1077.7950              1089.9223
 Red. masses --      1.3674                 3.6582                 4.5387
 Frc consts  --      0.8506                 2.5037                 3.1766
 IR Inten    --      1.8033                 5.4135                80.3859

                     46                     47                     48
                      A                      A                      A
 Frequencies --   1105.0928              1134.2774              1159.1449
 Red. masses --      2.6638                 1.9202                 2.6621
 Frc consts  --      1.9167                 1.4556                 2.1074
 IR Inten    --      1.7633               135.7354               378.6806

                     49                     50                     51
                      A                      A                      A
 Frequencies --   1165.6267              1194.1013              1211.5638
 Red. masses --      2.1581                 1.9705                 2.0428
 Frc consts  --      1.7276                 1.6554                 1.7667
 IR Inten    --     10.0678                 6.8350                81.7034

                     52                     53                     54
                      A                      A                      A
 Frequencies --   1237.6249              1239.6303              1255.5946
 Red. masses --      2.7929                 1.8180                 1.8250
 Frc consts  --      2.5205                 1.6460                 1.6952
 IR Inten    --      6.3965                46.0643                 1.5999

                     55                     56                     57
                      A                      A                      A
 Frequencies --   1269.6832              1275.0055              1302.1792
 Red. masses --      1.7859                 1.5255                 2.4488
 Frc consts  --      1.6963                 1.4611                 2.4465
 IR Inten    --     12.8372                 0.9422                 9.2738

                     58                     59                     60
                      A                      A                      A
 Frequencies --   1324.6651              1332.1066              1362.2892
 Red. masses --      1.9409                 2.0892                 1.9803
 Frc consts  --      2.0066                 2.1843                 2.1653
 IR Inten    --     11.4261                 7.0019                14.3399

                     61                     62                     63
                      A                      A                      A
 Frequencies --   1395.4256              1425.7150              1433.2037
 Red. masses --      2.5959                 1.3949                 1.3696
 Frc consts  --      2.9781                 1.6706                 1.6575
 IR Inten    --     97.4717                 9.5975                11.0434

                     64                     65                     66
                      A                      A                      A
 Frequencies --   1442.6814              1452.8367              1503.9159
 Red. masses --      1.2171                 1.2280                 2.5755
 Frc consts  --      1.4925                 1.5271                 3.4321
 IR Inten    --     31.4190                34.5317                80.4012

                     67                     68                     69
                      A                      A                      A
 Frequencies --   1510.8109              1513.0184              1520.4386
 Red. masses --      1.1176                 1.0550                 1.0578
 Frc consts  --      1.5030                 1.4229                 1.4408
 IR Inten    --      4.1497                 2.2954                 4.9163

                     70                     71                     72
                      A                      A                      A
 Frequencies --   1538.4499              1539.1520              1567.4482
 Red. masses --      1.0660                 1.0589                 2.0645
 Frc consts  --      1.4866                 1.4779                 2.9884
 IR Inten    --     37.4287                11.3049               196.2660

                     73                     74                     75
                      A                      A                      A
 Frequencies --   1596.1557              1623.2602              1811.3772
 Red. masses --      7.1637                 3.9649                 9.7418
 Frc consts  --     10.7532                 6.1554                18.8324
 IR Inten    --    206.8717                73.5540               331.1757

                     76                     77                     78
                      A                      A                      A
 Frequencies --   3038.1994              3046.0302              3085.3178
 Red. masses --      1.0359                 1.0366                 1.0638
 Frc consts  --      5.6337                 5.6664                 5.9665
 IR Inten    --     19.9302                20.0386                 7.0224

                     79                     80                     81
                      A                      A                      A
 Frequencies --   3099.5007              3104.0530              3108.0057
 Red. masses --      1.0954                 1.0921                 1.1019
 Frc consts  --      6.2004                 6.1996                 6.2713
 IR Inten    --     17.4458                55.2606                 5.4283

                     82                     83                     84
                      A                      A                      A
 Frequencies --   3113.5745              3123.1383              3140.0284
 Red. masses --      1.1007                 1.1009                 1.1031
 Frc consts  --      6.2869                 6.3266                 6.4082
 IR Inten    --     52.3850                27.8930                 6.4286

                     85                     86                     87
                      A                      A                      A
 Frequencies --   3157.4464              3217.9607              3245.8277
 Red. masses --      1.0890                 1.0903                 1.0941
 Frc consts  --      6.3965                 6.6518                 6.7914
 IR Inten    --     18.4696                 9.0108                 3.3770

                     88                     89                     90
                      A                      A                      A
 Frequencies --   3552.2610              3702.0661              3740.6220
 Red. masses --      1.0734                 1.0643                 1.0662
 Frc consts  --      7.9802                 8.5940                 8.7896
 IR Inten    --     35.9870                80.5471                 7.6936

 - Thermochemistry -
 -------------------
 Temperature   298.150 Kelvin.  Pressure   1.00000 Atm.
 Atom     1 has atomic number  6 and mass  12.00000

 Molecular mass:   237.11134 amu.
 Principal axes and moments of inertia in atomic units:
                           1         2         3
     Eigenvalues --  2401.357395576.995177013.75508
           X            0.99974  -0.02242  -0.00282
           Y            0.02241   0.99974  -0.00357
           Z            0.00290   0.00350   0.99999
 This molecule is an asymmetric top.
 Rotational symmetry number  1.
 Warning -- assumption of classical behavior for rotation
           may cause significant error
 Rotational temperatures (Kelvin)      0.03607     0.01553     0.01235
 Rotational constants (GHZ):           0.75155     0.32360     0.25731
 Zero-point vibrational energy     685167.8 (Joules/Mol)
                                  163.75903 (Kcal/Mol)
 Warning -- explicit consideration of  25 degrees of freedom as
           vibrations may cause significant error
 Vibrational temperatures:     41.53    47.78    66.65    96.92   149.06
          (Kelvin)            211.59   256.90   271.12   290.10   348.21
                              360.49   374.14   399.76   408.27   427.42
                              492.01   547.68   574.40   598.84   650.79
                              663.01   748.71   793.05   815.41   880.65
                              904.73   926.16   943.99  1004.69  1070.68
                             1101.53  1142.48  1173.95  1215.98  1238.10
                             1252.50  1324.21  1374.03  1397.63  1406.76
                             1421.32  1433.26  1478.37  1550.71  1568.16
                             1589.98  1631.97  1667.75  1677.08  1718.05
                             1743.17  1780.67  1783.55  1806.52  1826.79
                             1834.45  1873.55  1905.90  1916.60  1960.03
                             2007.71  2051.29  2062.06  2075.70  2090.31
                             2163.80  2173.72  2176.90  2187.57  2213.49
                             2214.50  2255.21  2296.51  2335.51  2606.17
                             4371.29  4382.56  4439.08  4459.49  4466.04
                             4471.73  4479.74  4493.50  4517.80  4542.86
                             4629.93  4670.02  5110.91  5326.45  5381.92

 Zero-point correction=                           0.260967 (Hartree/Particle)
 Thermal correction to Energy=                    0.277309
 Thermal correction to Enthalpy=                  0.278253
 Thermal correction to Gibbs Free Energy=         0.216209
 Sum of electronic and zero-point Energies=           -817.868484
 Sum of electronic and thermal Energies=              -817.852141
 Sum of electronic and thermal Enthalpies=            -817.851197
 Sum of electronic and thermal Free Energies=         -817.913242

                     E (Thermal)             CV                S
                      KCal/Mol        Cal/Mol-Kelvin    Cal/Mol-Kelvin
 Total                  174.014             62.200            130.584
 Electronic               0.000              0.000              0.000
 Translational            0.889              2.981             42.292
 Rotational               0.889              2.981             32.907
 Vibrational            172.237             56.238             55.385
 Vibration     1          0.593              1.984              5.906
 Vibration     2          0.594              1.983              5.628
 Vibration     3          0.595              1.979              4.969
 Vibration     4          0.598              1.970              4.229
 Vibration     5          0.605              1.946              3.385
 Vibration     6          0.617              1.906              2.710
 Vibration     7          0.629              1.869              2.343
 Vibration     8          0.633              1.856              2.243
 Vibration     9          0.639              1.838              2.118
 Vibration    10          0.658              1.776              1.788
 Vibration    11          0.663              1.762              1.727
 Vibration    12          0.668              1.746              1.661
 Vibration    13          0.679              1.714              1.547
 Vibration    14          0.682              1.704              1.511
 Vibration    15          0.691              1.679              1.433
 Vibration    16          0.721              1.592              1.203
 Vibration    17          0.750              1.511              1.037
 Vibration    18          0.765              1.472              0.966
 Vibration    19          0.779              1.435              0.905
 Vibration    20          0.811              1.356              0.789
 Vibration    21          0.819              1.337              0.764
 Vibration    22          0.875              1.205              0.609
 Vibration    23          0.907              1.137              0.542
 Vibration    24          0.923              1.103              0.511
 Vibration    25          0.971              1.006              0.429

                           ! Non-Optimized Parameters !
 Normal termination of Gaussian 16 at Sun Dec 13 12:50:00 2020.

 ----------------------------------------------------------------------
 # B3LYP/6-311++G(d,p) empiricaldispersion=gd3bj scf=xqc pop=npa geom=c
 heck
 ----------------------------------------------------------------------

 ---------------------------------------
 CID_114631795_JID_7066_Energie_neutraal
 ---------------------------------------
 Structure from the checkpoint file:  "JID_7066.chk"
 Charge =  0 Multiplicity = 1

 SCF Done:  E(RB3LYP) =  -818.374067081     A.U. after   16 cycles
 Normal termination of Gaussian 16 at Sun Dec 13 12:55:52 2020.

 ----------------------------------------------------------------------
 # B3LYP/6-311++G(d,p) empiricaldispersion=gd3bj scf=xqc pop=npa geom=c
 heck
 ----------------------------------------------------------------------

 -------------------------------------
 CID_114631795_JID_7066_Energie_kation
 -------------------------------------
 Structure from the checkpoint file:  "JID_7066.chk"
 Charge =  1 Multiplicity = 2

 SCF Done:  E(UB3LYP) =  -818.075008026     A.U. after   30 cycles
 Normal termination of Gaussian 16 at Sun Dec 13 13:12:00 2020.
 Gaussian 16:  ES64L-G16RevA.03 25-Dec-2016

 ----------------------------------------------------------------------
 # B3LYP/6-311++G(d,p) empiricaldispersion=gd3bj scf=xqc pop=npa geom=c
 heck
 ----------------------------------------------------------------------

 ------------------------------------
 CID_114631795_JID_7066_Energie_anion
 ------------------------------------
 Structure from the checkpoint file:  "JID_7066.chk"
 Charge = -1 Multiplicity = 2

                         Standard orientation:
 ---------------------------------------------------------------------
 Center     Atomic      Atomic             Coordinates (Angstroms)
 Number     Number       Type             X           Y           Z
 ---------------------------------------------------------------------
      1          6           0        2.346265   -0.807538    1.880863
      2          6           0        2.348700   -0.731731    0.360787
      3          6           0        1.142420    0.041213   -0.284208
      4          6           0        2.125075    0.729542   -1.256594
      5          6           0        3.286755    0.341285   -0.305755
      6          8           0        3.736958    1.383535    0.543275
      7          7           0        0.038980   -0.723983   -0.820270
      8          6           0       -1.257919   -0.717407   -0.405317
      9          6           0       -2.003297    0.406089    0.054420
     10          6           0       -3.281974    0.128010    0.537162
     11          6           0       -3.767272   -1.170987    0.463393
     12          7           0       -3.067959   -2.164218   -0.105534
     13          7           0       -1.838113   -1.947137   -0.511411
     14          6           0       -1.569710    1.812864   -0.102133
     15          8           0       -0.628787    2.211898   -0.761242
     16          8           0       -2.389036    2.677107    0.554516
     17          6           0        2.580081   -2.110994   -0.258590
     18          1           0        2.274453    0.187552    2.330724
     19          1           0        3.266344   -1.270346    2.255728
     20          1           0        1.497275   -1.406268    2.233238
     21          1           0        0.747469    0.757464    0.433420
     22          1           0        1.970974    1.794545   -1.447535
     23          1           0        2.176133    0.206401   -2.216024
     24          1           0        4.189944   -0.066227   -0.768389
     25          1           0        2.977274    1.943013    0.767165
     26          1           0        0.283531   -1.646635   -1.166344
     27          1           0       -3.900063    0.931165    0.919553
     28          1           0       -4.756568   -1.437424    0.820392
     29          1           0       -2.054941    3.566777    0.337538
     30          1           0        3.544531   -2.511732    0.072655
     31          1           0        1.804178   -2.823640    0.046946
     32          1           0        2.601274   -2.079690   -1.355125
 ---------------------------------------------------------------------

 SCF Done:  E(UB3LYP) =  -818.404413906     A.U. after   24 cycles

 The electronic state is 2-A.
 Alpha  occ. eigenvalues --  -19.03475 -19.02432 -18.94953 -14.19155 -14.16184
 Alpha  occ. eigenvalues --  -14.15558 -10.13581 -10.12314 -10.09544 -10.09196
 Alpha  occ. eigenvalues --  -10.08061 -10.07232 -10.06416 -10.05833 -10.03680
 Alpha  occ. eigenvalues --  -10.02598 -10.01751  -0.96108  -0.93694  -0.86679
 Alpha  occ. eigenvalues --   -0.85482  -0.80573  -0.73953  -0.66043  -0.65196
 Alpha  occ. eigenvalues --   -0.63487  -0.59824  -0.55697  -0.53098  -0.51237
 Alpha  occ. eigenvalues --   -0.49453  -0.47262  -0.43906  -0.40400  -0.38867
 Alpha  occ. eigenvalues --   -0.38278  -0.36737  -0.35402  -0.35094  -0.34008
 Alpha  occ. eigenvalues --   -0.32962  -0.32367  -0.31039  -0.30358  -0.29929
 Alpha  occ. eigenvalues --   -0.29404  -0.29123  -0.27604  -0.26893  -0.26320
 Alpha  occ. eigenvalues --   -0.26102  -0.23971  -0.23797  -0.23582  -0.20174
 Alpha  occ. eigenvalues --   -0.18544  -0.17255  -0.16799  -0.15915  -0.14731
 Alpha  occ. eigenvalues --   -0.13431  -0.07996  -0.06778   0.03353
 Alpha virt. eigenvalues --    0.07190   0.08317   0.09003   0.09526   0.10511
 Alpha virt. eigenvalues --    0.10579   0.11151   0.12032   0.12496   0.13225
 Alpha virt. eigenvalues --    0.13472   0.13695   0.14293   0.14718   0.15337

  Beta  occ. eigenvalues --  -19.03474 -19.02380 -18.94625 -14.19133 -14.15994
  Beta  occ. eigenvalues --  -14.14875 -10.13317 -10.12314 -10.09531 -10.09196
  Beta  occ. eigenvalues --  -10.08058 -10.07231 -10.06415 -10.05827 -10.03822
  Beta  occ. eigenvalues --  -10.02416 -10.01405  -0.95814  -0.93690  -0.86212
  Beta  occ. eigenvalues --   -0.84875  -0.80293  -0.73879  -0.65404  -0.65089
  Beta  occ. eigenvalues --   -0.63109  -0.59822  -0.55581  -0.52506  -0.51095
  Beta  occ. eigenvalues --   -0.49094  -0.47148  -0.43765  -0.40209  -0.38828
  Beta  occ. eigenvalues --   -0.38245  -0.36440  -0.35269  -0.34914  -0.33939
  Beta  occ. eigenvalues --   -0.32819  -0.32206  -0.30428  -0.30052  -0.29579
  Beta  occ. eigenvalues --   -0.29236  -0.29018  -0.27065  -0.26628  -0.26233
  Beta  occ. eigenvalues --   -0.25781  -0.23755  -0.23676  -0.22953  -0.20083
  Beta  occ. eigenvalues --   -0.17403  -0.16938  -0.16317  -0.15417  -0.13148
  Beta  occ. eigenvalues --   -0.12366  -0.07083  -0.06160
  Beta virt. eigenvalues --    0.07150   0.08291   0.08977   0.09488   0.10331
  Beta virt. eigenvalues --    0.10518   0.10617   0.11129   0.11995   0.12504
  Beta virt. eigenvalues --    0.13390   0.13645   0.13797   0.14333   0.14743

 Mulliken charges and spin densities:
               1          2
     1  C   -0.382447   0.004822
     2  C   -0.041582   0.026678
     3  C   -0.300266  -0.049401
     4  C   -0.556339   0.038687
     5  C   -0.007072  -0.047149
     6  O   -0.205542  -0.000595
     7  N    0.183032   0.014491
     8  C   -1.756873   0.030672
     9  C    1.195531   0.112389
    10  C    0.038201   0.331301
    11  C   -0.358410  -0.119588
    12  N   -0.191643   0.327429
    13  N   -0.030885   0.060174
    14  C   -0.025091   0.142905
    15  O   -0.372627   0.115487
    16  O   -0.169375   0.012156
    17  C   -0.750107   0.001341
    18  H    0.124478   0.002835
    19  H    0.137493   0.001012
    20  H    0.159490  -0.000144
    21  H    0.255012  -0.004949
    22  H    0.230549  -0.000049
    23  H    0.105870   0.006525
    24  H    0.203040   0.004001
    25  H    0.238588   0.005880
    26  H    0.301411  -0.001787
    27  H    0.165470  -0.019455
    28  H    0.116252   0.003059
    29  H    0.248630  -0.001717
    30  H    0.127758   0.001198
    31  H    0.177983   0.000151
    32  H    0.139470   0.001640
 Sum of Mulliken charges =  -1.00000   1.00000

 Dipole moment (field-independent basis, Debye):
    X=              6.9327    Y=              2.4181    Z=              1.1852  Tot=              7.4374
 Quadrupole moment (field-independent basis, Debye-Ang):
   XX=           -148.4845   YY=           -126.6286   ZZ=           -111.4078
   XY=            -18.9026   XZ=             -4.2212   YZ=              1.2232

 Summary of Natural Population Analysis:

                                       Natural Population
                Natural  -----------------------------------------------
    Atom  No    Charge         Core      Valence    Rydberg      Total
 -----------------------------------------------------------------------
      C    1   -0.28664      0.99962     2.28091    0.00611     3.28664
      C    2   -0.05013      0.99955     2.04063    0.00995     3.05013
      C    3   -0.00249      0.99952     1.98539    0.01758     3.00249
      C    4   -0.20592      0.99961     2.19732    0.00899     3.20592
      C    5    0.06939      0.99951     1.91577    0.01533     2.93061
      O    6   -0.37040      0.99989     3.36420    0.00631     4.37040
      N    7   -0.31531      0.99964     2.79973    0.01595     3.81531
      C    8    0.20731      0.99952     1.77634    0.01683     2.79269
      C    9   -0.08842      0.99941     2.07937    0.00964     3.08842
      C   10   -0.01856      0.99955     2.01102    0.00800     3.01856
      C   11   -0.06060      0.99960     2.04525    0.01575     3.06060
      N   12   -0.02527      0.99973     2.50669    0.01885     3.52527
      N   13   -0.14946      0.99970     2.63428    0.01548     3.64946
      C   14    0.42529      0.99967     1.55005    0.02499     2.57471
      O   15   -0.30708      0.99987     3.29939    0.00781     4.30708
      O   16   -0.35583      0.99988     3.34859    0.00737     4.35583
      C   17   -0.29345      0.99963     2.28785    0.00597     3.29345
      H   18    0.09998      0.00000     0.39900    0.00102     0.40002
      H   19    0.09525      0.00000     0.40386    0.00089     0.40475
      H   20    0.10427      0.00000     0.39489    0.00084     0.39573
      H   21    0.10735      0.00000     0.39003    0.00262     0.39265
      H   22    0.10719      0.00000     0.39055    0.00226     0.39281
      H   23    0.10078      0.00000     0.39826    0.00096     0.39922
      H   24    0.07935      0.00000     0.41935    0.00130     0.42065
      H   25    0.22827      0.00000     0.26949    0.00224     0.27173
      H   26    0.18824      0.00000     0.30925    0.00250     0.31176
      H   27    0.09941      0.00000     0.39946    0.00113     0.40059
      H   28    0.08297      0.00000     0.41564    0.00139     0.41703
      H   29    0.23094      0.00000     0.26604    0.00301     0.26906
      H   30    0.09783      0.00000     0.40130    0.00087     0.40217
      H   31    0.10681      0.00000     0.39211    0.00108     0.39319
      H   32    0.09894      0.00000     0.40030    0.00076     0.40106
 =======================================================================
   * Total *    0.00000     16.99391    45.77229    0.23380    63.00000

 Normal termination of Gaussian 16 at Sun Dec 13 13:25:11 2020.
