 Gaussian 16, Revision A.03,

 -----------------------------------------------------------
 # opt freq B3LYP/6-31G(d) empiricaldispersion=gd3bj scf=xqc
 -----------------------------------------------------------

 -------------------------------
 CID_148189427_JID_3993_neutraal
 -------------------------------
 Symbolic Z-matrix:
 Charge =  0 Multiplicity = 1

 SCF Done:  E(RB3LYP) =  -602.525709441     A.U. after   14 cycles
 SCF Done:  E(RB3LYP) =  -602.531938528     A.U. after   13 cycles
 SCF Done:  E(RB3LYP) =  -602.534695265     A.U. after   13 cycles
 SCF Done:  E(RB3LYP) =  -602.537548036     A.U. after   13 cycles
 SCF Done:  E(RB3LYP) =  -602.538383396     A.U. after   12 cycles
 SCF Done:  E(RB3LYP) =  -602.538661172     A.U. after   12 cycles
 SCF Done:  E(RB3LYP) =  -602.538783454     A.U. after   12 cycles
 SCF Done:  E(RB3LYP) =  -602.538821110     A.U. after   11 cycles
 SCF Done:  E(RB3LYP) =  -602.538832695     A.U. after    9 cycles
 SCF Done:  E(RB3LYP) =  -602.538837151     A.U. after    9 cycles
 SCF Done:  E(RB3LYP) =  -602.538839594     A.U. after    8 cycles
 SCF Done:  E(RB3LYP) =  -602.538842275     A.U. after    9 cycles
 SCF Done:  E(RB3LYP) =  -602.538843897     A.U. after    9 cycles
 SCF Done:  E(RB3LYP) =  -602.538844542     A.U. after    8 cycles
 SCF Done:  E(RB3LYP) =  -602.538844706     A.U. after    7 cycles
 SCF Done:  E(RB3LYP) =  -602.538844758     A.U. after    7 cycles
 Optimization completed.
    -- Stationary point found.

 1\1\GINC-NODE205\FOpt\RB3LYP\6-31G(d)\C7H12N6\VSC10255\13-Dec-2020\0\\
 # opt freq B3LYP/6-31G(d) empiricaldispersion=gd3bj scf=xqc\\CID_14818
 9427_JID_3993_neutraal\\0,1\C,1.7839500757,1.5569519951,-0.0415532466\
 C,0.4888874792,0.8319472345,0.212036479\C,0.4256423184,-0.5451582507,0
 .4801350263\N,-0.7441451213,-1.2088961818,0.6397277197\C,-1.8393237467
 ,-0.4682030091,0.5658184559\N,-1.9250879958,0.8500774893,0.3774478808\
 C,-0.7526014711,1.4991536508,0.2005542031\N,-0.8148624909,2.8521775974
 ,-0.0351155137\C,-2.063319386,3.608936497,-0.009927895\C,-2.5023891858

 Normal termination of Gaussian 16 at Sun Dec 13 16:03:34 2020.

 --------------------------------------------------------------------
 #N Geom=AllCheck Guess=TCheck SCRF=Check GenChk RB3LYP/6-31G(d) Freq
 --------------------------------------------------------------------

 Structure from the checkpoint file:  "JID_3993.chk"
 -------------------------------
 CID_148189427_JID_3993_neutraal
 -------------------------------
 Charge =  0 Multiplicity = 1

 SCF Done:  E(RB3LYP) =  -602.538844758     A.U. after    1 cycles

  Exact polarizability: 151.927   9.898 120.332   7.921  -1.880  67.360
 Approx polarizability: 218.852  22.584 195.362  18.913  -7.134 105.040

                      1                      2                      3
                      A                      A                      A
 Frequencies --     45.3190                53.4442                83.2593
 Red. masses --      5.8444                 4.2576                 1.9007
 Frc consts  --      0.0071                 0.0072                 0.0078
 IR Inten    --      1.2042                 1.2408                 3.3891

                      4                      5                      6
                      A                      A                      A
 Frequencies --    102.4205               132.0135               199.5962
 Red. masses --      1.8088                 4.1173                 3.7107
 Frc consts  --      0.0112                 0.0423                 0.0871
 IR Inten    --      2.0253                 2.9357                 2.9185

                      7                      8                      9
                      A                      A                      A
 Frequencies --    218.9840               239.1412               299.1047
 Red. masses --      3.9919                 4.0193                 3.5579
 Frc consts  --      0.1128                 0.1354                 0.1875
 IR Inten    --      3.0294                 5.1974                 1.7986

                     10                     11                     12
                      A                      A                      A
 Frequencies --    350.5825               357.9711               379.1448
 Red. masses --      2.9381                 1.5222                 1.9534
 Frc consts  --      0.2128                 0.1149                 0.1654
 IR Inten    --     49.6639               124.9041                82.4510

                     13                     14                     15
                      A                      A                      A
 Frequencies --    445.1658               451.8879               489.2782
 Red. masses --      1.9612                 1.7745                 1.6336
 Frc consts  --      0.2290                 0.2135                 0.2304
 IR Inten    --      7.5450                58.3713               124.0222

                     16                     17                     18
                      A                      A                      A
 Frequencies --    512.9155               523.3011               524.5717
 Red. masses --      1.4928                 2.3526                 3.0595
 Frc consts  --      0.2314                 0.3796                 0.4960
 IR Inten    --     56.9837                27.2382                13.9155

                     19                     20                     21
                      A                      A                      A
 Frequencies --    549.9249               566.3919               605.1540
 Red. masses --      3.2930                 1.5583                 2.6627
 Frc consts  --      0.5867                 0.2945                 0.5745
 IR Inten    --     12.1292                97.7737                52.9131

                     22                     23                     24
                      A                      A                      A
 Frequencies --    626.7310               697.8737               735.1581
 Red. masses --      1.3982                 9.8346                 4.9847
 Frc consts  --      0.3236                 2.8220                 1.5873
 IR Inten    --    132.1450                 3.0702                13.6916

                     25                     26                     27
                      A                      A                      A
 Frequencies --    745.4628               800.0020               825.5947
 Red. masses --      3.7469                 7.8566                 1.1724
 Frc consts  --      1.2268                 2.9625                 0.4708
 IR Inten    --      4.1742                31.8289                48.0224

                     28                     29                     30
                      A                      A                      A
 Frequencies --    885.7578               896.6024               943.2329
 Red. masses --      3.7188                 5.6815                 2.3217
 Frc consts  --      1.7190                 2.6910                 1.2170
 IR Inten    --      5.6143                15.5562                 0.7921

                     31                     32                     33
                      A                      A                      A
 Frequencies --    987.5964              1005.5893              1056.6166
 Red. masses --      1.4420                 1.8554                 1.7104
 Frc consts  --      0.8286                 1.1054                 1.1251
 IR Inten    --      1.3220                 5.8019                21.8315

                     34                     35                     36
                      A                      A                      A
 Frequencies --   1066.4930              1075.5707              1164.6790
 Red. masses --      1.4723                 2.8245                 1.8764
 Frc consts  --      0.9867                 1.9252                 1.4997
 IR Inten    --      3.1666                 0.2181                56.9960

                     37                     38                     39
                      A                      A                      A
 Frequencies --   1178.6510              1201.9618              1233.1546
 Red. masses --      1.9718                 1.5505                 2.7552
 Frc consts  --      1.6139                 1.3198                 2.4685
 IR Inten    --    112.4279                18.9682                50.5657

                     40                     41                     42
                      A                      A                      A
 Frequencies --   1270.7430              1334.8901              1361.8877
 Red. masses --      1.3566                 4.8066                 1.7008
 Frc consts  --      1.2906                 5.0463                 1.8586
 IR Inten    --     33.7979                24.9972                52.5009

                     43                     44                     45
                      A                      A                      A
 Frequencies --   1383.3632              1389.7836              1436.3116
 Red. masses --      2.9779                 1.4444                 1.6252
 Frc consts  --      3.3577                 1.6438                 1.9754
 IR Inten    --     16.9128                20.2734                20.7151

                     46                     47                     48
                      A                      A                      A
 Frequencies --   1459.0680              1466.1048              1495.5866
 Red. masses --      2.3504                 1.5369                 1.6124
 Frc consts  --      2.9482                 1.9463                 2.1250
 IR Inten    --     42.0423                42.8049                52.1408

                     49                     50                     51
                      A                      A                      A
 Frequencies --   1500.3297              1524.3200              1539.6602
 Red. masses --      1.2722                 1.1987                 1.1029
 Frc consts  --      1.6873                 1.6410                 1.5404
 IR Inten    --     41.6478                20.6529                11.1005

                     52                     53                     54
                      A                      A                      A
 Frequencies --   1556.8739              1629.3539              1645.5249
 Red. masses --      3.0249                 4.7113                 3.1642
 Frc consts  --      4.3198                 7.3693                 5.0481
 IR Inten    --     86.8619                69.5704               455.2393

                     55                     56                     57
                      A                      A                      A
 Frequencies --   1662.2562              1675.3862              1736.5310
 Red. masses --      1.2907                 1.5358                 5.1577
 Frc consts  --      2.1013                 2.5399                 9.1637
 IR Inten    --     88.5662               428.2620               242.8296

                     58                     59                     60
                      A                      A                      A
 Frequencies --   3030.5051              3084.9553              3085.6015
 Red. masses --      1.0413                 1.0679                 1.0919
 Frc consts  --      5.6346                 5.9877                 6.1251
 IR Inten    --     33.3779                34.3077                28.5150

                     61                     62                     63
                      A                      A                      A
 Frequencies --   3106.7672              3149.1251              3176.3801
 Red. masses --      1.1000                 1.1024                 1.0905
 Frc consts  --      6.2557                 6.4415                 6.4828
 IR Inten    --     16.3842                 7.0619                35.2220

                     64                     65                     66
                      A                      A                      A
 Frequencies --   3457.7876              3507.3040              3594.5568
 Red. masses --      1.0750                 1.0514                 1.0465
 Frc consts  --      7.5731                 7.6199                 7.9668
 IR Inten    --      4.7162               181.4887                51.2627

                     67                     68                     69
                      A                      A                      A
 Frequencies --   3631.0821              3652.7501              3713.4502
 Red. masses --      1.0759                 1.0980                 1.1012
 Frc consts  --      8.3582                 8.6316                 8.9472
 IR Inten    --     20.2877                78.8544                26.8032

 - Thermochemistry -
 -------------------
 Temperature   298.150 Kelvin.  Pressure   1.00000 Atm.
 Atom     1 has atomic number  6 and mass  12.00000

 Molecular mass:   180.11234 amu.
 Principal axes and moments of inertia in atomic units:
                           1         2         3
     Eigenvalues --  1114.967143752.750904436.48655
           X            0.99989  -0.01345   0.00592
           Y            0.01342   0.99989   0.00577
           Z           -0.00600  -0.00569   0.99997
 This molecule is an asymmetric top.
 Rotational symmetry number  1.
 Warning -- assumption of classical behavior for rotation
           may cause significant error
 Rotational temperatures (Kelvin)      0.07768     0.02308     0.01952
 Rotational constants (GHZ):           1.61865     0.48091     0.40680
 Zero-point vibrational energy     547378.5 (Joules/Mol)
                                  130.82660 (Kcal/Mol)
 Warning -- explicit consideration of  21 degrees of freedom as
           vibrations may cause significant error
 Vibrational temperatures:     65.20    76.89   119.79   147.36   189.94
          (Kelvin)            287.17   315.07   344.07   430.35   504.41
                              515.04   545.50   640.49   650.17   703.96
                              737.97   752.91   754.74   791.22   814.91
                              870.68   901.73  1004.08  1057.73  1072.55
                             1151.02  1187.85  1274.41  1290.01  1357.10
                             1420.93  1446.82  1520.24  1534.45  1547.51
                             1675.71  1695.82  1729.35  1774.23  1828.32
                             1920.61  1959.45  1990.35  1999.59  2066.53
                             2099.27  2109.40  2151.82  2158.64  2193.16
                             2215.23  2239.99  2344.28  2367.54  2391.62
                             2410.51  2498.48  4360.22  4438.56  4439.49
                             4469.95  4530.89  4570.10  4974.99  5046.23
                             5171.77  5224.32  5255.49  5342.83

 Zero-point correction=                           0.208485 (Hartree/Particle)
 Thermal correction to Energy=                    0.221229
 Thermal correction to Enthalpy=                  0.222173
 Thermal correction to Gibbs Free Energy=         0.169083
 Sum of electronic and zero-point Energies=           -602.330359
 Sum of electronic and thermal Energies=              -602.317615
 Sum of electronic and thermal Enthalpies=            -602.316671
 Sum of electronic and thermal Free Energies=         -602.369762

                     E (Thermal)             CV                S
                      KCal/Mol        Cal/Mol-Kelvin    Cal/Mol-Kelvin
 Total                  138.823             48.413            111.739
 Electronic               0.000              0.000              0.000
 Translational            0.889              2.981             41.472
 Rotational               0.889              2.981             31.296
 Vibrational            137.046             42.451             38.971
 Vibration     1          0.595              1.979              5.012
 Vibration     2          0.596              1.976              4.686
 Vibration     3          0.600              1.961              3.813
 Vibration     4          0.604              1.947              3.408
 Vibration     5          0.612              1.921              2.916
 Vibration     6          0.638              1.840              2.137
 Vibration     7          0.647              1.812              1.967
 Vibration     8          0.657              1.781              1.809
 Vibration     9          0.692              1.675              1.422
 Vibration    10          0.727              1.574              1.164
 Vibration    11          0.733              1.559              1.131
 Vibration    12          0.749              1.515              1.043
 Vibration    13          0.805              1.372              0.811
 Vibration    14          0.811              1.357              0.790
 Vibration    15          0.845              1.274              0.685
 Vibration    16          0.868              1.221              0.627
 Vibration    17          0.878              1.198              0.602
 Vibration    18          0.880              1.196              0.599
 Vibration    19          0.905              1.140              0.544
 Vibration    20          0.922              1.104              0.511
 Vibration    21          0.964              1.021              0.441

                           ! Non-Optimized Parameters !

 1\1\GINC-NODE205\Freq\RB3LYP\6-31G(d)\C7H12N6\VSC10255\13-Dec-2020\0\\
 #N Geom=AllCheck Guess=TCheck SCRF=Check GenChk RB3LYP/6-31G(d) Freq\\
 CID_148189427_JID_3993_neutraal\\0,1\C,1.7839500757,1.5569519951,-0.04
 15532466\C,0.4888874792,0.8319472345,0.212036479\C,0.4256423184,-0.545
 1582507,0.4801350263\N,-0.7441451213,-1.2088961818,0.6397277197\C,-1.8
 393237467,-0.4682030091,0.5658184559\N,-1.9250879958,0.8500774893,0.37
 74478808\C,-0.7526014711,1.4991536508,0.2005542031\N,-0.8148624909,2.8
 521775974,-0.0351155137\C,-2.063319386,3.608936497,-0.009927895\C,-2.5

 Normal termination of Gaussian 16 at Sun Dec 13 16:09:39 2020.

 ----------------------------------------------------------------------
 # B3LYP/6-311++G(d,p) empiricaldispersion=gd3bj scf=xqc pop=npa geom=c
 heck
 ----------------------------------------------------------------------

 ---------------------------------------
 CID_148189427_JID_3993_Energie_neutraal
 ---------------------------------------
 Structure from the checkpoint file:  "JID_3993.chk"
 Charge =  0 Multiplicity = 1

 SCF Done:  E(RB3LYP) =  -602.725461659     A.U. after   14 cycles
 Normal termination of Gaussian 16 at Sun Dec 13 16:12:08 2020.

 ----------------------------------------------------------------------
 # B3LYP/6-311++G(d,p) empiricaldispersion=gd3bj scf=xqc pop=npa geom=c
 heck
 ----------------------------------------------------------------------

 -------------------------------------
 CID_148189427_JID_3993_Energie_kation
 -------------------------------------
 Structure from the checkpoint file:  "JID_3993.chk"
 Charge =  1 Multiplicity = 2

 SCF Done:  E(UB3LYP) =  -602.432451181     A.U. after   28 cycles
 Normal termination of Gaussian 16 at Sun Dec 13 16:19:03 2020.
 Gaussian 16:  ES64L-G16RevA.03 25-Dec-2016

 ------------------------------------
 CID_148189427_JID_3993_Energie_anion
 ------------------------------------
 Structure from the checkpoint file:  "JID_3993.chk"
 Charge = -1 Multiplicity = 2

                         Standard orientation:
 ---------------------------------------------------------------------
 Center     Atomic      Atomic             Coordinates (Angstroms)
 Number     Number       Type             X           Y           Z
 ---------------------------------------------------------------------
      1          6           0       -1.596289    2.234764   -0.089144
      2          6           0       -1.429004    0.743494    0.034364
      3          6           0       -2.473556   -0.163683   -0.206962
      4          7           0       -2.341177   -1.499781   -0.028810
      5          6           0       -1.142514   -1.912006    0.354312
      6          7           0       -0.050281   -1.173875    0.561420
      7          6           0       -0.198982    0.159858    0.399066
      8          7           0        0.900770    0.947385    0.644906
      9          6           0        2.213802    0.401576    0.976573
     10          6           0        3.001225   -0.049179   -0.254870
     11          7           0        3.867494    0.662206   -0.883343
     12          7           0        2.689991   -1.320419   -0.664986
     13          7           0       -3.701054    0.234052   -0.671020
     14          1           0       -1.356671    2.609772   -1.094056
     15          1           0       -2.621265    2.551022    0.135668
     16          1           0       -0.955541    2.760847    0.627075
     17          1           0       -1.027463   -2.983973    0.507366
     18          1           0        0.914536    1.843197    0.179841
     19          1           0        2.776298    1.182871    1.496360
     20          1           0        2.064001   -0.432996    1.664011
     21          1           0        4.017123    1.545294   -0.391165
     22          1           0        1.790346   -1.684099   -0.364369
     23          1           0        3.005420   -1.567313   -1.594059
     24          1           0       -4.432173   -0.457622   -0.579360
     25          1           0       -3.982899    1.197070   -0.574514
 ---------------------------------------------------------------------

 SCF Done:  E(UB3LYP) =  -602.719420273     A.U. after   30 cycles

 The electronic state is 2-A.
 Alpha  occ. eigenvalues --  -14.24092 -14.22451 -14.22253 -14.20722 -14.20301
 Alpha  occ. eigenvalues --  -14.17906 -10.15578 -10.15273 -10.14738 -10.13906
 Alpha  occ. eigenvalues --  -10.12047 -10.08154 -10.06850  -0.90040  -0.86468
 Alpha  occ. eigenvalues --   -0.84325  -0.81693  -0.75960  -0.75136  -0.69858
 Alpha  occ. eigenvalues --   -0.62713  -0.60529  -0.53899  -0.53074  -0.49113
 Alpha  occ. eigenvalues --   -0.46938  -0.45606  -0.43964  -0.39861  -0.39187
 Alpha  occ. eigenvalues --   -0.36653  -0.35251  -0.34665  -0.34180  -0.33477
 Alpha  occ. eigenvalues --   -0.32807  -0.30931  -0.30470  -0.28818  -0.27075
 Alpha  occ. eigenvalues --   -0.26168  -0.22210  -0.20497  -0.17404  -0.16688
 Alpha  occ. eigenvalues --   -0.15320  -0.14376  -0.12248   0.04087
 Alpha virt. eigenvalues --    0.06378   0.07617   0.07801   0.08507   0.08996
 Alpha virt. eigenvalues --    0.09291   0.09688   0.10716   0.10813   0.11127
 Alpha virt. eigenvalues --    0.12019   0.12848   0.12877   0.14202   0.14728

  Beta  occ. eigenvalues --  -14.24058 -14.22384 -14.22247 -14.20717 -14.20289
  Beta  occ. eigenvalues --  -14.17881 -10.15570 -10.15266 -10.14739 -10.13903
  Beta  occ. eigenvalues --  -10.12028 -10.08154 -10.06769  -0.90017  -0.86433
  Beta  occ. eigenvalues --   -0.84294  -0.81636  -0.75920  -0.75100  -0.69815
  Beta  occ. eigenvalues --   -0.62658  -0.60452  -0.53830  -0.53003  -0.49079
  Beta  occ. eigenvalues --   -0.46892  -0.45560  -0.43929  -0.39805  -0.39129
  Beta  occ. eigenvalues --   -0.36619  -0.35217  -0.34628  -0.34134  -0.33436
  Beta  occ. eigenvalues --   -0.32733  -0.30886  -0.30411  -0.28746  -0.27041
  Beta  occ. eigenvalues --   -0.26130  -0.22167  -0.20468  -0.17374  -0.16664
  Beta  occ. eigenvalues --   -0.15282  -0.14332  -0.12205
  Beta virt. eigenvalues --    0.06809   0.07704   0.07868   0.07932   0.08852
  Beta virt. eigenvalues --    0.09123   0.09810   0.10117   0.11070   0.11358
  Beta virt. eigenvalues --    0.11731   0.12359   0.13179   0.13578   0.14158

 Mulliken charges and spin densities:
               1          2
     1  C    4.007912  -4.932982
     2  C   -2.153352   2.693756
     3  C   -1.303210   0.838558
     4  N   -0.127899  -0.059081
     5  C    0.188298  -0.196830
     6  N   -0.249716  -0.017261
     7  C    1.031885  -1.027251
     8  N   -0.041678   0.103248
     9  C    0.192716  -0.750088
    10  C   -0.145431   0.237403
    11  N   -0.359658  -0.002141
    12  N   -0.244194  -0.041487
    13  N   -0.350086   0.084433
    14  H   -0.272586   0.478336
    15  H   -0.589636   0.728228
    16  H   -0.550232   0.706123
    17  H    0.146248   0.036840
    18  H   -0.123995   0.409063
    19  H   -0.312795   0.503805
    20  H    0.220599  -0.015354
    21  H    0.014782   0.182392
    22  H    0.325158  -0.053256
    23  H    0.203873   0.049798
    24  H   -0.129888   0.402419
    25  H   -0.377115   0.641326
 Sum of Mulliken charges =  -1.00000   1.00000

 Dipole moment (field-independent basis, Debye):
    X=              3.4524    Y=             -7.2018    Z=              0.9857  Tot=              8.0471
 Quadrupole moment (field-independent basis, Debye-Ang):
   XX=           -161.0341   YY=           -123.7913   ZZ=           -102.2095
   XY=              6.8479   XZ=              0.4244   YZ=              0.7900

 Summary of Natural Population Analysis:

                                       Natural Population
                Natural  -----------------------------------------------
    Atom  No    Charge         Core      Valence    Rydberg      Total
 -----------------------------------------------------------------------
      C    1   -0.29979      0.99965     2.29308    0.00705     3.29979
      C    2   -0.09014      0.99944     2.08037    0.01033     3.09014
      C    3    0.21214      0.99950     1.77215    0.01621     2.78786
      N    4   -0.28310      0.99968     2.77315    0.01027     3.78310
      C    5    0.15274      0.99966     1.82956    0.01804     2.84726
      N    6   -0.31114      0.99967     2.80141    0.01006     3.81114
      C    7    0.21981      0.99949     1.76479    0.01591     2.78019
      N    8   -0.30449      0.99967     2.79351    0.01132     3.80449
      C    9   -0.11834      0.99956     2.10621    0.01256     3.11834
      C   10    0.21412      0.99967     1.76737    0.01884     2.78588
      N   11   -0.36880      0.99971     2.86016    0.00894     3.86880
      N   12   -0.40701      0.99969     2.89886    0.00846     3.90701
      N   13   -0.38514      0.99970     2.87580    0.00964     3.88514
      H   14    0.10821      0.00000     0.39019    0.00160     0.39179
      H   15    0.10877      0.00000     0.38717    0.00406     0.39123
      H   16    0.10900      0.00000     0.38835    0.00265     0.39100
      H   17    0.07910      0.00000     0.41989    0.00101     0.42090
      H   18    0.19898      0.00000     0.29667    0.00434     0.30102
      H   19    0.10344      0.00000     0.39525    0.00131     0.39656
      H   20    0.11058      0.00000     0.38766    0.00175     0.38942
      H   21    0.16408      0.00000     0.33366    0.00226     0.33592
      H   22    0.20550      0.00000     0.29234    0.00216     0.29450
      H   23    0.18791      0.00000     0.31041    0.00168     0.31209
      H   24    0.19424      0.00000     0.30291    0.00285     0.30576
      H   25    0.19931      0.00000     0.29381    0.00688     0.30069
 =======================================================================
   * Total *   -0.00000     12.99508    34.81474    0.19018    48.00000

 Normal termination of Gaussian 16 at Sun Dec 13 16:26:27 2020.
