 Gaussian 16, Revision A.03,

 -----------------------------------------------------------
 # opt freq B3LYP/6-31G(d) empiricaldispersion=gd3bj scf=xqc
 -----------------------------------------------------------

 -------------------------------
 CID_150155227_JID_2590_neutraal
 -------------------------------
 Symbolic Z-matrix:
 Charge =  0 Multiplicity = 1

 SCF Done:  E(RB3LYP) =  -582.962800368     A.U. after   16 cycles
 SCF Done:  E(RB3LYP) =  -582.972117754     A.U. after   14 cycles
 SCF Done:  E(RB3LYP) =  -582.973984085     A.U. after   14 cycles
 SCF Done:  E(RB3LYP) =  -582.975447269     A.U. after   13 cycles
 SCF Done:  E(RB3LYP) =  -582.975940264     A.U. after   13 cycles
 SCF Done:  E(RB3LYP) =  -582.976181970     A.U. after   13 cycles
 SCF Done:  E(RB3LYP) =  -582.976370928     A.U. after   12 cycles
 SCF Done:  E(RB3LYP) =  -582.976520035     A.U. after   12 cycles
 SCF Done:  E(RB3LYP) =  -582.976569250     A.U. after   12 cycles
 SCF Done:  E(RB3LYP) =  -582.976614679     A.U. after   12 cycles
 SCF Done:  E(RB3LYP) =  -582.978213088     A.U. after   12 cycles
 SCF Done:  E(RB3LYP) =  -582.978216431     A.U. after   11 cycles
 SCF Done:  E(RB3LYP) =  -582.978205280     A.U. after   11 cycles
 SCF Done:  E(RB3LYP) =  -582.978219017     A.U. after   11 cycles
 SCF Done:  E(RB3LYP) =  -582.978219323     A.U. after    8 cycles
 SCF Done:  E(RB3LYP) =  -582.978219626     A.U. after    9 cycles
 Optimization completed.
    -- Stationary point found.
 Normal termination of Gaussian 16 at Wed Dec  9 17:50:57 2020.

 --------------------------------------------------------------------
 #N Geom=AllCheck Guess=TCheck SCRF=Check GenChk RB3LYP/6-31G(d) Freq
 --------------------------------------------------------------------

 Structure from the checkpoint file:  "JID_2590.chk"
 -------------------------------
 CID_150155227_JID_2590_neutraal
 -------------------------------
 Charge =  0 Multiplicity = 1

 SCF Done:  E(RB3LYP) =  -582.978219626     A.U. after    1 cycles

  Exact polarizability:  94.795  -3.917 102.426  -5.092   7.414  70.095
 Approx polarizability: 127.590 -15.269 202.012  -9.759  30.256 109.350

                      1                      2                      3
                      A                      A                      A
 Frequencies --     38.2186                61.0881                99.0716
 Red. masses --      5.7342                 7.6525                 5.4312
 Frc consts  --      0.0049                 0.0168                 0.0314
 IR Inten    --      3.6904                 2.4613                 1.9032

                      4                      5                      6
                      A                      A                      A
 Frequencies --    123.8430               137.8469               172.3977
 Red. masses --      4.1478                 4.4044                 3.8708
 Frc consts  --      0.0375                 0.0493                 0.0678
 IR Inten    --      0.5291                 1.4329                 3.1369

                      7                      8                      9
                      A                      A                      A
 Frequencies --    272.1351               317.6853               395.0848
 Red. masses --      5.5576                 1.7251                 3.6580
 Frc consts  --      0.2425                 0.1026                 0.3364
 IR Inten    --     11.6065                30.8377                 5.4020

                     10                     11                     12
                      A                      A                      A
 Frequencies --    407.2707               449.4318               482.7526
 Red. masses --      2.5214                 4.4041                 1.4590
 Frc consts  --      0.2464                 0.5241                 0.2003
 IR Inten    --      1.5679                 9.6667               109.6823

                     13                     14                     15
                      A                      A                      A
 Frequencies --    574.7420               597.6354               631.3412
 Red. masses --     12.1271                 2.5630                 4.5851
 Frc consts  --      2.3602                 0.5394                 1.0768
 IR Inten    --     11.8392                17.3360                10.8198

                     16                     17                     18
                      A                      A                      A
 Frequencies --    691.8215               711.6142               720.1870
 Red. masses --      4.1681                 4.4797                 4.5563
 Frc consts  --      1.1754                 1.3366                 1.3924
 IR Inten    --     19.5834                35.2555                21.0384

                     19                     20                     21
                      A                      A                      A
 Frequencies --    783.6002               808.8258               853.4788
 Red. masses --      2.9231                 4.4904                 2.9493
 Frc consts  --      1.0575                 1.7308                 1.2658
 IR Inten    --     33.4751                 0.4142                12.8843

                     22                     23                     24
                      A                      A                      A
 Frequencies --    890.5861               946.4811               967.1115
 Red. masses --      2.9274                 1.4884                 2.6307
 Frc consts  --      1.3680                 0.7856                 1.4497
 IR Inten    --      5.3330                 3.5405                 8.1588

                     25                     26                     27
                      A                      A                      A
 Frequencies --   1000.9930              1022.7034              1053.3506
 Red. masses --      2.5640                 2.0954                 2.8471
 Frc consts  --      1.5137                 1.2913                 1.8612
 IR Inten    --     25.6106                 1.7263                 4.0195

                     28                     29                     30
                      A                      A                      A
 Frequencies --   1071.9366              1106.5584              1159.6476
 Red. masses --      3.2273                 2.2661                 1.5840
 Frc consts  --      2.1849                 1.6348                 1.2551
 IR Inten    --      9.1221                 9.4334                10.1319

                     31                     32                     33
                      A                      A                      A
 Frequencies --   1164.3196              1179.9439              1216.3634
 Red. masses --      1.4108                 2.1522                 2.0915
 Frc consts  --      1.1269                 1.7655                 1.8232
 IR Inten    --      1.5658                76.4466                18.4802

                     34                     35                     36
                      A                      A                      A
 Frequencies --   1239.1640              1264.1924              1295.7747
 Red. masses --      1.4928                 1.7002                 1.5048
 Frc consts  --      1.3506                 1.6010                 1.4886
 IR Inten    --     11.4583                18.1330                31.0218

                     37                     38                     39
                      A                      A                      A
 Frequencies --   1309.2422              1317.5785              1341.6155
 Red. masses --      2.8031                 1.6801                 1.3945
 Frc consts  --      2.8309                 1.7185                 1.4788
 IR Inten    --     54.2183                20.1148                12.1992

                     40                     41                     42
                      A                      A                      A
 Frequencies --   1365.0897              1399.6060              1409.1186
 Red. masses --      1.6583                 2.0229                 1.4976
 Frc consts  --      1.8207                 2.3348                 1.7520
 IR Inten    --     36.4554                10.0875                14.2262

                     43                     44                     45
                      A                      A                      A
 Frequencies --   1469.1546              1512.8065              1548.0272
 Red. masses --      1.5063                 1.0881                 1.0942
 Frc consts  --      1.9156                 1.4672                 1.5449
 IR Inten    --     16.5656                 4.5817                 7.4418

                     46                     47                     48
                      A                      A                      A
 Frequencies --   1548.1847              1902.2881              2247.7433
 Red. masses --      1.0958                11.3063                13.8492
 Frc consts  --      1.5474                24.1059                41.2258
 IR Inten    --      4.6889               450.2447               363.2567

                     49                     50                     51
                      A                      A                      A
 Frequencies --   2966.7917              3055.4961              3093.3786
 Red. masses --      1.0735                 1.0569                 1.0615
 Frc consts  --      5.5669                 5.8136                 5.9849
 IR Inten    --     52.0016                39.9799                 5.5207

                     52                     53                     54
                      A                      A                      A
 Frequencies --   3103.6167              3108.0521              3140.9389
 Red. masses --      1.0902                 1.1097                 1.1040
 Frc consts  --      6.1872                 6.3157                 6.4169
 IR Inten    --     30.6671                26.6938                 5.3819

                     55                     56                     57
                      A                      A                      A
 Frequencies --   3153.9621              3529.9295              3607.0478
 Red. masses --      1.0910                 1.0752                 1.0794
 Frc consts  --      6.3943                 7.8938                 8.2744
 IR Inten    --     24.3109                 0.8218                20.7874

 - Thermochemistry -
 -------------------
 Temperature   298.150 Kelvin.  Pressure   1.00000 Atm.
 Atom     1 has atomic number  6 and mass  12.00000

 Molecular mass:   167.08071 amu.
 Principal axes and moments of inertia in atomic units:
                           1         2         3
     Eigenvalues --  1003.477442620.503643034.55070
           X            0.99960   0.02815  -0.00022
           Y           -0.02815   0.99960  -0.00241
           Z            0.00015   0.00241   1.00000
 This molecule is an asymmetric top.
 Rotational symmetry number  1.
 Warning -- assumption of classical behavior for rotation
           may cause significant error
 Rotational temperatures (Kelvin)      0.08631     0.03305     0.02854
 Rotational constants (GHZ):           1.79849     0.68870     0.59473
 Zero-point vibrational energy     436869.4 (Joules/Mol)
                                  104.41430 (Kcal/Mol)
 Warning -- explicit consideration of  14 degrees of freedom as
           vibrations may cause significant error
 Vibrational temperatures:     54.99    87.89   142.54   178.18   198.33
          (Kelvin)            248.04   391.54   457.08   568.44   585.97
                              646.63   694.57   826.93   859.86   908.36
                              995.38  1023.85  1036.19  1127.43  1163.72
                             1227.97  1281.35  1361.78  1391.46  1440.21
                             1471.44  1515.54  1542.28  1592.09  1668.47
                             1675.20  1697.68  1750.08  1782.88  1818.89
                             1864.33  1883.71  1895.70  1930.29  1964.06
                             2013.72  2027.41  2113.79  2176.59  2227.27
                             2227.49  2736.97  3234.00  4268.55  4396.18
                             4450.68  4465.41  4471.79  4519.11  4537.85
                             5078.78  5189.74

 Zero-point correction=                           0.166395 (Hartree/Particle)
 Thermal correction to Energy=                    0.177080
 Thermal correction to Enthalpy=                  0.178024
 Thermal correction to Gibbs Free Energy=         0.128807
 Sum of electronic and zero-point Energies=           -582.811825
 Sum of electronic and thermal Energies=              -582.801140
 Sum of electronic and thermal Enthalpies=            -582.800196
 Sum of electronic and thermal Free Energies=         -582.849413

                     E (Thermal)             CV                S
                      KCal/Mol        Cal/Mol-Kelvin    Cal/Mol-Kelvin
 Total                  111.119             39.364            103.586
 Electronic               0.000              0.000              0.000
 Translational            0.889              2.981             41.248
 Rotational               0.889              2.981             30.457
 Vibrational            109.342             33.403             31.881
 Vibration     1          0.594              1.982              5.349
 Vibration     2          0.597              1.973              4.422
 Vibration     3          0.604              1.950              3.473
 Vibration     4          0.610              1.929              3.040
 Vibration     5          0.614              1.916              2.834
 Vibration     6          0.626              1.876              2.409
 Vibration     7          0.675              1.725              1.583
 Vibration     8          0.704              1.640              1.322
 Vibration     9          0.762              1.481              0.981
 Vibration    10          0.772              1.454              0.936
 Vibration    11          0.808              1.362              0.797
 Vibration    12          0.839              1.288              0.703
 Vibration    13          0.931              1.086              0.495
 Vibration    14          0.956              1.037              0.454

                           ! Non-Optimized Parameters !
 Normal termination of Gaussian 16 at Wed Dec  9 17:55:42 2020.

 ----------------------------------------------------------------------
 # B3LYP/6-311++G(d,p) empiricaldispersion=gd3bj scf=xqc pop=npa geom=c
 heck
 ----------------------------------------------------------------------

 ---------------------------------------
 CID_150155227_JID_2590_Energie_neutraal
 ---------------------------------------
 Structure from the checkpoint file:  "JID_2590.chk"
 Charge =  0 Multiplicity = 1

 SCF Done:  E(RB3LYP) =  -583.147922665     A.U. after   16 cycles
 Normal termination of Gaussian 16 at Wed Dec  9 17:57:25 2020.

 ----------------------------------------------------------------------
 # B3LYP/6-311++G(d,p) empiricaldispersion=gd3bj scf=xqc pop=npa geom=c
 heck
 ----------------------------------------------------------------------

 -------------------------------------
 CID_150155227_JID_2590_Energie_kation
 -------------------------------------
 Structure from the checkpoint file:  "JID_2590.chk"
 Charge =  1 Multiplicity = 2

 SCF Done:  E(UB3LYP) =  -582.824490966     A.U. after   30 cycles
 Normal termination of Gaussian 16 at Wed Dec  9 18:02:01 2020.
 Gaussian 16:  ES64L-G16RevA.03 25-Dec-2016

 ----------------------------------------------------------------------
 # B3LYP/6-311++G(d,p) empiricaldispersion=gd3bj scf=xqc pop=npa geom=c
 heck
 ----------------------------------------------------------------------

 ------------------------------------
 CID_150155227_JID_2590_Energie_anion
 ------------------------------------
 Structure from the checkpoint file:  "JID_2590.chk"
 Charge = -1 Multiplicity = 2

                         Standard orientation:
 ---------------------------------------------------------------------
 Center     Atomic      Atomic             Coordinates (Angstroms)
 Number     Number       Type             X           Y           Z
 ---------------------------------------------------------------------
      1          6           0       -0.077175   -0.554399   -1.086379
      2          6           0       -1.332170   -1.190619   -0.424366
      3          6           0       -0.946721   -1.330258    1.073943
      4          7           0        0.507778   -1.185757    1.057529
      5          6           0        0.813892   -0.154213    0.093650
      6          6           0        0.795950    1.366401    0.529595
      7          7           0        2.219501    1.396639    0.179095
      8          6           0        2.316979    0.088739   -0.231809
      9          8           0        3.216520   -0.574958   -0.688643
     10          7           0       -2.584842   -0.423095   -0.629271
     11          7           0       -2.564577    0.743419   -0.230151
     12          7           0       -2.660267    1.835482    0.097450
     13          1           0       -0.331828    0.280942   -1.742972
     14          1           0        0.453114   -1.304890   -1.678771
     15          1           0       -1.550905   -2.162168   -0.864956
     16          1           0       -1.239583   -2.296688    1.494463
     17          1           0       -1.460027   -0.542179    1.652817
     18          1           0        0.912155   -1.022180    1.975633
     19          1           0        0.167475    2.031395   -0.071746
     20          1           0        0.593288    1.531782    1.594218
     21          1           0        2.876469    2.162926    0.100096
 ---------------------------------------------------------------------

 SCF Done:  E(UB3LYP) =  -583.142180440     A.U. after   31 cycles

 The electronic state is 2-A.
 Alpha  occ. eigenvalues --  -18.99523 -14.33478 -14.23830 -14.23455 -14.22809
 Alpha  occ. eigenvalues --  -14.20266 -10.16607 -10.11521 -10.10962 -10.10448
 Alpha  occ. eigenvalues --  -10.09315 -10.07224  -1.00546  -0.94113  -0.86043
 Alpha  occ. eigenvalues --   -0.84965  -0.81584  -0.67097  -0.64471  -0.57515
 Alpha  occ. eigenvalues --   -0.54549  -0.52631  -0.45952  -0.42199  -0.40903
 Alpha  occ. eigenvalues --   -0.38211  -0.37829  -0.37238  -0.36744  -0.34758
 Alpha  occ. eigenvalues --   -0.32946  -0.32026  -0.31176  -0.29677  -0.28403
 Alpha  occ. eigenvalues --   -0.27807  -0.26843  -0.26088  -0.23192  -0.18144
 Alpha  occ. eigenvalues --   -0.16306  -0.15981  -0.13121  -0.12732   0.04578
 Alpha virt. eigenvalues --    0.06572   0.07640   0.08591   0.09781   0.10431
 Alpha virt. eigenvalues --    0.10626   0.11348   0.12167   0.12956   0.13912
 Alpha virt. eigenvalues --    0.14200   0.14936   0.15426   0.16272   0.17063

  Beta  occ. eigenvalues --  -18.99516 -14.33212 -14.23452 -14.23414 -14.22857
  Beta  occ. eigenvalues --  -14.20243 -10.16602 -10.11518 -10.10878 -10.10433
  Beta  occ. eigenvalues --  -10.09293 -10.07217  -1.00020  -0.94097  -0.85978
  Beta  occ. eigenvalues --   -0.84749  -0.81519  -0.66970  -0.64386  -0.57449
  Beta  occ. eigenvalues --   -0.54473  -0.52446  -0.45886  -0.41905  -0.40707
  Beta  occ. eigenvalues --   -0.37996  -0.37716  -0.37016  -0.36253  -0.34596
  Beta  occ. eigenvalues --   -0.32643  -0.31462  -0.31035  -0.29588  -0.28244
  Beta  occ. eigenvalues --   -0.27753  -0.26803  -0.25988  -0.23127  -0.17528
  Beta  occ. eigenvalues --   -0.16191  -0.15942  -0.13063  -0.12652
  Beta virt. eigenvalues --    0.07408   0.08153   0.08970   0.10093   0.10274
  Beta virt. eigenvalues --    0.10690   0.11078   0.11488   0.12204   0.13308
  Beta virt. eigenvalues --    0.14204   0.14271   0.15088   0.15487   0.16381

 Mulliken charges and spin densities:
               1          2
     1  C    0.347191  -1.023411
     2  C   -0.670109   0.735190
     3  C    0.711767  -1.303989
     4  N   -0.151251   0.081097
     5  C    0.171999  -0.257396
     6  C    0.184330  -0.547793
     7  N   -0.141911  -0.057563
     8  C    0.183557   0.196586
     9  O   -0.390292   0.007264
    10  N   -0.705852   0.352322
    11  N    0.594981  -0.037235
    12  N   -0.021811  -0.120238
    13  H   -0.082462   0.245162
    14  H    0.227614  -0.036935
    15  H   -0.357849   0.597957
    16  H   -0.258176   0.432722
    17  H    0.022302   0.131353
    18  H   -0.173581   0.431136
    19  H    0.117547   0.068025
    20  H   -0.220891   0.411659
    21  H   -0.387102   0.694086
 Sum of Mulliken charges =  -1.00000   1.00000

 Dipole moment (field-independent basis, Debye):
    X=             -1.1387    Y=             -0.1836    Z=             -0.7492  Tot=              1.3754
 Quadrupole moment (field-independent basis, Debye-Ang):
   XX=           -128.4187   YY=           -107.7415   ZZ=            -93.7201
   XY=             -0.0725   XZ=             -0.9722   YZ=             -0.8344

 Summary of Natural Population Analysis:

                                       Natural Population
                Natural  -----------------------------------------------
    Atom  No    Charge         Core      Valence    Rydberg      Total
 -----------------------------------------------------------------------
      C    1   -0.19684      0.99957     2.18908    0.00819     3.19684
      C    2   -0.01065      0.99957     1.99685    0.01424     3.01065
      C    3   -0.09228      0.99961     2.08088    0.01179     3.09228
      N    4   -0.33496      0.99970     2.82367    0.01159     3.83496
      C    5    0.02707      0.99953     1.95705    0.01635     2.97293
      C    6   -0.08861      0.99961     2.07748    0.01151     3.08861
      N    7   -0.32079      0.99969     2.81064    0.01047     3.82079
      C    8    0.34745      0.99963     1.62752    0.02539     2.65255
      O    9   -0.30744      0.99987     3.30185    0.00573     4.30744
      N   10   -0.20412      0.99970     2.68946    0.01497     3.70412
      N   11    0.13082      0.99970     2.35304    0.01645     3.36918
      N   12   -0.01811      0.99982     2.50477    0.01353     3.51811
      H   13    0.10698      0.00000     0.39201    0.00101     0.39302
      H   14    0.11143      0.00000     0.38728    0.00129     0.38857
      H   15    0.10155      0.00000     0.39683    0.00162     0.39845
      H   16    0.09796      0.00000     0.40056    0.00148     0.40204
      H   17    0.08397      0.00000     0.41427    0.00176     0.41603
      H   18    0.18246      0.00000     0.31411    0.00344     0.31754
      H   19    0.09628      0.00000     0.40197    0.00175     0.40372
      H   20    0.09199      0.00000     0.40610    0.00191     0.40801
      H   21    0.19585      0.00000     0.29629    0.00786     0.30415
 =======================================================================
   * Total *   -0.00000     11.99599    31.82171    0.18231    44.00000

 Normal termination of Gaussian 16 at Wed Dec  9 18:06:50 2020.
