 Gaussian 16, Revision A.03,

 -----------------------------------------------------------
 # opt freq B3LYP/6-31G(d) empiricaldispersion=gd3bj scf=xqc
 -----------------------------------------------------------

 -----------------------------
 CID_71368516_JID_492_neutraal
 -----------------------------
 Symbolic Z-matrix:
 Charge =  0 Multiplicity = 1

 SCF Done:  E(RB3LYP) =  -425.225256724     A.U. after   15 cycles
 SCF Done:  E(RB3LYP) =  -425.240927179     A.U. after   14 cycles
 SCF Done:  E(RB3LYP) =  -425.243832899     A.U. after   14 cycles
 SCF Done:  E(RB3LYP) =  -425.244553471     A.U. after   13 cycles
 SCF Done:  E(RB3LYP) =  -425.244850083     A.U. after   13 cycles
 SCF Done:  E(RB3LYP) =  -425.244965680     A.U. after   13 cycles
 SCF Done:  E(RB3LYP) =  -425.245031973     A.U. after   12 cycles
 SCF Done:  E(RB3LYP) =  -425.245037580     A.U. after   10 cycles
 SCF Done:  E(RB3LYP) =  -425.245039069     A.U. after    9 cycles
 SCF Done:  E(RB3LYP) =  -425.245039476     A.U. after    8 cycles
 SCF Done:  E(RB3LYP) =  -425.245039665     A.U. after    8 cycles
 SCF Done:  E(RB3LYP) =  -425.245039772     A.U. after    8 cycles
 SCF Done:  E(RB3LYP) =  -425.245039821     A.U. after    8 cycles
 SCF Done:  E(RB3LYP) =  -425.245039818     A.U. after    7 cycles
 Optimization completed.
    -- Stationary point found.

 1\1\GINC-NODE114\FOpt\RB3LYP\6-31G(d)\C9H12O1\VSC10255\08-Dec-2020\0\\
 # opt freq B3LYP/6-31G(d) empiricaldispersion=gd3bj scf=xqc\\CID_71368
 516_JID_492_neutraal\\0,1\C,1.1047821168,0.0359933973,0.1894864765\O,1
 .7257649072,-0.9975489374,0.9265679814\C,2.0499924033,-2.1696560128,0.
 1680059413\C,3.401081424,-1.9169150651,-0.6253673121\C,4.5247447314,-1
 .8348610129,0.3653564491\C,5.1220735247,-3.0236734529,0.654430422\C,4.
 5643601668,-3.5540377205,1.8805579808\C,3.7501238424,-4.6266772448,1.6
 738449317\C,2.3056531253,-4.3387302745,1.8025464921\C,1.7016499946,-3.

 Normal termination of Gaussian 16 at Tue Dec  8 10:46:50 2020.

 --------------------------------------------------------------------
 #N Geom=AllCheck Guess=TCheck SCRF=Check GenChk RB3LYP/6-31G(d) Freq
 --------------------------------------------------------------------

 Structure from the checkpoint file:  "JID_492.chk"
 -----------------------------
 CID_71368516_JID_492_neutraal
 -----------------------------
 Charge =  0 Multiplicity = 1

 SCF Done:  E(RB3LYP) =  -425.245039818     A.U. after    1 cycles

  Exact polarizability: 122.611  10.373 102.375   0.905   1.980  71.621
 Approx polarizability: 206.498  39.726 178.388   3.161  11.641 115.259

                      1                      2                      3
                      A                      A                      A
 Frequencies --     49.8298                84.9403               165.7464
 Red. masses --      2.6402                 2.3665                 1.6959
 Frc consts  --      0.0039                 0.0101                 0.0275
 IR Inten    --      0.6582                 0.9398                 0.0583

                      4                      5                      6
                      A                      A                      A
 Frequencies --    205.9453               226.8853               271.8702
 Red. masses --      2.8840                 2.1797                 4.0062
 Frc consts  --      0.0721                 0.0661                 0.1745
 IR Inten    --      2.2583                 4.8420                 1.5791

                      7                      8                      9
                      A                      A                      A
 Frequencies --    289.7310               343.7973               384.2371
 Red. masses --      4.5322                 2.6268                 2.4780
 Frc consts  --      0.2242                 0.1829                 0.2155
 IR Inten    --      1.7057                 5.7806                45.7446

                     10                     11                     12
                      A                      A                      A
 Frequencies --    446.3153               459.7386               540.5163
 Red. masses --      3.4441                 2.4476                 3.6313
 Frc consts  --      0.4042                 0.3048                 0.6251
 IR Inten    --      3.6569                 3.8781                 4.0335

                     13                     14                     15
                      A                      A                      A
 Frequencies --    581.4739               617.1951               708.0371
 Red. masses --      2.5900                 3.5950                 2.7583
 Frc consts  --      0.5160                 0.8068                 0.8147
 IR Inten    --      8.9238                10.2841                 1.7252

                     16                     17                     18
                      A                      A                      A
 Frequencies --    760.0463               789.0077               813.5032
 Red. masses --      1.7782                 2.0503                 2.6824
 Frc consts  --      0.6052                 0.7520                 1.0459
 IR Inten    --    201.7923                61.1774                 5.8036

                     19                     20                     21
                      A                      A                      A
 Frequencies --    831.6180               887.3418               974.2490
 Red. masses --      1.5052                 2.9857                 1.4928
 Frc consts  --      0.6133                 1.3851                 0.8348
 IR Inten    --     61.8733                19.9407                24.8475

                     22                     23                     24
                      A                      A                      A
 Frequencies --    981.1606              1000.2633              1010.6493
 Red. masses --      2.4673                 1.3778                 2.0914
 Frc consts  --      1.3995                 0.8122                 1.2586
 IR Inten    --      3.5925                18.8828                14.5406

                     25                     26                     27
                      A                      A                      A
 Frequencies --   1059.0167              1086.5420              1110.0293
 Red. masses --      1.6694                 2.3851                 2.2368
 Frc consts  --      1.1031                 1.6590                 1.6239
 IR Inten    --     32.6517                 8.5423                54.0015

                     28                     29                     30
                      A                      A                      A
 Frequencies --   1130.6105              1167.8273              1188.5486
 Red. masses --      6.0073                 2.1188                 1.2822
 Frc consts  --      4.5244                 1.7026                 1.0672
 IR Inten    --    165.3659                12.4367                 5.1415

                     31                     32                     33
                      A                      A                      A
 Frequencies --   1204.0571              1222.4725              1254.1081
 Red. masses --      1.1825                 1.4436                 1.1681
 Frc consts  --      1.0100                 1.2710                 1.0824
 IR Inten    --      0.4537                33.0764                 8.0415

                     34                     35                     36
                      A                      A                      A
 Frequencies --   1281.6576              1307.4885              1325.0253
 Red. masses --      1.2242                 1.2612                 1.3815
 Frc consts  --      1.1848                 1.2703                 1.4290
 IR Inten    --      0.9741                10.9998                 1.1858

                     37                     38                     39
                      A                      A                      A
 Frequencies --   1354.6733              1367.9536              1381.4984
 Red. masses --      1.3524                 1.2203                 1.2894
 Frc consts  --      1.4622                 1.3455                 1.4499
 IR Inten    --      1.9123                31.5461                 2.0107

                     40                     41                     42
                      A                      A                      A
 Frequencies --   1402.6497              1439.8203              1499.8073
 Red. masses --      1.3249                 1.3458                 1.1437
 Frc consts  --      1.5358                 1.6438                 1.5157
 IR Inten    --      5.7458                 3.6662                 0.8503

                     43                     44                     45
                      A                      A                      A
 Frequencies --   1508.0215              1526.3435              1537.9022
 Red. masses --      1.0807                 1.0831                 1.0570
 Frc consts  --      1.4480                 1.4866                 1.4729
 IR Inten    --      2.2995                 9.6246                11.7073

                     46                     47                     48
                      A                      A                      A
 Frequencies --   1579.4061              1587.6604              1665.6128
 Red. masses --      4.3316                 3.8149                 6.6102
 Frc consts  --      6.3663                 5.6657                10.8047
 IR Inten    --     43.9218                 5.8466                 4.6138

                     49                     50                     51
                      A                      A                      A
 Frequencies --   2951.3393              2999.3464              3036.7997
 Red. masses --      1.0820                 1.0377                 1.0689
 Frc consts  --      5.5527                 5.4999                 5.8079
 IR Inten    --     31.1018                60.8990                72.5384

                     52                     53                     54
                      A                      A                      A
 Frequencies --   3049.9313              3091.5161              3104.1372
 Red. masses --      1.0972                 1.0992                 1.0822
 Frc consts  --      6.0133                 6.1895                 6.1436
 IR Inten    --     66.0477                19.3167                15.5942

                     55                     56                     57
                      A                      A                      A
 Frequencies --   3116.0927              3128.9994              3137.4463
 Red. masses --      1.0854                 1.0917                 1.0972
 Frc consts  --      6.2095                 6.2976                 6.3637
 IR Inten    --     21.2361                76.0056                31.5950

                     58                     59                     60
                      A                      A                      A
 Frequencies --   3143.7740              3146.3973              3171.0784
 Red. masses --      1.0893                 1.0856                 1.0883
 Frc consts  --      6.3430                 6.3323                 6.4477
 IR Inten    --      9.5582                22.6681                22.2677

 - Thermochemistry -
 -------------------
 Temperature   298.150 Kelvin.  Pressure   1.00000 Atm.
 Atom     1 has atomic number  6 and mass  12.00000

 Molecular mass:   136.08882 amu.
 Principal axes and moments of inertia in atomic units:
                           1         2         3
     Eigenvalues --   801.819841650.057432145.34668
           X            0.99994   0.01044   0.00311
           Y           -0.01041   0.99990  -0.00905
           Z           -0.00321   0.00902   0.99995
 This molecule is an asymmetric top.
 Rotational symmetry number  1.
 Warning -- assumption of classical behavior for rotation
           may cause significant error
 Rotational temperatures (Kelvin)      0.10802     0.05249     0.04037
 Rotational constants (GHZ):           2.25081     1.09374     0.84124
 Zero-point vibrational energy     494594.2 (Joules/Mol)
                                  118.21084 (Kcal/Mol)
 Warning -- explicit consideration of  14 degrees of freedom as
           vibrations may cause significant error
 Vibrational temperatures:     71.69   122.21   238.47   296.31   326.44
          (Kelvin)            391.16   416.86   494.65   552.83   642.15
                              661.46   777.68   836.61   888.01  1018.71
                             1093.54  1135.21  1170.45  1196.51  1276.69
                             1401.73  1411.67  1439.16  1454.10  1523.69
                             1563.29  1597.08  1626.70  1680.24  1710.06
                             1732.37  1758.87  1804.38  1844.02  1881.18
                             1906.42  1949.07  1968.18  1987.67  2018.10
                             2071.58  2157.89  2169.71  2196.07  2212.70
                             2272.41  2284.29  2396.45  4246.32  4315.39
                             4369.28  4388.17  4448.00  4466.16  4483.36
                             4501.93  4514.09  4523.19  4526.96  4562.47

 Zero-point correction=                           0.188381 (Hartree/Particle)
 Thermal correction to Energy=                    0.198041
 Thermal correction to Enthalpy=                  0.198986
 Thermal correction to Gibbs Free Energy=         0.153460
 Sum of electronic and zero-point Energies=           -425.056659
 Sum of electronic and thermal Energies=              -425.046998
 Sum of electronic and thermal Enthalpies=            -425.046054
 Sum of electronic and thermal Free Energies=         -425.091579

                     E (Thermal)             CV                S
                      KCal/Mol        Cal/Mol-Kelvin    Cal/Mol-Kelvin
 Total                  124.273             36.920             95.816
 Electronic               0.000              0.000              0.000
 Translational            0.889              2.981             40.637
 Rotational               0.889              2.981             29.430
 Vibrational            122.495             30.959             25.749
 Vibration     1          0.595              1.978              4.824
 Vibration     2          0.601              1.960              3.773
 Vibration     3          0.624              1.885              2.483
 Vibration     4          0.640              1.831              2.079
 Vibration     5          0.651              1.800              1.903
 Vibration     6          0.675              1.725              1.584
 Vibration     7          0.686              1.693              1.476
 Vibration     8          0.723              1.588              1.194
 Vibration     9          0.753              1.504              1.022
 Vibration    10          0.806              1.369              0.807
 Vibration    11          0.818              1.339              0.767
 Vibration    12          0.896              1.160              0.564
 Vibration    13          0.938              1.071              0.483
 Vibration    14          0.977              0.996              0.421

 Optimization completed.
    -- Stationary point found.

 1\1\GINC-NODE114\Freq\RB3LYP\6-31G(d)\C9H12O1\VSC10255\08-Dec-2020\0\\
 #N Geom=AllCheck Guess=TCheck SCRF=Check GenChk RB3LYP/6-31G(d) Freq\\
 CID_71368516_JID_492_neutraal\\0,1\C,1.1047821168,0.0359933973,0.18948
 64765\O,1.7257649072,-0.9975489374,0.9265679814\C,2.0499924033,-2.1696
 560128,0.1680059413\C,3.401081424,-1.9169150651,-0.6253673121\C,4.5247
 447314,-1.8348610129,0.3653564491\C,5.1220735247,-3.0236734529,0.65443
 0422\C,4.5643601668,-3.5540377205,1.8805579808\C,3.7501238424,-4.62667
 72448,1.6738449317\C,2.3056531253,-4.3387302745,1.8025464921\C,1.70164

 Normal termination of Gaussian 16 at Tue Dec  8 10:53:23 2020.

 ----------------------------------------------------------------------
 # B3LYP/6-311++G(d,p) empiricaldispersion=gd3bj scf=xqc pop=npa geom=c
 heck
 ----------------------------------------------------------------------

 -------------------------------------
 CID_71368516_JID_492_Energie_neutraal
 -------------------------------------
 Structure from the checkpoint file:  "JID_492.chk"
 Charge =  0 Multiplicity = 1

 SCF Done:  E(RB3LYP) =  -425.366567877     A.U. after   15 cycles
 Normal termination of Gaussian 16 at Tue Dec  8 10:57:59 2020.

 ----------------------------------------------------------------------
 # B3LYP/6-311++G(d,p) empiricaldispersion=gd3bj scf=xqc pop=npa geom=c
 heck
 ----------------------------------------------------------------------

 -----------------------------------
 CID_71368516_JID_492_Energie_kation
 -----------------------------------
 Structure from the checkpoint file:  "JID_492.chk"
 Charge =  1 Multiplicity = 2

 SCF Done:  E(UB3LYP) =  -425.105268525     A.U. after   19 cycles
 Normal termination of Gaussian 16 at Tue Dec  8 11:03:38 2020.
 Gaussian 16:  ES64L-G16RevA.03 25-Dec-2016

 ----------------------------------
 CID_71368516_JID_492_Energie_anion
 ----------------------------------
 Structure from the checkpoint file:  "JID_492.chk"
 Charge = -1 Multiplicity = 2

                         Standard orientation:
 ---------------------------------------------------------------------
 Center     Atomic      Atomic             Coordinates (Angstroms)
 Number     Number       Type             X           Y           Z
 ---------------------------------------------------------------------
      1          6           0       -3.130058    0.062627   -0.312607
      2          8           0       -1.774432    0.343372   -0.596472
      3          6           0       -0.899705    0.307722    0.538410
      4          6           0       -0.525496   -1.201148    0.857846
      5          6           0        0.340489   -1.720288   -0.251861
      6          6           0        1.677012   -1.534255   -0.070921
      7          6           0        2.096873   -0.349091   -0.788431
      8          6           0        2.385201    0.696933    0.035564
      9          6           0        1.359397    1.761318    0.063561
     10          6           0        0.047981    1.508781    0.275463
     11          1           0       -3.679886    0.188606   -1.248790
     12          1           0       -3.536670    0.758297    0.438065
     13          1           0       -3.283879   -0.965237    0.047715
     14          1           0       -1.474189    0.627869    1.426101
     15          1           0       -0.009724   -1.238080    1.824245
     16          1           0       -1.488299   -1.714622    0.980691
     17          1           0       -0.070572   -1.511514   -1.239090
     18          1           0        2.099486   -1.673320    0.924072
     19          1           0        1.570995   -0.136533   -1.716864
     20          1           0        2.905416    0.507645    0.976736
     21          1           0        1.638229    2.815759   -0.000816
     22          1           0       -0.585618    2.398557    0.277571
 ---------------------------------------------------------------------

 SCF Done:  E(UB3LYP) =  -425.357143546     A.U. after   33 cycles
 SCF Done:  E(UB3LYP) =  -425.357143546     a.u. after    1 cycles

 The electronic state is 2-A.
 Alpha  occ. eigenvalues --  -19.00306 -10.10920 -10.09232 -10.05292 -10.04872
 Alpha  occ. eigenvalues --  -10.04629 -10.04185 -10.03927 -10.01786 -10.01668
 Alpha  occ. eigenvalues --   -0.91483  -0.70833  -0.65173  -0.64529  -0.57383
 Alpha  occ. eigenvalues --   -0.54518  -0.51452  -0.43188  -0.42780  -0.40001
 Alpha  occ. eigenvalues --   -0.36764  -0.35023  -0.34279  -0.32462  -0.30902
 Alpha  occ. eigenvalues --   -0.29659  -0.28446  -0.26017  -0.24935  -0.23751
 Alpha  occ. eigenvalues --   -0.22619  -0.21162  -0.19587  -0.15691  -0.14900
 Alpha  occ. eigenvalues --   -0.12545  -0.05443   0.05377
 Alpha virt. eigenvalues --    0.07493   0.09109   0.09713   0.09791   0.10208
 Alpha virt. eigenvalues --    0.11358   0.11944   0.12091   0.12534   0.12921
 Alpha virt. eigenvalues --    0.13558   0.14701   0.15110   0.15636   0.16958

  Beta  occ. eigenvalues --  -19.00286 -10.10877 -10.09182 -10.05304 -10.04886
  Beta  occ. eigenvalues --  -10.04521 -10.04068 -10.03882 -10.01466 -10.01443
  Beta  occ. eigenvalues --   -0.91453  -0.70476  -0.64875  -0.64310  -0.57223
  Beta  occ. eigenvalues --   -0.54265  -0.51197  -0.43001  -0.42392  -0.39819
  Beta  occ. eigenvalues --   -0.36634  -0.34829  -0.34133  -0.32357  -0.30734
  Beta  occ. eigenvalues --   -0.29469  -0.28260  -0.25871  -0.24719  -0.23530
  Beta  occ. eigenvalues --   -0.22441  -0.20949  -0.19409  -0.15353  -0.14551
  Beta  occ. eigenvalues --   -0.12292  -0.03850
  Beta virt. eigenvalues --    0.08169   0.09230   0.09748   0.09962   0.10454
  Beta virt. eigenvalues --    0.10767   0.11714   0.12054   0.12485   0.12780
  Beta virt. eigenvalues --    0.13187   0.13691   0.14711   0.15429   0.15883

 Mulliken charges and spin densities:
               1          2
     1  C    1.065831  -1.288597
     2  O   -0.114345   0.071986
     3  C    0.411604  -0.904783
     4  C   -0.197205  -0.369408
     5  C   -0.218574   0.481140
     6  C   -0.034047  -0.123116
     7  C    0.182060  -0.115084
     8  C   -0.453994   0.323391
     9  C   -0.588865   0.363756
    10  C   -0.314572   0.308470
    11  H   -0.134152   0.260136
    12  H   -0.637728   0.782731
    13  H   -0.153859   0.264508
    14  H   -0.339805   0.500769
    15  H    0.038119   0.075966
    16  H    0.083702   0.035421
    17  H    0.136402  -0.023100
    18  H    0.074576   0.023942
    19  H    0.129218   0.007434
    20  H    0.102522  -0.006043
    21  H    0.105155   0.030952
    22  H   -0.142042   0.299532
 Sum of Mulliken charges =  -1.00000   1.00000

 Dipole moment (field-independent basis, Debye):
    X=              1.8274    Y=             -1.0221    Z=             -0.0921  Tot=              2.0958
 Quadrupole moment (field-independent basis, Debye-Ang):
   XX=           -111.2111   YY=            -90.1832   ZZ=            -79.5607
   XY=              7.8393   XZ=              9.2953   YZ=             -3.5727

 Summary of Natural Population Analysis:

                                       Natural Population
                Natural  -----------------------------------------------
    Atom  No    Charge         Core      Valence    Rydberg      Total
 -----------------------------------------------------------------------
      C    1   -0.09431      0.99960     2.08531    0.00940     3.09431
      O    2   -0.30401      0.99988     3.29345    0.01068     4.30401
      C    3    0.05935      0.99955     1.92471    0.01639     2.94065
      C    4   -0.21497      0.99959     2.20355    0.01183     3.21497
      C    5   -0.03124      0.99942     2.01879    0.01304     3.03124
      C    6   -0.09985      0.99936     2.08817    0.01232     3.09985
      C    7   -0.06385      0.99940     2.05219    0.01226     3.06385
      C    8   -0.11526      0.99945     2.10240    0.01342     3.11526
      C    9   -0.11298      0.99950     2.10004    0.01344     3.11298
      C   10   -0.07240      0.99950     2.05959    0.01330     3.07240
      H   11    0.08660      0.00000     0.41236    0.00104     0.41340
      H   12    0.08177      0.00000     0.41466    0.00357     0.41823
      H   13    0.07515      0.00000     0.42343    0.00142     0.42485
      H   14    0.08870      0.00000     0.40725    0.00405     0.41130
      H   15    0.09712      0.00000     0.40177    0.00110     0.40288
      H   16    0.09679      0.00000     0.40156    0.00165     0.40321
      H   17    0.08513      0.00000     0.41227    0.00260     0.41487
      H   18    0.08252      0.00000     0.41563    0.00185     0.41748
      H   19    0.08915      0.00000     0.40909    0.00176     0.41085
      H   20    0.08447      0.00000     0.41322    0.00230     0.41553
      H   21    0.09070      0.00000     0.40803    0.00127     0.40930
      H   22    0.09143      0.00000     0.40676    0.00182     0.40857
 =======================================================================
   * Total *   -0.00000      9.99525    26.85423    0.15052    37.00000

 Normal termination of Gaussian 16 at Tue Dec  8 11:10:46 2020.
