 Gaussian 16, Revision A.03,

 -----------------------------------------------------------
 # opt freq B3LYP/6-31G(d) empiricaldispersion=gd3bj scf=xqc
 -----------------------------------------------------------

 ------------------------------
 CID_84121874_JID_5403_neutraal
 ------------------------------
 Symbolic Z-matrix:
 Charge =  0 Multiplicity = 1

 SCF Done:  E(RB3LYP) =  -655.321907955     A.U. after   14 cycles
 SCF Done:  E(RB3LYP) =  -655.327146869     A.U. after   12 cycles
 SCF Done:  E(RB3LYP) =  -655.327597810     A.U. after   11 cycles
 SCF Done:  E(RB3LYP) =  -655.327779873     A.U. after   11 cycles
 SCF Done:  E(RB3LYP) =  -655.327988800     A.U. after   11 cycles
 SCF Done:  E(RB3LYP) =  -655.328100806     A.U. after   11 cycles
 SCF Done:  E(RB3LYP) =  -655.328124285     A.U. after   10 cycles
 SCF Done:  E(RB3LYP) =  -655.328131383     A.U. after    9 cycles
 SCF Done:  E(RB3LYP) =  -655.328133507     A.U. after    8 cycles
 SCF Done:  E(RB3LYP) =  -655.328133813     A.U. after    7 cycles
 SCF Done:  E(RB3LYP) =  -655.328135210     A.U. after    7 cycles
 SCF Done:  E(RB3LYP) =  -655.328135606     A.U. after    8 cycles
 SCF Done:  E(RB3LYP) =  -655.328135874     A.U. after    8 cycles
 SCF Done:  E(RB3LYP) =  -655.328136137     A.U. after    7 cycles
 SCF Done:  E(RB3LYP) =  -655.328136216     A.U. after    7 cycles
 Optimization completed.
    -- Stationary point found.
 Normal termination of Gaussian 16 at Thu Dec 10 16:05:30 2020.

 --------------------------------------------------------------------
 #N Geom=AllCheck Guess=TCheck SCRF=Check GenChk RB3LYP/6-31G(d) Freq
 --------------------------------------------------------------------

 Structure from the checkpoint file:  "JID_5403.chk"
 ------------------------------
 CID_84121874_JID_5403_neutraal
 ------------------------------
 Charge =  0 Multiplicity = 1

 SCF Done:  E(RB3LYP) =  -655.328136216     A.U. after    1 cycles

  Exact polarizability: 156.060  -2.795 132.146  -1.698  -5.491 118.009
 Approx polarizability: 189.438  -5.966 200.122  -0.541 -14.805 180.049

                      1                      2                      3
                      A                      A                      A
 Frequencies --     25.7673                32.2580                44.5286
 Red. masses --      2.1395                 3.3896                 2.9146
 Frc consts  --      0.0008                 0.0021                 0.0034
 IR Inten    --      0.4201                 0.0392                 0.2325

                      4                      5                      6
                      A                      A                      A
 Frequencies --     71.6223                90.4291               117.3013
 Red. masses --      2.6857                 5.3276                 3.5200
 Frc consts  --      0.0081                 0.0257                 0.0285
 IR Inten    --      0.7017                 4.9543                 0.2631

                      7                      8                      9
                      A                      A                      A
 Frequencies --    180.0385               194.1182               219.8969
 Red. masses --      2.3361                 2.2845                 3.2532
 Frc consts  --      0.0446                 0.0507                 0.0927
 IR Inten    --      1.5816                 0.8313                 0.6383

                     10                     11                     12
                      A                      A                      A
 Frequencies --    268.2423               273.1198               300.0851
 Red. masses --      2.0518                 3.8890                 1.1690
 Frc consts  --      0.0870                 0.1709                 0.0620
 IR Inten    --      8.0986                 1.0874                40.9770

                     13                     14                     15
                      A                      A                      A
 Frequencies --    330.9454               357.2533               390.0077
 Red. masses --      3.3853                 3.6800                 2.5099
 Frc consts  --      0.2185                 0.2767                 0.2249
 IR Inten    --      1.9679                 0.6885                 2.1789

                     16                     17                     18
                      A                      A                      A
 Frequencies --    408.3726               436.5013               471.4935
 Red. masses --      2.5508                 1.8568                 2.3175
 Frc consts  --      0.2506                 0.2084                 0.3035
 IR Inten    --      7.7946                 5.5612                 1.5912

                     19                     20                     21
                      A                      A                      A
 Frequencies --    536.9213               561.5254               571.3522
 Red. masses --      2.5465                 2.8873                 2.1662
 Frc consts  --      0.4325                 0.5364                 0.4166
 IR Inten    --     17.1826                 3.4755                 4.4748

                     22                     23                     24
                      A                      A                      A
 Frequencies --    614.9253               647.1584               678.7450
 Red. masses --      2.5527                 3.0468                 3.2619
 Frc consts  --      0.5687                 0.7518                 0.8854
 IR Inten    --      0.1176                 3.7436                 4.6990

                     25                     26                     27
                      A                      A                      A
 Frequencies --    700.9431               784.7193               799.4339
 Red. masses --      4.3730                 1.2754                 2.6648
 Frc consts  --      1.2659                 0.4627                 1.0034
 IR Inten    --      6.1621                 1.8121                 6.0570

                     28                     29                     30
                      A                      A                      A
 Frequencies --    818.7147               861.7545               880.5649
 Red. masses --      2.1806                 1.6749                 1.9489
 Frc consts  --      0.8612                 0.7329                 0.8903
 IR Inten    --      1.6509                40.1884                25.5551

                     31                     32                     33
                      A                      A                      A
 Frequencies --    892.5061               899.2269               906.7370
 Red. masses --      1.9267                 2.0835                 2.2631
 Frc consts  --      0.9043                 0.9926                 1.0963
 IR Inten    --     44.9898                25.4743                15.4716

                     34                     35                     36
                      A                      A                      A
 Frequencies --    937.5022               966.5077               970.8487
 Red. masses --      2.1053                 1.7480                 1.9698
 Frc consts  --      1.0902                 0.9620                 1.0939
 IR Inten    --     47.9733                20.1947                 1.6777

                     37                     38                     39
                      A                      A                      A
 Frequencies --    985.2283               998.1251              1020.2507
 Red. masses --      1.5214                 1.8433                 1.4205
 Frc consts  --      0.8701                 1.0820                 0.8712
 IR Inten    --      1.6010                24.8922                 4.7454

                     40                     41                     42
                      A                      A                      A
 Frequencies --   1038.1700              1045.0005              1059.3497
 Red. masses --      1.8696                 2.2566                 2.1399
 Frc consts  --      1.1872                 1.4519                 1.4149
 IR Inten    --      0.3755                 1.3521                 2.2244

                     43                     44                     45
                      A                      A                      A
 Frequencies --   1082.2199              1097.7412              1107.6571
 Red. masses --      2.0679                 2.9343                 2.1596
 Frc consts  --      1.4269                 2.0833                 1.5611
 IR Inten    --      1.7062                 2.7317                 2.8926

                     46                     47                     48
                      A                      A                      A
 Frequencies --   1134.5701              1147.5665              1164.9802
 Red. masses --      3.0118                 2.0487                 1.3109
 Frc consts  --      2.2842                 1.5896                 1.0482
 IR Inten    --      1.9197                 2.2719                 1.5474

                     49                     50                     51
                      A                      A                      A
 Frequencies --   1182.1520              1215.6457              1229.5334
 Red. masses --      1.7089                 1.4100                 1.5202
 Frc consts  --      1.4070                 1.2276                 1.3540
 IR Inten    --     25.3022                 2.5317                 8.9822

                     52                     53                     54
                      A                      A                      A
 Frequencies --   1241.5990              1257.5217              1262.3974
 Red. masses --      1.3565                 1.3755                 1.5257
 Frc consts  --      1.2321                 1.2816                 1.4325
 IR Inten    --      8.9577                47.3408                23.2584

                     55                     56                     57
                      A                      A                      A
 Frequencies --   1270.5743              1296.0385              1301.3899
 Red. masses --      1.6316                 1.2660                 1.2897
 Frc consts  --      1.5519                 1.2529                 1.2869
 IR Inten    --     12.8030                11.3712                 1.3247

                     58                     59                     60
                      A                      A                      A
 Frequencies --   1306.9097              1317.2946              1338.1350
 Red. masses --      1.2924                 1.3514                 1.3290
 Frc consts  --      1.3006                 1.3816                 1.4021
 IR Inten    --      5.1849                17.9770                21.2634

                     61                     62                     63
                      A                      A                      A
 Frequencies --   1348.6241              1362.2209              1366.3743
 Red. masses --      1.2847                 1.3239                 1.3932
 Frc consts  --      1.3766                 1.4475                 1.5325
 IR Inten    --      6.1872                 6.0360                 6.7258

                     64                     65                     66
                      A                      A                      A
 Frequencies --   1371.8252              1377.3668              1384.2675
 Red. masses --      1.3736                 1.4001                 1.5504
 Frc consts  --      1.5230                 1.5650                 1.7504
 IR Inten    --     12.1247                12.2931                28.9465

                     67                     68                     69
                      A                      A                      A
 Frequencies --   1393.5617              1408.1462              1412.2415
 Red. masses --      1.4057                 1.4417                 1.4573
 Frc consts  --      1.6084                 1.6843                 1.7124
 IR Inten    --      9.8906                12.8021                27.1657

                     70                     71                     72
                      A                      A                      A
 Frequencies --   1419.6170              1442.1045              1476.1097
 Red. masses --      1.4234                 1.5013                 1.5171
 Frc consts  --      1.6901                 1.8395                 1.9476
 IR Inten    --     23.2582                 2.3802                37.0059

                     73                     74                     75
                      A                      A                      A
 Frequencies --   1499.3710              1506.9178              1517.1324
 Red. masses --      1.0827                 1.1884                 1.0790
 Frc consts  --      1.4341                 1.5899                 1.4632
 IR Inten    --      7.7449                10.8238                 0.7476

                     76                     77                     78
                      A                      A                      A
 Frequencies --   1519.4429              1521.7810              1525.6333
 Red. masses --      1.0862                 1.0916                 1.1271
 Frc consts  --      1.4775                 1.4894                 1.5457
 IR Inten    --      8.0622                 1.3358                12.1068

                     79                     80                     81
                      A                      A                      A
 Frequencies --   1526.2387              1548.6735              1555.3745
 Red. masses --      1.0919                 1.1046                 1.1485
 Frc consts  --      1.4986                 1.5610                 1.6370
 IR Inten    --      4.3214                 0.3922                25.3295

                     82                     83                     84
                      A                      A                      A
 Frequencies --   1694.8722              1736.2782              3000.2415
 Red. masses --      1.0932                 9.6381                 1.0723
 Frc consts  --      1.8502                17.1191                 5.6872
 IR Inten    --     26.0151               245.4420                31.7774

                     85                     86                     87
                      A                      A                      A
 Frequencies --   3018.6865              3027.3705              3038.0206
 Red. masses --      1.0689                 1.0751                 1.0700
 Frc consts  --      5.7387                 5.8053                 5.8184
 IR Inten    --     32.7154                 8.5659                24.8417

                     88                     89                     90
                      A                      A                      A
 Frequencies --   3039.1196              3045.8678              3049.5807
 Red. masses --      1.0753                 1.0693                 1.0654
 Frc consts  --      5.8518                 5.8449                 5.8375
 IR Inten    --     20.9056                 8.2988                36.1440

                     91                     92                     93
                      A                      A                      A
 Frequencies --   3051.2492              3053.1952              3064.3884
 Red. masses --      1.0708                 1.0694                 1.0662
 Frc consts  --      5.8736                 5.8735                 5.8992
 IR Inten    --     46.9835                15.9267                46.4178

                     94                     95                     96
                      A                      A                      A
 Frequencies --   3070.0995              3085.1622              3088.0429
 Red. masses --      1.0783                 1.0904                 1.0971
 Frc consts  --      5.9883                 6.1152                 6.1643
 IR Inten    --     18.3007                28.7930                42.2076

                     97                     98                     99
                      A                      A                      A
 Frequencies --   3090.3693              3094.0643              3101.7429
 Red. masses --      1.0933                 1.0978                 1.0994
 Frc consts  --      6.1519                 6.1918                 6.2317
 IR Inten    --     38.0153                51.7363                19.9639

                    100                    101                    102
                      A                      A                      A
 Frequencies --   3104.0894              3115.8290              3128.1111
 Red. masses --      1.0949                 1.1032                 1.0923
 Frc consts  --      6.2160                 6.3103                 6.2971
 IR Inten    --     26.9966                73.4562                 8.0351

                    103                    104                    105
                      A                      A                      A
 Frequencies --   3129.8738              3452.0011              3540.4652
 Red. masses --      1.0989                 1.0491                 1.0923
 Frc consts  --      6.3423                 7.3654                 8.0672
 IR Inten    --     18.4528                 2.2997                 1.6456

 - Thermochemistry -
 -------------------
 Temperature   298.150 Kelvin.  Pressure   1.00000 Atm.
 Atom     1 has atomic number  6 and mass  12.00000

 Molecular mass:   210.17321 amu.
 Principal axes and moments of inertia in atomic units:
                           1         2         3
     Eigenvalues --  1745.782235405.684996119.62084
           X            1.00000   0.00216   0.00161
           Y           -0.00216   0.99999   0.00439
           Z           -0.00161  -0.00440   0.99999
 This molecule is an asymmetric top.
 Rotational symmetry number  1.
 Warning -- assumption of classical behavior for rotation
           may cause significant error
 Rotational temperatures (Kelvin)      0.04961     0.01602     0.01415
 Rotational constants (GHZ):           1.03377     0.33386     0.29491
 Zero-point vibrational energy     889087.7 (Joules/Mol)
                                  212.49707 (Kcal/Mol)
 Warning -- explicit consideration of  22 degrees of freedom as
           vibrations may cause significant error
 Vibrational temperatures:     37.07    46.41    64.07   103.05   130.11
          (Kelvin)            168.77   259.04   279.29   316.38   385.94
                              392.96   431.76   476.16   514.01   561.13
                              587.56   628.03   678.37   772.51   807.91
                              822.05   884.74   931.12   976.56  1008.50
                             1129.04  1150.21  1177.95  1239.87  1266.94
                             1284.12  1293.79  1304.59  1348.86  1390.59
                             1396.83  1417.52  1436.08  1467.91  1493.70
                             1503.52  1524.17  1557.07  1579.40  1593.67
                             1632.39  1651.09  1676.15  1700.85  1749.04
                             1769.02  1786.38  1809.29  1816.31  1828.07
                             1864.71  1872.41  1880.35  1895.29  1925.28
                             1940.37  1959.93  1965.91  1973.75  1981.72
                             1991.65  2005.02  2026.01  2031.90  2042.51
                             2074.87  2123.79  2157.26  2168.12  2182.82
                             2186.14  2189.50  2195.05  2195.92  2228.20
                             2237.84  2438.54  2498.12  4316.68  4343.22
                             4355.71  4371.03  4372.62  4382.32  4387.67
                             4390.07  4392.87  4408.97  4417.19  4438.86
                             4443.00  4446.35  4451.67  4462.72  4466.09
                             4482.98  4500.65  4503.19  4966.66  5093.94

 Zero-point correction=                           0.338636 (Hartree/Particle)
 Thermal correction to Energy=                    0.353583
 Thermal correction to Enthalpy=                  0.354527
 Thermal correction to Gibbs Free Energy=         0.294960
 Sum of electronic and zero-point Energies=           -654.989501
 Sum of electronic and thermal Energies=              -654.974553
 Sum of electronic and thermal Enthalpies=            -654.973609
 Sum of electronic and thermal Free Energies=         -655.033177

                     E (Thermal)             CV                S
                      KCal/Mol        Cal/Mol-Kelvin    Cal/Mol-Kelvin
 Total                  221.877             57.719            125.371
 Electronic               0.000              0.000              0.000
 Translational            0.889              2.981             41.932
 Rotational               0.889              2.981             32.424
 Vibrational            220.099             51.758             51.015
 Vibration     1          0.593              1.985              6.131
 Vibration     2          0.594              1.983              5.685
 Vibration     3          0.595              1.980              5.047
 Vibration     4          0.598              1.968              4.108
 Vibration     5          0.602              1.956              3.651
 Vibration     6          0.608              1.935              3.144
 Vibration     7          0.629              1.867              2.328
 Vibration     8          0.635              1.848              2.188
 Vibration     9          0.647              1.811              1.960
 Vibration    10          0.673              1.732              1.608
 Vibration    11          0.676              1.723              1.576
 Vibration    12          0.693              1.674              1.416
 Vibration    13          0.713              1.614              1.255
 Vibration    14          0.732              1.560              1.134
 Vibration    15          0.758              1.492              1.000
 Vibration    16          0.773              1.452              0.932
 Vibration    17          0.797              1.391              0.838
 Vibration    18          0.828              1.313              0.733
 Vibration    19          0.892              1.168              0.572
 Vibration    20          0.917              1.115              0.521
 Vibration    21          0.928              1.093              0.502
 Vibration    22          0.974              1.000              0.425

 Optimization completed.
    -- Stationary point found.
 Normal termination of Gaussian 16 at Thu Dec 10 16:19:35 2020.

 ----------------------------------------------------------------------
 # B3LYP/6-311++G(d,p) empiricaldispersion=gd3bj scf=xqc pop=npa geom=c
 heck
 ----------------------------------------------------------------------

 --------------------------------------
 CID_84121874_JID_5403_Energie_neutraal
 --------------------------------------
 Structure from the checkpoint file:  "JID_5403.chk"
 Charge =  0 Multiplicity = 1

 SCF Done:  E(RB3LYP) =  -655.517124074     A.U. after   14 cycles
 Normal termination of Gaussian 16 at Thu Dec 10 16:26:55 2020.

 ----------------------------------------------------------------------
 # B3LYP/6-311++G(d,p) empiricaldispersion=gd3bj scf=xqc pop=npa geom=c
 heck
 ----------------------------------------------------------------------

 ------------------------------------
 CID_84121874_JID_5403_Energie_kation
 ------------------------------------
 Structure from the checkpoint file:  "JID_5403.chk"
 Charge =  1 Multiplicity = 2

 SCF Done:  E(UB3LYP) =  -655.210668913     A.U. after   26 cycles
 Normal termination of Gaussian 16 at Thu Dec 10 16:45:22 2020.
 Gaussian 16:  ES64L-G16RevA.03 25-Dec-2016

 ----------------------------------------------------------------------
 # B3LYP/6-311++G(d,p) empiricaldispersion=gd3bj scf=xqc pop=npa geom=c
 heck
 ----------------------------------------------------------------------

 -----------------------------------
 CID_84121874_JID_5403_Energie_anion
 -----------------------------------
 Structure from the checkpoint file:  "JID_5403.chk"
 Charge = -1 Multiplicity = 2

                         Standard orientation:
 ---------------------------------------------------------------------
 Center     Atomic      Atomic             Coordinates (Angstroms)
 Number     Number       Type             X           Y           Z
 ---------------------------------------------------------------------
      1          6           0       -3.333704   -1.468082   -1.017521
      2          6           0       -4.364477   -0.649754   -0.203357
      3          6           0       -3.550844    0.479905    0.492447
      4          6           0       -2.084069    0.295670    0.036108
      5          6           0       -1.997427   -1.199520   -0.311322
      6          6           0       -1.077115    0.795826    1.071227
      7          7           0        0.324213    0.637562    0.656416
      8          6           0        1.018297   -0.560110    1.141201
      9          6           0        2.534827   -0.429295    1.287042
     10          6           0        3.313713   -0.681906   -0.022172
     11          6           0        2.664276    0.050070   -1.200124
     12          6           0        2.184333    1.461986   -0.848188
     13          6           0        0.790167    1.582102   -0.229724
     14          8           0        0.084666    2.539567   -0.545551
     15          7           0        3.471343   -2.093743   -0.386137
     16          1           0       -3.279843   -1.088398   -2.045599
     17          1           0       -3.586547   -2.531856   -1.078322
     18          1           0       -5.161010   -0.253692   -0.841027
     19          1           0       -4.848755   -1.285777    0.545908
     20          1           0       -3.616709    0.377139    1.583715
     21          1           0       -3.922946    1.479810    0.248973
     22          1           0       -1.922100    0.873255   -0.881553
     23          1           0       -1.931198   -1.795434    0.611511
     24          1           0       -1.127209   -1.447334   -0.929233
     25          1           0       -1.249958    1.857189    1.262785
     26          1           0       -1.210681    0.249434    2.012284
     27          1           0        0.591707   -0.775520    2.125450
     28          1           0        0.777164   -1.431669    0.512843
     29          1           0        2.874437   -1.155861    2.036178
     30          1           0        2.765079    0.561929    1.695383
     31          1           0        4.327140   -0.281804    0.116277
     32          1           0        1.811695   -0.540073   -1.565921
     33          1           0        3.378692    0.087574   -2.028014
     34          1           0        2.121518    2.079741   -1.746745
     35          1           0        2.908090    1.961177   -0.189495
     36          1           0        3.912944   -2.605203    0.376986
     37          1           0        2.554403   -2.519240   -0.523634
 ---------------------------------------------------------------------

 SCF Done:  E(UB3LYP) =  -655.507099231     A.U. after   33 cycles
 SCF Done:  E(UB3LYP) =  -655.507099231     a.u. after    1 cycles

 The electronic state is 2-A.
 Alpha  occ. eigenvalues --  -18.98495 -14.24301 -14.19080 -10.17166 -10.10773
 Alpha  occ. eigenvalues --  -10.10226 -10.10008 -10.08430 -10.07647 -10.07338
 Alpha  occ. eigenvalues --  -10.07289 -10.07196 -10.07079 -10.07005 -10.06548
 Alpha  occ. eigenvalues --   -0.93876  -0.83532  -0.79184  -0.74450  -0.69876
 Alpha  occ. eigenvalues --   -0.66602  -0.64431  -0.61541  -0.58910  -0.56844
 Alpha  occ. eigenvalues --   -0.55046  -0.48321  -0.47430  -0.46545  -0.43613
 Alpha  occ. eigenvalues --   -0.40627  -0.39620  -0.38933  -0.38696  -0.37940
 Alpha  occ. eigenvalues --   -0.36522  -0.35018  -0.33588  -0.32470  -0.32207
 Alpha  occ. eigenvalues --   -0.31772  -0.30536  -0.30067  -0.28465  -0.28088
 Alpha  occ. eigenvalues --   -0.27244  -0.25294  -0.24793  -0.24681  -0.24434
 Alpha  occ. eigenvalues --   -0.23856  -0.23338  -0.22990  -0.22603  -0.21897
 Alpha  occ. eigenvalues --   -0.15755  -0.14576  -0.14214   0.04261
 Alpha virt. eigenvalues --    0.06278   0.07176   0.07473   0.08246   0.08377
 Alpha virt. eigenvalues --    0.08834   0.09607   0.10205   0.10548   0.10828
 Alpha virt. eigenvalues --    0.10939   0.11437   0.11733   0.12196   0.12963

  Beta  occ. eigenvalues --  -18.98493 -14.24302 -14.19031 -10.17162 -10.10742
  Beta  occ. eigenvalues --  -10.10216 -10.09994 -10.08425 -10.07633 -10.07325
  Beta  occ. eigenvalues --  -10.07288 -10.07188 -10.07066 -10.06973 -10.06526
  Beta  occ. eigenvalues --   -0.93870  -0.83519  -0.79110  -0.74432  -0.69836
  Beta  occ. eigenvalues --   -0.66555  -0.64397  -0.61510  -0.58865  -0.56796
  Beta  occ. eigenvalues --   -0.55004  -0.48273  -0.47385  -0.46501  -0.43571
  Beta  occ. eigenvalues --   -0.40584  -0.39576  -0.38906  -0.38656  -0.37917
  Beta  occ. eigenvalues --   -0.36480  -0.34980  -0.33566  -0.32442  -0.32180
  Beta  occ. eigenvalues --   -0.31731  -0.30492  -0.30036  -0.28433  -0.28056
  Beta  occ. eigenvalues --   -0.27212  -0.25262  -0.24770  -0.24655  -0.24408
  Beta  occ. eigenvalues --   -0.23814  -0.23307  -0.22964  -0.22574  -0.21873
  Beta  occ. eigenvalues --   -0.15745  -0.14540  -0.14186
  Beta virt. eigenvalues --    0.06457   0.06904   0.07762   0.07981   0.08582
  Beta virt. eigenvalues --    0.08773   0.09063   0.09991   0.10367   0.10766
  Beta virt. eigenvalues --    0.11060   0.11364   0.11742   0.12068   0.12277

 Mulliken charges and spin densities:
               1          2
     1  C    0.064217  -0.712230
     2  C   -0.075560  -0.286304
     3  C   -0.150346  -0.527428
     4  C   -1.242465   2.070377
     5  C    0.604451  -0.729750
     6  C    1.133317  -1.795358
     7  N    0.287190   0.066006
     8  C    0.089737  -0.451274
     9  C   -1.271875   0.712403
    10  C    2.046248  -2.473831
    11  C   -0.628212   0.635989
    12  C   -0.266136  -0.178781
    13  C   -0.016821  -0.133331
    14  O   -0.328055   0.007239
    15  N   -0.503138   0.256804
    16  H    0.161538  -0.027964
    17  H   -0.300649   0.472082
    18  H    0.009985   0.122740
    19  H    0.022940   0.116532
    20  H   -0.127398   0.270113
    21  H    0.154748  -0.013560
    22  H    0.136663   0.081891
    23  H   -0.268169   0.450146
    24  H    0.099836   0.013775
    25  H    0.189850   0.016821
    26  H    0.138422   0.045421
    27  H   -0.734170   0.879393
    28  H    0.209393  -0.056232
    29  H   -0.605810   0.837005
    30  H    0.064386   0.077003
    31  H   -0.047429   0.240382
    32  H    0.050544   0.092197
    33  H    0.064619   0.137150
    34  H    0.215406  -0.027574
    35  H    0.118339   0.063480
    36  H   -0.156332   0.390983
    37  H   -0.139263   0.357686
 Sum of Mulliken charges =  -1.00000   1.00000

 Dipole moment (field-independent basis, Debye):
    X=             -2.6093    Y=              5.6508    Z=             -3.1991  Tot=              6.9982
 Quadrupole moment (field-independent basis, Debye-Ang):
   XX=           -162.7221   YY=           -150.7993   ZZ=           -131.9922
   XY=             10.9151   XZ=             -2.7413   YZ=              8.8448

 Summary of Natural Population Analysis:

                                       Natural Population
                Natural  -----------------------------------------------
    Atom  No    Charge         Core      Valence    Rydberg      Total
 -----------------------------------------------------------------------
      C    1   -0.18991      0.99964     2.18217    0.00811     3.18991
      C    2   -0.19321      0.99965     2.18594    0.00762     3.19321
      C    3   -0.18984      0.99963     2.18239    0.00782     3.18984
      C    4   -0.11775      0.99958     2.10904    0.00912     3.11775
      C    5   -0.19218      0.99962     2.18350    0.00906     3.19218
      C    6   -0.07882      0.99957     2.06718    0.01207     3.07882
      N    7   -0.25571      0.99964     2.74582    0.01025     3.75571
      C    8   -0.08596      0.99959     2.07400    0.01237     3.08596
      C    9   -0.20560      0.99960     2.19571    0.01029     3.20560
      C   10   -0.01051      0.99959     1.99778    0.01314     3.01051
      C   11   -0.19475      0.99961     2.18577    0.00937     3.19475
      C   12   -0.23131      0.99959     2.22364    0.00808     3.23131
      C   13    0.34852      0.99963     1.63010    0.02175     2.65148
      O   14   -0.33535      0.99988     3.33020    0.00527     4.33535
      N   15   -0.42113      0.99977     2.91097    0.01040     3.92113
      H   16    0.09169      0.00000     0.40721    0.00109     0.40831
      H   17    0.10048      0.00000     0.39854    0.00098     0.39952
      H   18    0.09523      0.00000     0.40396    0.00081     0.40477
      H   19    0.09712      0.00000     0.40179    0.00109     0.40288
      H   20    0.09600      0.00000     0.40291    0.00109     0.40400
      H   21    0.09855      0.00000     0.40065    0.00079     0.40145
      H   22    0.10238      0.00000     0.39582    0.00180     0.39762
      H   23    0.09690      0.00000     0.40120    0.00190     0.40310
      H   24    0.10151      0.00000     0.39720    0.00129     0.39849
      H   25    0.10833      0.00000     0.39059    0.00108     0.39167
      H   26    0.09533      0.00000     0.40322    0.00144     0.40467
      H   27    0.10459      0.00000     0.39308    0.00233     0.39541
      H   28    0.09307      0.00000     0.40404    0.00288     0.40693
      H   29    0.11091      0.00000     0.38568    0.00341     0.38909
      H   30    0.09924      0.00000     0.39932    0.00144     0.40076
      H   31    0.08923      0.00000     0.40909    0.00168     0.41077
      H   32    0.09736      0.00000     0.40122    0.00142     0.40264
      H   33    0.10538      0.00000     0.39366    0.00095     0.39462
      H   34    0.11225      0.00000     0.38662    0.00113     0.38775
      H   35    0.10635      0.00000     0.39246    0.00119     0.39365
      H   36    0.17858      0.00000     0.31823    0.00319     0.32142
      H   37    0.17302      0.00000     0.32419    0.00279     0.32698
 =======================================================================
   * Total *   -0.00000     14.99459    42.81489    0.19052    58.00000

 Normal termination of Gaussian 16 at Thu Dec 10 17:09:35 2020.
