 Gaussian 16, Revision A.03,

 -----------------------------------------------------------
 # opt freq B3LYP/6-31G(d) empiricaldispersion=gd3bj scf=xqc
 -----------------------------------------------------------

 -------------------------------
 CID_97482300_JID_10276_neutraal
 -------------------------------
 Symbolic Z-matrix:
 Charge =  0 Multiplicity = 1

 SCF Done:  E(RB3LYP) =  -1276.25703528     A.U. after   15 cycles
 SCF Done:  E(RB3LYP) =  -1276.26675794     A.U. after   12 cycles
 SCF Done:  E(RB3LYP) =  -1276.26910830     A.U. after   12 cycles
 SCF Done:  E(RB3LYP) =  -1276.27070398     A.U. after   12 cycles
 SCF Done:  E(RB3LYP) =  -1276.27192774     A.U. after   12 cycles
 SCF Done:  E(RB3LYP) =  -1276.27256358     A.U. after   13 cycles
 SCF Done:  E(RB3LYP) =  -1276.27312017     A.U. after   11 cycles
 SCF Done:  E(RB3LYP) =  -1276.27333248     A.U. after   11 cycles
 SCF Done:  E(RB3LYP) =  -1276.27339370     A.U. after   11 cycles
 SCF Done:  E(RB3LYP) =  -1276.27341287     A.U. after    9 cycles
 SCF Done:  E(RB3LYP) =  -1276.27344743     A.U. after   10 cycles
 SCF Done:  E(RB3LYP) =  -1276.27344996     A.U. after    9 cycles
 SCF Done:  E(RB3LYP) =  -1276.27345125     A.U. after    9 cycles
 SCF Done:  E(RB3LYP) =  -1276.27345150     A.U. after    8 cycles
 SCF Done:  E(RB3LYP) =  -1276.27345153     A.U. after    7 cycles
 SCF Done:  E(RB3LYP) =  -1276.27345153     A.U. after    6 cycles
 Optimization completed.
    -- Stationary point found.
 Normal termination of Gaussian 16 at Mon Dec 14 17:58:00 2020.

 --------------------------------------------------------------------
 #N Geom=AllCheck Guess=TCheck SCRF=Check GenChk RB3LYP/6-31G(d) Freq
 --------------------------------------------------------------------

 Structure from the checkpoint file:  "JID_10276.chk"
 -------------------------------
 CID_97482300_JID_10276_neutraal
 -------------------------------
 Charge =  0 Multiplicity = 1

 SCF Done:  E(RB3LYP) =  -1276.27345153     A.U. after    1 cycles

  Exact polarizability: 202.423  12.897 183.382 -12.889   7.794 141.025
 Approx polarizability: 262.999  11.823 263.621 -25.677  13.975 242.545

                      1                      2                      3
                      A                      A                      A
 Frequencies --     13.7562                25.9080                58.3745
 Red. masses --      4.2308                 3.9946                 1.8784
 Frc consts  --      0.0005                 0.0016                 0.0038
 IR Inten    --      1.8054                 4.1850                 1.1636

                      4                      5                      6
                      A                      A                      A
 Frequencies --     68.8151                72.4860                79.0755
 Red. masses --      1.6931                 2.7580                 2.8124
 Frc consts  --      0.0047                 0.0085                 0.0104
 IR Inten    --      2.2047                 0.4056                 1.5050

                      7                      8                      9
                      A                      A                      A
 Frequencies --     86.0826               131.5476               140.0749
 Red. masses --      3.9607                 4.9160                 3.3319
 Frc consts  --      0.0173                 0.0501                 0.0385
 IR Inten    --      1.0876                 0.6333                 1.6003

                     10                     11                     12
                      A                      A                      A
 Frequencies --    170.8605               193.1816               211.7215
 Red. masses --      3.7236                 2.0979                 3.5017
 Frc consts  --      0.0640                 0.0461                 0.0925
 IR Inten    --      2.0527                 0.7143                 4.3435

                     13                     14                     15
                      A                      A                      A
 Frequencies --    233.6895               238.8886               256.5887
 Red. masses --      2.0258                 2.9133                 1.8723
 Frc consts  --      0.0652                 0.0980                 0.0726
 IR Inten    --      0.6257                 5.0517                 0.0823

                     16                     17                     18
                      A                      A                      A
 Frequencies --    274.9182               307.8691               333.4323
 Red. masses --      3.0624                 3.4803                 4.9516
 Frc consts  --      0.1364                 0.1944                 0.3243
 IR Inten    --      0.1023                 5.0786                 1.6038

                     19                     20                     21
                      A                      A                      A
 Frequencies --    348.0694               364.2453               375.7310
 Red. masses --      6.4430                 4.5812                 3.0387
 Frc consts  --      0.4599                 0.3581                 0.2528
 IR Inten    --      2.6982                 2.7291                 0.0881

                     22                     23                     24
                      A                      A                      A
 Frequencies --    398.1689               414.3277               438.0196
 Red. masses --      3.3178                 2.5408                 2.7614
 Frc consts  --      0.3099                 0.2570                 0.3121
 IR Inten    --      5.3415                 0.3078                 1.4594

                     25                     26                     27
                      A                      A                      A
 Frequencies --    441.0445               489.1821               501.1761
 Red. masses --      1.8011                 3.1625                 3.2669
 Frc consts  --      0.2064                 0.4459                 0.4835
 IR Inten    --      2.0810                 1.1616                 5.0542

                     28                     29                     30
                      A                      A                      A
 Frequencies --    546.0402               559.5632               627.8684
 Red. masses --      4.2078                 4.8027                 5.2371
 Frc consts  --      0.7392                 0.8860                 1.2164
 IR Inten    --     35.1128                22.9160                71.1179

                     31                     32                     33
                      A                      A                      A
 Frequencies --    637.1032               646.7469               699.0335
 Red. masses --      4.4819                 2.8287                 4.1049
 Frc consts  --      1.0718                 0.6971                 1.1818
 IR Inten    --     96.0681                17.0413                 4.3034

                     34                     35                     36
                      A                      A                      A
 Frequencies --    707.6999               756.6789               764.5885
 Red. masses --      4.7774                 2.3928                 1.5128
 Frc consts  --      1.4098                 0.8072                 0.5211
 IR Inten    --     58.5838                12.0356                 0.9362

                     37                     38                     39
                      A                      A                      A
 Frequencies --    810.9335               817.1704               820.2049
 Red. masses --      2.7560                 3.8055                 1.3812
 Frc consts  --      1.0678                 1.4972                 0.5475
 IR Inten    --     13.6382                10.1741                18.6162

                     40                     41                     42
                      A                      A                      A
 Frequencies --    854.0312               882.3369               887.6113
 Red. masses --      1.7040                 1.5371                 2.7654
 Frc consts  --      0.7323                 0.7051                 1.2837
 IR Inten    --      2.7946                 8.7211                 6.9769

                     43                     44                     45
                      A                      A                      A
 Frequencies --    911.3732               938.3284               981.5776
 Red. masses --      2.0895                 2.1346                 4.0010
 Frc consts  --      1.0226                 1.1073                 2.2713
 IR Inten    --      1.5672                 3.6783                27.4261

                     46                     47                     48
                      A                      A                      A
 Frequencies --    988.0935              1000.8493              1012.7012
 Red. masses --      2.7899                 2.3094                 2.3669
 Frc consts  --      1.6048                 1.3630                 1.4302
 IR Inten    --      4.5611                34.0943                76.9305

                     49                     50                     51
                      A                      A                      A
 Frequencies --   1035.0084              1043.8179              1065.3569
 Red. masses --      1.9425                 2.5462                 1.9196
 Frc consts  --      1.2260                 1.6345                 1.2837
 IR Inten    --     30.7932                49.5717                16.2447

                     52                     53                     54
                      A                      A                      A
 Frequencies --   1066.4429              1086.4881              1087.3744
 Red. masses --      3.0151                 2.0417                 1.4865
 Frc consts  --      2.0204                 1.4200                 1.0356
 IR Inten    --     19.2646                27.6919                 6.8706

                     55                     56                     57
                      A                      A                      A
 Frequencies --   1107.4876              1112.5673              1137.8244
 Red. masses --      2.2492                 5.1411                 2.7227
 Frc consts  --      1.6254                 3.7494                 2.0768
 IR Inten    --     30.0615               117.3317                72.9781

                     58                     59                     60
                      A                      A                      A
 Frequencies --   1155.8785              1160.2475              1163.3099
 Red. masses --      1.9570                 1.3087                 1.7067
 Frc consts  --      1.5405                 1.0380                 1.3608
 IR Inten    --     97.3187                 0.1003                33.4493

                     61                     62                     63
                      A                      A                      A
 Frequencies --   1167.3893              1176.8444              1206.8215
 Red. masses --      1.6603                 2.6660                 1.3663
 Frc consts  --      1.3331                 2.1754                 1.1724
 IR Inten    --      0.7538                27.7180                 1.6791

                     64                     65                     66
                      A                      A                      A
 Frequencies --   1229.4604              1238.8647              1248.0812
 Red. masses --      1.8459                 1.3660                 1.3154
 Frc consts  --      1.6439                 1.2353                 1.2072
 IR Inten    --      7.0753                 0.8931                 2.7974

                     67                     68                     69
                      A                      A                      A
 Frequencies --   1254.3820              1266.6241              1292.7228
 Red. masses --      1.4014                 1.3247                 1.7753
 Frc consts  --      1.2992                 1.2521                 1.7479
 IR Inten    --     11.0713                 2.5489                 4.5816

                     70                     71                     72
                      A                      A                      A
 Frequencies --   1304.4649              1320.5343              1326.7161
 Red. masses --      6.9090                 6.5502                 1.9231
 Frc consts  --      6.9268                 6.7298                 1.9944
 IR Inten    --     13.7814               132.6318                26.0448

                     73                     74                     75
                      A                      A                      A
 Frequencies --   1338.1493              1361.0732              1368.9249
 Red. masses --      1.4062                 1.4577                 1.2768
 Frc consts  --      1.4835                 1.5910                 1.4097
 IR Inten    --      4.4634                11.0057                 0.5743

                     76                     77                     78
                      A                      A                      A
 Frequencies --   1377.5160              1384.6340              1389.7978
 Red. masses --      1.4066                 1.4688                 4.2367
 Frc consts  --      1.5726                 1.6592                 4.8215
 IR Inten    --      5.4143                 0.5610                 1.8276

                     79                     80                     81
                      A                      A                      A
 Frequencies --   1399.4087              1407.9007              1417.2643
 Red. masses --      1.5166                 1.4209                 1.3317
 Frc consts  --      1.7499                 1.6594                 1.5760
 IR Inten    --      3.8261                 9.5755                14.4184

                     82                     83                     84
                      A                      A                      A
 Frequencies --   1418.7975              1425.0753              1474.8308
 Red. masses --      8.3681                 1.5570                 1.3169
 Frc consts  --      9.9247                 1.8630                 1.6877
 IR Inten    --      3.4989                12.8211                30.9558

                     85                     86                     87
                      A                      A                      A
 Frequencies --   1482.4015              1503.2676              1505.9374
 Red. masses --      1.1278                 1.0635                 1.0837
 Frc consts  --      1.4602                 1.4160                 1.4480
 IR Inten    --      1.2071                 6.2844                 6.0609

                     88                     89                     90
                      A                      A                      A
 Frequencies --   1512.1892              1512.6402              1517.2083
 Red. masses --      1.0408                 1.1174                 1.0839
 Frc consts  --      1.4023                 1.5063                 1.4700
 IR Inten    --      8.1323                 3.1271                 7.7454

                     91                     92                     93
                      A                      A                      A
 Frequencies --   1521.6273              1529.4300              1531.2411
 Red. masses --      1.0878                 1.1601                 1.9686
 Frc consts  --      1.4840                 1.5988                 2.7195
 IR Inten    --      5.2259                 1.2119                 7.1384

                     94                     95                     96
                      A                      A                      A
 Frequencies --   1543.7590              1546.0919              1557.9372
 Red. masses --      1.5177                 1.0703                 1.0772
 Frc consts  --      2.1310                 1.5074                 1.5404
 IR Inten    --     49.4694                 8.4046                11.2266

                     97                     98                     99
                      A                      A                      A
 Frequencies --   1565.9590              1567.2755              2986.6911
 Red. masses --      1.0839                 3.1066                 1.0535
 Frc consts  --      1.5661                 4.4960                 5.5371
 IR Inten    --      3.6438                32.0030                79.5580

                    100                    101                    102
                      A                      A                      A
 Frequencies --   3000.8645              3009.4264              3018.7965
 Red. masses --      1.0699                 1.0692                 1.0649
 Frc consts  --      5.6764                 5.7054                 5.7175
 IR Inten    --     23.4159                36.9691                40.1523

                    103                    104                    105
                      A                      A                      A
 Frequencies --   3025.3979              3041.2934              3052.7462
 Red. masses --      1.0734                 1.0628                 1.0847
 Frc consts  --      5.7888                 5.7916                 5.9559
 IR Inten    --     33.5929                18.7561                59.2412

                    106                    107                    108
                      A                      A                      A
 Frequencies --   3058.8104              3064.5386              3071.5002
 Red. masses --      1.0635                 1.0946                 1.0329
 Frc consts  --      5.8629                 6.0567                 5.7410
 IR Inten    --     23.2644                50.5527                46.2978

                    109                    110                    111
                      A                      A                      A
 Frequencies --   3076.7081              3080.7061              3086.4080
 Red. masses --      1.0592                 1.0982                 1.1008
 Frc consts  --      5.9075                 6.1407                 6.1783
 IR Inten    --     45.7947                71.2399                45.5788

                    112                    113                    114
                      A                      A                      A
 Frequencies --   3098.7043              3101.2700              3121.1836
 Red. masses --      1.1021                 1.0959                 1.1082
 Frc consts  --      6.2351                 6.2099                 6.3605
 IR Inten    --      6.1769                22.1006                34.5185

                    115                    116                    117
                      A                      A                      A
 Frequencies --   3127.0934              3139.2148              3165.2151
 Red. masses --      1.0972                 1.1067                 1.1041
 Frc consts  --      6.3212                 6.4258                 6.5173
 IR Inten    --     35.5356                12.7658                 6.9089

                    118                    119                    120
                      A                      A                      A
 Frequencies --   3182.8438              3265.9993              3311.7384
 Red. masses --      1.0904                 1.0969                 1.0993
 Frc consts  --      6.5085                 6.8938                 7.1035
 IR Inten    --      2.6328                 1.6233                 3.8418

 - Thermochemistry -
 -------------------
 Temperature   298.150 Kelvin.  Pressure   1.00000 Atm.
 Atom     1 has atomic number  6 and mass  12.00000

 Molecular mass:   298.14635 amu.
 Principal axes and moments of inertia in atomic units:
                           1         2         3
     Eigenvalues --  3800.978527661.689079985.72294
           X            0.99969   0.02306  -0.00986
           Y           -0.02294   0.99967   0.01193
           Z            0.01013  -0.01170   0.99988
 This molecule is an asymmetric top.
 Rotational symmetry number  1.
 Warning -- assumption of classical behavior for rotation
           may cause significant error
 Rotational temperatures (Kelvin)      0.02279     0.01130     0.00867
 Rotational constants (GHZ):           0.47481     0.23555     0.18073
 Zero-point vibrational energy     945169.3 (Joules/Mol)
                                  225.90088 (Kcal/Mol)
 Warning -- explicit consideration of  29 degrees of freedom as
           vibrations may cause significant error
 Vibrational temperatures:     19.79    37.28    83.99    99.01   104.29
          (Kelvin)            113.77   123.85   189.27   201.54   245.83
                              277.95   304.62   336.23   343.71   369.17
                              395.55   442.95   479.73   500.79   524.07
                              540.59   572.88   596.13   630.21   634.56
                              703.82   721.08   785.63   805.09   903.36
                              916.65   930.52  1005.75  1018.22  1088.69
                             1100.07  1166.75  1175.73  1180.09  1228.76
                             1269.49  1277.07  1311.26  1350.05  1412.27
                             1421.65  1440.00  1457.05  1489.15  1501.82
                             1532.81  1534.37  1563.21  1564.49  1593.43
                             1600.74  1637.08  1663.05  1669.34  1673.74
                             1679.61  1693.22  1736.35  1768.92  1782.45
                             1795.71  1804.78  1822.39  1859.94  1876.83
                             1899.95  1908.85  1925.30  1958.28  1969.58
                             1981.94  1992.18  1999.61  2013.44  2025.66
                             2039.13  2041.33  2050.37  2121.95  2132.85
                             2162.87  2166.71  2175.70  2176.35  2182.92
                             2189.28  2200.51  2203.11  2221.12  2224.48
                             2241.52  2253.07  2254.96  4297.18  4317.57
                             4329.89  4343.37  4352.87  4375.74  4392.22
                             4400.95  4409.19  4419.20  4426.70  4432.45
                             4440.65  4458.34  4462.04  4490.69  4499.19
                             4516.63  4554.04  4579.40  4699.04  4764.85

 Zero-point correction=                           0.359996 (Hartree/Particle)
 Thermal correction to Energy=                    0.379479
 Thermal correction to Enthalpy=                  0.380423
 Thermal correction to Gibbs Free Energy=         0.310288
 Sum of electronic and zero-point Energies=          -1275.913456
 Sum of electronic and thermal Energies=             -1275.893973
 Sum of electronic and thermal Enthalpies=           -1275.893028
 Sum of electronic and thermal Free Energies=        -1275.963164

                     E (Thermal)             CV                S
                      KCal/Mol        Cal/Mol-Kelvin    Cal/Mol-Kelvin
 Total                  238.127             74.176            147.612
 Electronic               0.000              0.000              0.000
 Translational            0.889              2.981             42.974
 Rotational               0.889              2.981             34.030
 Vibrational            236.349             68.214             70.608
 Vibration     1          0.593              1.986              7.377
 Vibration     2          0.593              1.985              6.120
 Vibration     3          0.596              1.974              4.511
 Vibration     4          0.598              1.969              4.187
 Vibration     5          0.599              1.967              4.085
 Vibration     6          0.600              1.963              3.914
 Vibration     7          0.601              1.959              3.747
 Vibration     8          0.612              1.922              2.923
 Vibration     9          0.615              1.913              2.803
 Vibration    10          0.626              1.878              2.426
 Vibration    11          0.635              1.849              2.197
 Vibration    12          0.643              1.823              2.029
 Vibration    13          0.654              1.789              1.850
 Vibration    14          0.657              1.781              1.811
 Vibration    15          0.666              1.752              1.685
 Vibration    16          0.677              1.720              1.565
 Vibration    17          0.698              1.659              1.374
 Vibration    18          0.715              1.609              1.243
 Vibration    19          0.726              1.579              1.175
 Vibration    20          0.738              1.546              1.104
 Vibration    21          0.747              1.522              1.056
 Vibration    22          0.764              1.474              0.969
 Vibration    23          0.778              1.439              0.911
 Vibration    24          0.798              1.387              0.833
 Vibration    25          0.801              1.381              0.823
 Vibration    26          0.845              1.274              0.686
 Vibration    27          0.857              1.247              0.655
 Vibration    28          0.901              1.148              0.552
 Vibration    29          0.915              1.119              0.525

                           ! Non-Optimized Parameters !
 Normal termination of Gaussian 16 at Mon Dec 14 18:24:48 2020.

 ----------------------------------------------------------------------
 # B3LYP/6-311++G(d,p) empiricaldispersion=gd3bj scf=xqc pop=npa geom=c
 heck
 ----------------------------------------------------------------------

 ---------------------------------------
 CID_97482300_JID_10276_Energie_neutraal
 ---------------------------------------
 Structure from the checkpoint file:  "JID_10276.chk"
 Charge =  0 Multiplicity = 1

 SCF Done:  E(RB3LYP) =  -1276.53701881     A.U. after   16 cycles
 Normal termination of Gaussian 16 at Mon Dec 14 18:38:19 2020.

 ----------------------------------------------------------------------
 # B3LYP/6-311++G(d,p) empiricaldispersion=gd3bj scf=xqc pop=npa geom=c
 heck
 ----------------------------------------------------------------------

 -------------------------------------
 CID_97482300_JID_10276_Energie_kation
 -------------------------------------
 Structure from the checkpoint file:  "JID_10276.chk"
 Charge =  1 Multiplicity = 2

 SCF Done:  E(UB3LYP) =  -1276.26345115     A.U. after   24 cycles
 Normal termination of Gaussian 16 at Mon Dec 14 19:07:32 2020.
 Gaussian 16:  ES64L-G16RevA.03 25-Dec-2016

 ----------------------------------------------------------------------
 # B3LYP/6-311++G(d,p) empiricaldispersion=gd3bj scf=xqc pop=npa geom=c
 heck
 ----------------------------------------------------------------------

 ------------------------------------
 CID_97482300_JID_10276_Energie_anion
 ------------------------------------
 Structure from the checkpoint file:  "JID_10276.chk"
 Charge = -1 Multiplicity = 2

                         Standard orientation:
 ---------------------------------------------------------------------
 Center     Atomic      Atomic             Coordinates (Angstroms)
 Number     Number       Type             X           Y           Z
 ---------------------------------------------------------------------
      1          6           0       -1.220009    2.584433   -0.151635
      2          7           0       -2.379173    1.952225   -0.763342
      3          6           0       -3.614663    2.107330   -0.002978
      4          6           0       -3.754435    1.091248    1.142749
      5          6           0       -3.652498   -0.334998    0.585661
      6          6           0       -2.360029   -0.549836   -0.214845
      7          6           0       -2.212183    0.591377   -1.257591
      8          6           0       -2.329769   -1.922102   -0.927694
      9          6           0       -0.839020   -2.269263   -1.125291
     10          7           0       -0.150794   -1.299092   -0.237382
     11          6           0       -1.114737   -0.670164    0.679859
     12         16           0        1.359368   -1.690627    0.354606
     13          8           0        1.276393   -2.120388    1.754108
     14          8           0        2.002669   -2.542686   -0.653017
     15          6           0        2.184406   -0.126863    0.294859
     16          6           0        3.296441    0.149882   -0.463180
     17          7           0        3.591664    1.466222   -0.189366
     18          6           0        2.650422    1.907209    0.705352
     19          7           0        1.785542    0.966930    1.022610
     20          6           0        4.700353    2.233840   -0.733753
     21          1           0       -1.349574    3.674274   -0.181875
     22          1           0       -0.323827    2.330450   -0.724919
     23          1           0       -1.021850    2.305261    0.896282
     24          1           0       -3.665610    3.135289    0.373659
     25          1           0       -4.460486    1.974857   -0.695195
     26          1           0       -2.967750    1.261033    1.889486
     27          1           0       -4.713725    1.231950    1.656393
     28          1           0       -4.508676   -0.515852   -0.081364
     29          1           0       -3.719392   -1.078270    1.390770
     30          1           0       -2.984032    0.427072   -2.025723
     31          1           0       -1.239005    0.517309   -1.753252
     32          1           0       -2.805770   -2.672220   -0.285682
     33          1           0       -2.877273   -1.906666   -1.875860
     34          1           0       -0.496586   -2.117625   -2.152309
     35          1           0       -0.622061   -3.306092   -0.851126
     36          1           0       -0.709355    0.274188    1.038139
     37          1           0       -1.320379   -1.311033    1.549584
     38          1           0        3.870463   -0.457974   -1.143993
     39          1           0        2.652917    2.919981    1.085535
     40          1           0        5.655945    1.792846   -0.435589
     41          1           0        4.642460    2.266211   -1.825461
     42          1           0        4.644833    3.253075   -0.346632
 ---------------------------------------------------------------------

 SCF Done:  E(UB3LYP) =  -1276.53239204     A.U. after   31 cycles

 The electronic state is 2-A.
 Alpha  occ. eigenvalues --  -88.97622 -19.02758 -19.02623 -14.30022 -14.25452
 Alpha  occ. eigenvalues --  -14.22597 -14.21758 -10.14940 -10.13144 -10.13045
 Alpha  occ. eigenvalues --  -10.13039 -10.12458 -10.11830 -10.11143 -10.10964
 Alpha  occ. eigenvalues --  -10.10730 -10.10019 -10.09642 -10.09334 -10.08886
 Alpha  occ. eigenvalues --   -8.03728  -6.00015  -5.99969  -5.99840  -1.03026
 Alpha  occ. eigenvalues --   -0.94891  -0.91843  -0.86700  -0.84185  -0.81786
 Alpha  occ. eigenvalues --   -0.74089  -0.69963  -0.68758  -0.66775  -0.64628
 Alpha  occ. eigenvalues --   -0.62465  -0.61256  -0.58785  -0.54734  -0.53426
 Alpha  occ. eigenvalues --   -0.51136  -0.50720  -0.48767  -0.46427  -0.46284
 Alpha  occ. eigenvalues --   -0.43310  -0.41744  -0.40639  -0.39482  -0.39018
 Alpha  occ. eigenvalues --   -0.38597  -0.38192  -0.36852  -0.36552  -0.36305
 Alpha  occ. eigenvalues --   -0.35376  -0.35113  -0.33651  -0.33398  -0.32621
 Alpha  occ. eigenvalues --   -0.32382  -0.31955  -0.30924  -0.29842  -0.29471
 Alpha  occ. eigenvalues --   -0.28467  -0.27100  -0.26830  -0.26345  -0.25771
 Alpha  occ. eigenvalues --   -0.24466  -0.23989  -0.23633  -0.22890  -0.22012
 Alpha  occ. eigenvalues --   -0.20640  -0.20010  -0.17664  -0.15510  -0.12268
 Alpha  occ. eigenvalues --    0.03478
 Alpha virt. eigenvalues --    0.04760   0.06269   0.06838   0.07016   0.07244
 Alpha virt. eigenvalues --    0.07740   0.08661   0.08823   0.09075   0.09495
 Alpha virt. eigenvalues --    0.09687   0.10211   0.10589   0.11059   0.11360

  Beta  occ. eigenvalues --  -88.97622 -19.02757 -19.02622 -14.30020 -14.25452
  Beta  occ. eigenvalues --  -14.22596 -14.21758 -10.14918 -10.13142 -10.13042
  Beta  occ. eigenvalues --  -10.13027 -10.12362 -10.11827 -10.11133 -10.10956
  Beta  occ. eigenvalues --  -10.10731 -10.10013 -10.09626 -10.09325 -10.08877
  Beta  occ. eigenvalues --   -8.03728  -6.00015  -5.99969  -5.99840  -1.03023
  Beta  occ. eigenvalues --   -0.94881  -0.91840  -0.86698  -0.84179  -0.81772
  Beta  occ. eigenvalues --   -0.74082  -0.69949  -0.68735  -0.66760  -0.64554
  Beta  occ. eigenvalues --   -0.62440  -0.61230  -0.58760  -0.54714  -0.53410
  Beta  occ. eigenvalues --   -0.51092  -0.50684  -0.48745  -0.46401  -0.46236
  Beta  occ. eigenvalues --   -0.43289  -0.41719  -0.40624  -0.39446  -0.38994
  Beta  occ. eigenvalues --   -0.38579  -0.38173  -0.36837  -0.36525  -0.36265
  Beta  occ. eigenvalues --   -0.35352  -0.35101  -0.33638  -0.33379  -0.32603
  Beta  occ. eigenvalues --   -0.32294  -0.31918  -0.30911  -0.29829  -0.29458
  Beta  occ. eigenvalues --   -0.28451  -0.27087  -0.26815  -0.26335  -0.25766
  Beta  occ. eigenvalues --   -0.24454  -0.23978  -0.23627  -0.22885  -0.22005
  Beta  occ. eigenvalues --   -0.20632  -0.19992  -0.17657  -0.15500  -0.12258
  Beta virt. eigenvalues --    0.05049   0.06399   0.06491   0.07043   0.07222
  Beta virt. eigenvalues --    0.07770   0.08243   0.08701   0.09066   0.09201
  Beta virt. eigenvalues --    0.09862   0.09903   0.10237   0.11236   0.11441

 Mulliken charges and spin densities:
               1          2
     1  C   -0.206760  -0.267668
     2  N    0.066500   0.086758
     3  C   -0.083454  -0.312834
     4  C   -0.281377  -0.015591
     5  C   -0.356299  -0.053258
     6  C   -0.045839   0.748982
     7  C   -0.047499  -0.680408
     8  C   -0.082935  -0.236914
     9  C   -0.128506  -0.106571
    10  N    0.298182   0.014417
    11  C   -0.917053  -0.382230
    12  S    1.190214  -0.517475
    13  O   -0.030896  -0.000152
    14  O   -0.225319  -0.005477
    15  C   -0.957723  -0.408737
    16  C    0.017572   0.266634
    17  N   -0.277637   0.296531
    18  C   -0.050489   0.048052
    19  N    0.052971   0.031325
    20  C    2.176259  -2.470061
    21  H   -0.158252   0.308676
    22  H    0.189005  -0.001808
    23  H    0.145280   0.005134
    24  H    0.069071   0.093315
    25  H   -0.026089   0.151259
    26  H    0.126706   0.011558
    27  H   -0.177390   0.360380
    28  H   -0.020617   0.182051
    29  H    0.060420   0.079356
    30  H    0.131805   0.064354
    31  H    0.062737   0.114407
    32  H    0.122190   0.038378
    33  H    0.042220   0.112073
    34  H    0.140948   0.056875
    35  H    0.185849   0.006011
    36  H    0.192086  -0.010714
    37  H    0.232297   0.010749
    38  H   -0.017714   0.232384
    39  H   -0.413156   0.614778
    40  H   -0.488388   0.674193
    41  H   -0.625992   0.816658
    42  H   -0.882926   1.044609
 Sum of Mulliken charges =  -1.00000   1.00000

 Dipole moment (field-independent basis, Debye):
    X=             -9.4083    Y=             -5.8571    Z=              0.6110  Tot=             11.0994
 Quadrupole moment (field-independent basis, Debye-Ang):
   XX=           -232.0113   YY=           -197.0983   ZZ=           -166.6943
   XY=            -19.4016   XZ=              7.5136   YZ=             10.5554

 Summary of Natural Population Analysis:

                                       Natural Population
                Natural  -----------------------------------------------
    Atom  No    Charge         Core      Valence    Rydberg      Total
 -----------------------------------------------------------------------
      C    1   -0.17634      0.99963     2.16818    0.00853     3.17634
      N    2   -0.28134      0.99973     2.76807    0.01353     3.78134
      C    3   -0.08165      0.99961     2.07117    0.01087     3.08165
      C    4   -0.20196      0.99963     2.19440    0.00793     3.20196
      C    5   -0.18894      0.99958     2.17833    0.01103     3.18894
      C    6   -0.04902      0.99954     2.03683    0.01265     3.04902
      C    7   -0.08228      0.99956     2.06904    0.01368     3.08228
      C    8   -0.19129      0.99959     2.18355    0.00816     3.19129
      C    9   -0.07996      0.99963     2.07126    0.00908     3.07996
      N   10   -0.38039      0.99972     2.86847    0.01220     3.88039
      C   11   -0.09091      0.99956     2.08006    0.01129     3.09091
      S   12    1.11803      4.99911     1.78073    0.10213     6.88197
      O   13   -0.45742      0.99991     3.45248    0.00503     4.45742
      O   14   -0.46721      0.99991     3.46209    0.00522     4.46721
      C   15   -0.07777      0.99939     2.05726    0.02113     3.07777
      C   16   -0.00834      0.99946     1.99690    0.01198     3.00834
      N   17   -0.19790      0.99967     2.68720    0.01104     3.69790
      C   18    0.11849      0.99961     1.86457    0.01732     2.88151
      N   19   -0.25418      0.99969     2.74325    0.01125     3.75418
      C   20   -0.17360      0.99963     2.16551    0.00846     3.17360
      H   21    0.09261      0.00000     0.40625    0.00114     0.40739
      H   22    0.10097      0.00000     0.39769    0.00134     0.39903
      H   23    0.08174      0.00000     0.41693    0.00133     0.41826
      H   24    0.09714      0.00000     0.40203    0.00083     0.40286
      H   25    0.09011      0.00000     0.40887    0.00102     0.40989
      H   26    0.09658      0.00000     0.40234    0.00108     0.40342
      H   27    0.09931      0.00000     0.39962    0.00108     0.40069
      H   28    0.09730      0.00000     0.40155    0.00116     0.40270
      H   29    0.10051      0.00000     0.39860    0.00089     0.39949
      H   30    0.09178      0.00000     0.40707    0.00115     0.40822
      H   31    0.10467      0.00000     0.39395    0.00138     0.39533
      H   32    0.10040      0.00000     0.39842    0.00118     0.39960
      H   33    0.10385      0.00000     0.39517    0.00098     0.39615
      H   34    0.09884      0.00000     0.40001    0.00115     0.40116
      H   35    0.09837      0.00000     0.40023    0.00140     0.40163
      H   36    0.11667      0.00000     0.38146    0.00187     0.38333
      H   37    0.09570      0.00000     0.40318    0.00112     0.40430
      H   38    0.11650      0.00000     0.38246    0.00103     0.38350
      H   39    0.10017      0.00000     0.39820    0.00163     0.39983
      H   40    0.10323      0.00000     0.39443    0.00234     0.39677
      H   41    0.10677      0.00000     0.38892    0.00431     0.39323
      H   42    0.11077      0.00000     0.38248    0.00675     0.38923
 =======================================================================
   * Total *   -0.00000     23.99217    55.65918    0.34865    80.00000

 Normal termination of Gaussian 16 at Mon Dec 14 19:44:27 2020.
