 Gaussian 16, Revision A.03,

 -----------------------------------------------------------
 # opt freq B3LYP/6-31G(d) empiricaldispersion=gd3bj scf=xqc
 -----------------------------------------------------------

 -------------------------------
 CID_113556060_JID_8734_neutraal
 -------------------------------
 Symbolic Z-matrix:
 Charge =  0 Multiplicity = 1

 SCF Done:  E(RB3LYP) =  -827.797015681     A.U. after   13 cycles
 SCF Done:  E(RB3LYP) =  -827.802366478     A.U. after   12 cycles
 SCF Done:  E(RB3LYP) =  -827.803003669     A.U. after   12 cycles
 SCF Done:  E(RB3LYP) =  -827.803430903     A.U. after   11 cycles
 SCF Done:  E(RB3LYP) =  -827.803695898     A.U. after   11 cycles
 SCF Done:  E(RB3LYP) =  -827.803735437     A.U. after   12 cycles
 SCF Done:  E(RB3LYP) =  -827.803953873     A.U. after   11 cycles
 SCF Done:  E(RB3LYP) =  -827.803771841     A.U. after   12 cycles
 SCF Done:  E(RB3LYP) =  -827.804084855     A.U. after   13 cycles
 SCF Done:  E(RB3LYP) =  -827.804097946     A.U. after   12 cycles
 SCF Done:  E(RB3LYP) =  -827.804294749     A.U. after   11 cycles
 SCF Done:  E(RB3LYP) =  -827.804295464     A.U. after    8 cycles
 SCF Done:  E(RB3LYP) =  -827.804295370     A.U. after    8 cycles
 SCF Done:  E(RB3LYP) =  -827.804295908     A.U. after    9 cycles
 SCF Done:  E(RB3LYP) =  -827.804295916     A.U. after    6 cycles
 Optimization completed.
    -- Stationary point found.
 Normal termination of Gaussian 16 at Fri Dec 11 21:32:15 2020.

 --------------------------------------------------------------------
 #N Geom=AllCheck Guess=TCheck SCRF=Check GenChk RB3LYP/6-31G(d) Freq
 --------------------------------------------------------------------

 Structure from the checkpoint file:  "JID_8734.chk"
 -------------------------------
 CID_113556060_JID_8734_neutraal
 -------------------------------
 Charge =  0 Multiplicity = 1

 SCF Done:  E(RB3LYP) =  -827.804295916     A.U. after    1 cycles

  Exact polarizability: 197.375  -4.424 183.437  10.498  -1.452 118.919
 Approx polarizability: 268.585  -6.672 268.309  23.140  -7.191 172.402

                      1                      2                      3
                      A                      A                      A
 Frequencies --     21.0111                44.4255                50.1881
 Red. masses --      3.6592                 2.0285                 3.1265
 Frc consts  --      0.0010                 0.0024                 0.0046
 IR Inten    --      0.0479                 1.2943                 0.2856

                      4                      5                      6
                      A                      A                      A
 Frequencies --     54.7778                77.8678                83.6756
 Red. masses --      3.4058                 3.2977                 3.1541
 Frc consts  --      0.0060                 0.0118                 0.0130
 IR Inten    --      0.3182                 0.5866                 8.1151

                      7                      8                      9
                      A                      A                      A
 Frequencies --     91.1268               116.5469               152.5161
 Red. masses --      3.2030                 2.8200                 2.7711
 Frc consts  --      0.0157                 0.0226                 0.0380
 IR Inten    --      0.2302                 0.1903                 0.8819

                     10                     11                     12
                      A                      A                      A
 Frequencies --    158.9063               178.4953               190.7849
 Red. masses --      3.9822                 3.0680                 3.0128
 Frc consts  --      0.0592                 0.0576                 0.0646
 IR Inten    --      0.2699                 2.8299                 1.7679

                     13                     14                     15
                      A                      A                      A
 Frequencies --    214.5213               234.3846               247.0447
 Red. masses --      1.9289                 1.3469                 2.0563
 Frc consts  --      0.0523                 0.0436                 0.0739
 IR Inten    --      1.1798                 0.5073                 0.6354

                     16                     17                     18
                      A                      A                      A
 Frequencies --    256.2197               266.0102               281.0944
 Red. masses --      1.3903                 1.3661                 2.1050
 Frc consts  --      0.0538                 0.0570                 0.0980
 IR Inten    --      0.5581                 3.0222                 1.1939

                     19                     20                     21
                      A                      A                      A
 Frequencies --    292.4660               299.4224               308.8345
 Red. masses --      1.5960                 1.8005                 2.6140
 Frc consts  --      0.0804                 0.0951                 0.1469
 IR Inten    --      2.2119                24.2373                11.5069

                     22                     23                     24
                      A                      A                      A
 Frequencies --    318.7784               362.4234               403.6662
 Red. masses --      1.9184                 3.1143                 4.5338
 Frc consts  --      0.1149                 0.2410                 0.4353
 IR Inten    --     24.6044                 0.7436                 3.4357

                     25                     26                     27
                      A                      A                      A
 Frequencies --    429.0135               473.8373               497.2932
 Red. masses --      4.0612                 3.1341                 4.6149
 Frc consts  --      0.4404                 0.4146                 0.6724
 IR Inten    --      4.3253                 6.7866                 3.6705

                     28                     29                     30
                      A                      A                      A
 Frequencies --    512.4928               536.1833               555.4388
 Red. masses --      3.8705                 4.3817                 3.5201
 Frc consts  --      0.5989                 0.7422                 0.6399
 IR Inten    --      8.8671                 9.3491                 5.1146

                     31                     32                     33
                      A                      A                      A
 Frequencies --    597.6158               645.7639               667.7350
 Red. masses --      4.3913                 3.7315                 3.5472
 Frc consts  --      0.9240                 0.9168                 0.9318
 IR Inten    --      6.5575                 3.8109                 7.1610

                     34                     35                     36
                      A                      A                      A
 Frequencies --    735.8513               745.1729               766.9021
 Red. masses --      3.7061                 3.5157                 3.3366
 Frc consts  --      1.1824                 1.1502                 1.1562
 IR Inten    --     10.9623                 3.5810                 2.9025

                     37                     38                     39
                      A                      A                      A
 Frequencies --    798.0018               814.5028               832.5088
 Red. masses --      1.4470                 1.6055                 1.0872
 Frc consts  --      0.5429                 0.6275                 0.4440
 IR Inten    --     22.8993                 1.6714                 0.6516

                     40                     41                     42
                      A                      A                      A
 Frequencies --    842.9396               893.8854               924.6535
 Red. masses --      1.5657                 1.6735                 2.0339
 Frc consts  --      0.6555                 0.7878                 1.0246
 IR Inten    --     36.6039                52.0636                 7.2147

                     43                     44                     45
                      A                      A                      A
 Frequencies --    937.9672               950.3773               957.2816
 Red. masses --      1.5460                 3.4404                 1.5051
 Frc consts  --      0.8014                 1.8308                 0.8126
 IR Inten    --     19.4056                 6.6338               129.6213

                     46                     47                     48
                      A                      A                      A
 Frequencies --    979.0858              1028.5585              1061.3515
 Red. masses --      2.2546                 2.9043                 2.5729
 Frc consts  --      1.2734                 1.8103                 1.7076
 IR Inten    --     62.5515                25.0355                 1.3620

                     49                     50                     51
                      A                      A                      A
 Frequencies --   1078.6926              1093.9735              1113.4328
 Red. masses --      3.7209                 4.8017                 2.4746
 Frc consts  --      2.5509                 3.3858                 1.8075
 IR Inten    --     39.5979                47.9255                81.5606

                     52                     53                     54
                      A                      A                      A
 Frequencies --   1127.9266              1131.3883              1151.5025
 Red. masses --      2.8114                 1.6480                 2.1417
 Frc consts  --      2.1073                 1.2429                 1.6732
 IR Inten    --     87.3346                 4.7649                26.5521

                     55                     56                     57
                      A                      A                      A
 Frequencies --   1166.9011              1178.4016              1186.8634
 Red. masses --      2.4518                 2.4722                 1.2711
 Frc consts  --      1.9670                 2.0226                 1.0550
 IR Inten    --    101.7415                25.8625                 0.2131

                     58                     59                     60
                      A                      A                      A
 Frequencies --   1187.2049              1201.4121              1202.3444
 Red. masses --      1.2713                 1.6025                 1.6060
 Frc consts  --      1.0557                 1.3628                 1.3679
 IR Inten    --      1.4148                52.3583                46.3715

                     61                     62                     63
                      A                      A                      A
 Frequencies --   1216.7325              1222.2926              1242.4178
 Red. masses --      1.5307                 1.4401                 1.6117
 Frc consts  --      1.3352                 1.2677                 1.4657
 IR Inten    --     51.4503                 2.5812                12.8472

                     64                     65                     66
                      A                      A                      A
 Frequencies --   1253.5631              1288.5744              1308.2728
 Red. masses --      2.0407                 1.4202                 1.7229
 Frc consts  --      1.8894                 1.3894                 1.7374
 IR Inten    --    211.2177                14.5031                54.3617

                     67                     68                     69
                      A                      A                      A
 Frequencies --   1314.2125              1328.5022              1343.5553
 Red. masses --      1.3633                 2.3824                 2.1824
 Frc consts  --      1.3873                 2.4774                 2.3211
 IR Inten    --     23.4192                43.7037                76.0061

                     70                     71                     72
                      A                      A                      A
 Frequencies --   1355.6539              1383.9230              1404.2958
 Red. masses --      1.3067                 1.3830                 1.4385
 Frc consts  --      1.4149                 1.5607                 1.6714
 IR Inten    --     20.4185                57.9088                37.9775

                     73                     74                     75
                      A                      A                      A
 Frequencies --   1415.4633              1431.4685              1436.9493
 Red. masses --      1.7378                 1.2767                 1.3330
 Frc consts  --      2.0513                 1.5414                 1.6216
 IR Inten    --      0.9478                 6.7514                 0.9997

                     76                     77                     78
                      A                      A                      A
 Frequencies --   1447.1718              1462.7214              1473.2340
 Red. masses --      1.2264                 1.4111                 2.2772
 Frc consts  --      1.5133                 1.7788                 2.9120
 IR Inten    --      4.1889                14.2256                27.4183

                     79                     80                     81
                      A                      A                      A
 Frequencies --   1497.1572              1512.7616              1514.6334
 Red. masses --      1.2145                 1.4294                 1.0413
 Frc consts  --      1.6039                 1.9272                 1.4075
 IR Inten    --     31.8708                 4.1813                 5.3816

                     82                     83                     84
                      A                      A                      A
 Frequencies --   1519.9134              1520.2127              1520.7681
 Red. masses --      1.0481                 1.0564                 1.0638
 Frc consts  --      1.4266                 1.4385                 1.4495
 IR Inten    --      4.4987                 1.7515                 6.6641

                     85                     86                     87
                      A                      A                      A
 Frequencies --   1531.3058              1533.7297              1534.0298
 Red. masses --      1.0459                 1.1175                 1.0660
 Frc consts  --      1.4450                 1.5488                 1.4781
 IR Inten    --      3.3715                65.4693                14.0776

                     88                     89                     90
                      A                      A                      A
 Frequencies --   1537.8544              1548.8941              1556.9300
 Red. masses --      1.0559                 1.0576                 2.0617
 Frc consts  --      1.4713                 1.4949                 2.9445
 IR Inten    --     19.1666                 4.0483                56.5554

                     91                     92                     93
                      A                      A                      A
 Frequencies --   1559.5948              1637.9129              1671.5102
 Red. masses --      1.1558                 6.6814                 5.7133
 Frc consts  --      1.6564                10.5609                 9.4050
 IR Inten    --     11.1773                66.0087               174.9324

                     94                     95                     96
                      A                      A                      A
 Frequencies --   1680.0911              2990.6580              3009.3286
 Red. masses --      1.1002                 1.0566                 1.0820
 Frc consts  --      1.8298                 5.5682                 5.7731
 IR Inten    --     23.3671                35.1921                53.5727

                     97                     98                     99
                      A                      A                      A
 Frequencies --   3019.9828              3025.4898              3028.8587
 Red. masses --      1.1068                 1.0346                 1.0342
 Frc consts  --      5.9473                 5.5797                 5.5899
 IR Inten    --     40.6804                57.8863                55.9525

                    100                    101                    102
                      A                      A                      A
 Frequencies --   3046.5410              3050.1485              3057.3879
 Red. masses --      1.0408                 1.0636                 1.0349
 Frc consts  --      5.6913                 5.8300                 5.6998
 IR Inten    --     37.2089                36.1494                17.7853

                    103                    104                    105
                      A                      A                      A
 Frequencies --   3083.5450              3088.8812              3091.6464
 Red. masses --      1.1065                 1.1067                 1.0980
 Frc consts  --      6.1990                 6.2213                 6.1836
 IR Inten    --     42.1132                38.6567                19.8036

                    106                    107                    108
                      A                      A                      A
 Frequencies --   3109.4194              3122.3379              3128.7350
 Red. masses --      1.1002                 1.0853                 1.1026
 Frc consts  --      6.2675                 6.2339                 6.3595
 IR Inten    --     43.7384                19.8653                36.1020

                    109                    110                    111
                      A                      A                      A
 Frequencies --   3132.2698              3139.5979              3156.4439
 Red. masses --      1.1034                 1.0995                 1.0999
 Frc consts  --      6.3782                 6.3858                 6.4564
 IR Inten    --     31.4914                16.7609                30.7299

                    112                    113                    114
                      A                      A                      A
 Frequencies --   3158.2440              3219.9353              3235.1879
 Red. masses --      1.1003                 1.0873                 1.0930
 Frc consts  --      6.4664                 6.6419                 6.7399
 IR Inten    --     22.9643                 4.0763                10.2941

                    115                    116                    117
                      A                      A                      A
 Frequencies --   3243.1110              3469.9612              3557.3480
 Red. masses --      1.0896                 1.0492                 1.0919
 Frc consts  --      6.7522                 7.4434                 8.1409
 IR Inten    --      3.7391                 3.9948                 0.1691

 - Thermochemistry -
 -------------------
 Temperature   298.150 Kelvin.  Pressure   1.00000 Atm.
 Atom     1 has atomic number  6 and mass  12.00000

 Molecular mass:   253.16779 amu.
 Principal axes and moments of inertia in atomic units:
                           1         2         3
     Eigenvalues --  3443.687516706.108588681.39094
           X            0.99994   0.01020  -0.00340
           Y           -0.01016   0.99988   0.01196
           Z            0.00352  -0.01193   0.99992
 This molecule is an asymmetric top.
 Rotational symmetry number  1.
 Warning -- assumption of classical behavior for rotation
           may cause significant error
 Rotational temperatures (Kelvin)      0.02515     0.01292     0.00998
 Rotational constants (GHZ):           0.52407     0.26912     0.20789
 Zero-point vibrational energy     945534.4 (Joules/Mol)
                                  225.98815 (Kcal/Mol)
 Warning -- explicit consideration of  31 degrees of freedom as
           vibrations may cause significant error
 Vibrational temperatures:     30.23    63.92    72.21    78.81   112.03
          (Kelvin)            120.39   131.11   167.68   219.44   228.63
                              256.81   274.50   308.65   337.23   355.44
                              368.64   382.73   404.43   420.79   430.80
                              444.34   458.65   521.45   580.79   617.25
                              681.75   715.49   737.36   771.45   799.15
                              859.84   929.11   960.72  1058.73  1072.14
                             1103.40  1148.15  1171.89  1197.79  1212.80
                             1286.10  1330.37  1349.53  1367.38  1377.31
                             1408.69  1479.87  1527.05  1552.00  1573.98
                             1601.98  1622.83  1627.82  1656.76  1678.91
                             1695.46  1707.63  1708.12  1728.56  1729.91
                             1750.61  1758.61  1787.56  1803.60  1853.97
                             1882.31  1890.86  1911.42  1933.08  1950.48
                             1991.16  2020.47  2036.54  2059.56  2067.45
                             2082.16  2104.53  2119.66  2154.08  2176.53
                             2179.22  2186.82  2187.25  2188.05  2203.21
                             2206.69  2207.13  2212.63  2228.51  2240.08
                             2243.91  2356.59  2404.93  2417.28  4302.89
                             4329.75  4345.08  4353.00  4357.85  4383.29
                             4388.48  4398.90  4436.53  4444.21  4448.19
                             4473.76  4492.35  4501.55  4506.64  4517.18
                             4541.42  4544.01  4632.77  4654.71  4666.11
                             4992.50  5118.23

 Zero-point correction=                           0.360135 (Hartree/Particle)
 Thermal correction to Energy=                    0.380217
 Thermal correction to Enthalpy=                  0.381161
 Thermal correction to Gibbs Free Energy=         0.310699
 Sum of electronic and zero-point Energies=           -827.444161
 Sum of electronic and thermal Energies=              -827.424079
 Sum of electronic and thermal Enthalpies=            -827.423135
 Sum of electronic and thermal Free Energies=         -827.493597

                     E (Thermal)             CV                S
                      KCal/Mol        Cal/Mol-Kelvin    Cal/Mol-Kelvin
 Total                  238.589             74.046            148.299
 Electronic               0.000              0.000              0.000
 Translational            0.889              2.981             42.487
 Rotational               0.889              2.981             33.660
 Vibrational            236.812             68.085             72.152
 Vibration     1          0.593              1.986              6.536
 Vibration     2          0.595              1.980              5.051
 Vibration     3          0.595              1.978              4.810
 Vibration     4          0.596              1.976              4.637
 Vibration     5          0.599              1.964              3.944
 Vibration     6          0.601              1.960              3.803
 Vibration     7          0.602              1.955              3.636
 Vibration     8          0.608              1.936              3.157
 Vibration     9          0.619              1.900              2.641
 Vibration    10          0.621              1.893              2.563
 Vibration    11          0.629              1.869              2.344
 Vibration    12          0.634              1.853              2.220
 Vibration    13          0.644              1.819              2.005
 Vibration    14          0.654              1.788              1.845
 Vibration    15          0.661              1.768              1.752
 Vibration    16          0.666              1.752              1.687
 Vibration    17          0.672              1.735              1.622
 Vibration    18          0.681              1.709              1.527
 Vibration    19          0.688              1.688              1.460
 Vibration    20          0.692              1.675              1.420
 Vibration    21          0.698              1.657              1.369
 Vibration    22          0.705              1.638              1.316
 Vibration    23          0.736              1.550              1.112
 Vibration    24          0.769              1.462              0.949
 Vibration    25          0.790              1.407              0.862
 Vibration    26          0.831              1.308              0.727
 Vibration    27          0.853              1.256              0.665
 Vibration    28          0.868              1.222              0.628
 Vibration    29          0.891              1.170              0.574
 Vibration    30          0.911              1.128              0.533
 Vibration    31          0.956              1.037              0.454

 Optimization completed.
    -- Stationary point found.
 Normal termination of Gaussian 16 at Fri Dec 11 21:52:03 2020.

 ----------------------------------------------------------------------
 # B3LYP/6-311++G(d,p) empiricaldispersion=gd3bj scf=xqc pop=npa geom=c
 heck
 ----------------------------------------------------------------------

 ---------------------------------------
 CID_113556060_JID_8734_Energie_neutraal
 ---------------------------------------
 Structure from the checkpoint file:  "JID_8734.chk"
 Charge =  0 Multiplicity = 1

 SCF Done:  E(RB3LYP) =  -828.043458894     A.U. after   14 cycles
 Normal termination of Gaussian 16 at Fri Dec 11 21:59:25 2020.

 ----------------------------------------------------------------------
 # B3LYP/6-311++G(d,p) empiricaldispersion=gd3bj scf=xqc pop=npa geom=c
 heck
 ----------------------------------------------------------------------

 -------------------------------------
 CID_113556060_JID_8734_Energie_kation
 -------------------------------------
 Structure from the checkpoint file:  "JID_8734.chk"
 Charge =  1 Multiplicity = 2

 SCF Done:  E(UB3LYP) =  -827.771913950     A.U. after   24 cycles
 Normal termination of Gaussian 16 at Fri Dec 11 22:17:25 2020.
 Gaussian 16:  ES64L-G16RevA.03 25-Dec-2016

 ----------------------------------------------------------------------
 # B3LYP/6-311++G(d,p) empiricaldispersion=gd3bj scf=xqc pop=npa geom=c
 heck
 ----------------------------------------------------------------------

 ------------------------------------
 CID_113556060_JID_8734_Energie_anion
 ------------------------------------
 Structure from the checkpoint file:  "JID_8734.chk"
 Charge = -1 Multiplicity = 2

                         Standard orientation:
 ---------------------------------------------------------------------
 Center     Atomic      Atomic             Coordinates (Angstroms)
 Number     Number       Type             X           Y           Z
 ---------------------------------------------------------------------
      1          6           0       -1.600153    2.433795    1.725935
      2          6           0       -1.890059    0.942642    1.528495
      3          6           0       -2.242566    0.569386    0.086808
      4          6           0       -1.117906    0.830782   -0.932477
      5          6           0        0.220763    0.213303   -0.540367
      6          6           0        1.358650    1.021298   -0.321196
      7          6           0        2.592828    0.459430   -0.001448
      8          6           0        2.719792   -0.931121    0.110386
      9          6           0        1.612443   -1.754305   -0.096813
     10          6           0        0.386984   -1.165648   -0.420471
     11          8           0        3.972935   -1.374330    0.427895
     12          6           0        4.161347   -2.772334    0.562132
     13          8           0        1.171583    2.374857   -0.440168
     14          6           0        2.282697    3.228888   -0.232290
     15          7           0       -1.623783    0.417350   -2.251630
     16          8           0       -2.583688   -0.820684    0.002015
     17          6           0       -3.947313   -1.113601    0.253426
     18          6           0       -4.141047   -2.613040    0.107742
     19          1           0       -0.703730    2.743622    1.181129
     20          1           0       -1.443770    2.660652    2.786286
     21          1           0       -2.437933    3.049732    1.375145
     22          1           0       -1.027633    0.342261    1.838773
     23          1           0       -2.728232    0.646032    2.171706
     24          1           0       -3.106851    1.160988   -0.252018
     25          1           0       -0.982535    1.913113   -0.971683
     26          1           0        3.475892    1.061531    0.168535
     27          1           0        1.684010   -2.831532   -0.011186
     28          1           0       -0.479188   -1.801471   -0.565350
     29          1           0        3.536397   -3.187948    1.363553
     30          1           0        3.939780   -3.300638   -0.374609
     31          1           0        5.213952   -2.911047    0.815290
     32          1           0        1.909913    4.244365   -0.376609
     33          1           0        2.682140    3.127823    0.785039
     34          1           0        3.084252    3.027829   -0.954685
     35          1           0       -0.872152    0.498918   -2.934266
     36          1           0       -1.859818   -0.572202   -2.197016
     37          1           0       -4.234913   -0.788847    1.265643
     38          1           0       -4.584124   -0.566369   -0.460020
     39          1           0       -3.511546   -3.150698    0.824139
     40          1           0       -5.186460   -2.885889    0.288081
     41          1           0       -3.866380   -2.937269   -0.901570
 ---------------------------------------------------------------------

 SCF Done:  E(UB3LYP) =  -828.029347467     A.U. after   33 cycles
 SCF Done:  E(UB3LYP) =  -828.029347467     a.u. after    1 cycles

 The electronic state is 2-A.
 Alpha  occ. eigenvalues --  -19.06666 -19.06313 -19.03607 -14.20080 -10.14598
 Alpha  occ. eigenvalues --  -10.14416 -10.13377 -10.13296 -10.13116 -10.13022
 Alpha  occ. eigenvalues --  -10.10871 -10.08069 -10.07871 -10.07859 -10.07683
 Alpha  occ. eigenvalues --  -10.07642 -10.07455 -10.07164  -0.98239  -0.97871
 Alpha  occ. eigenvalues --   -0.95061  -0.80060  -0.75860  -0.70675  -0.67608
 Alpha  occ. eigenvalues --   -0.66691  -0.66339  -0.62062  -0.61250  -0.59441
 Alpha  occ. eigenvalues --   -0.54871  -0.53340  -0.51345  -0.50187  -0.47644
 Alpha  occ. eigenvalues --   -0.45272  -0.42781  -0.41341  -0.40593  -0.39435
 Alpha  occ. eigenvalues --   -0.39099  -0.38367  -0.38165  -0.37767  -0.37197
 Alpha  occ. eigenvalues --   -0.35918  -0.34480  -0.33119  -0.32340  -0.32025
 Alpha  occ. eigenvalues --   -0.31340  -0.30930  -0.29856  -0.29601  -0.29449
 Alpha  occ. eigenvalues --   -0.27987  -0.27600  -0.27121  -0.25950  -0.25415
 Alpha  occ. eigenvalues --   -0.24960  -0.24357  -0.24301  -0.22437  -0.21321
 Alpha  occ. eigenvalues --   -0.17553  -0.16154  -0.14573  -0.12259   0.03968
 Alpha virt. eigenvalues --    0.05346   0.05514   0.06763   0.07548   0.07656
 Alpha virt. eigenvalues --    0.08002   0.08313   0.08596   0.09221   0.09304
 Alpha virt. eigenvalues --    0.09764   0.09865   0.10136   0.10603   0.11353

  Beta  occ. eigenvalues --  -19.06660 -19.06305 -19.03601 -14.20074 -10.14597
  Beta  occ. eigenvalues --  -10.14417 -10.13334 -10.13285 -10.13115 -10.12980
  Beta  occ. eigenvalues --  -10.10870 -10.08066 -10.07872 -10.07834 -10.07676
  Beta  occ. eigenvalues --  -10.07636 -10.07442 -10.07155  -0.98226  -0.97854
  Beta  occ. eigenvalues --   -0.95051  -0.80052  -0.75852  -0.70663  -0.67587
  Beta  occ. eigenvalues --   -0.66668  -0.66317  -0.62028  -0.61198  -0.59409
  Beta  occ. eigenvalues --   -0.54849  -0.53295  -0.51317  -0.50152  -0.47627
  Beta  occ. eigenvalues --   -0.45240  -0.42758  -0.41320  -0.40574  -0.39416
  Beta  occ. eigenvalues --   -0.39082  -0.38348  -0.38144  -0.37740  -0.37181
  Beta  occ. eigenvalues --   -0.35877  -0.34461  -0.33095  -0.32311  -0.32006
  Beta  occ. eigenvalues --   -0.31313  -0.30911  -0.29835  -0.29582  -0.29425
  Beta  occ. eigenvalues --   -0.27964  -0.27577  -0.27103  -0.25928  -0.25394
  Beta  occ. eigenvalues --   -0.24935  -0.24330  -0.24278  -0.22417  -0.21307
  Beta  occ. eigenvalues --   -0.17545  -0.16146  -0.14564  -0.12251
  Beta virt. eigenvalues --    0.05750   0.06241   0.06470   0.07042   0.07701
  Beta virt. eigenvalues --    0.07971   0.08089   0.08656   0.08981   0.09502
  Beta virt. eigenvalues --    0.09565   0.10056   0.10203   0.10285   0.10925

 Mulliken charges and spin densities:
               1          2
     1  C   -0.282379  -0.414938
     2  C   -0.054428   0.057904
     3  C   -0.407466  -0.088870
     4  C    0.345597  -0.419729
     5  C    1.632871  -0.683859
     6  C   -1.448197   1.165983
     7  C   -1.221631   0.484116
     8  C    0.689232  -1.048623
     9  C   -0.068562   0.155341
    10  C   -0.362173  -0.149117
    11  O   -0.209869   0.057989
    12  C    0.750263  -1.102186
    13  O   -0.129392   0.028640
    14  C    0.595376  -0.892241
    15  N   -0.333165   0.025639
    16  O   -0.062325   0.013743
    17  C   -0.146591   0.166673
    18  C    0.594450  -1.159841
    19  H    0.330946  -0.173369
    20  H   -0.065749   0.197380
    21  H    0.026417   0.093966
    22  H    0.134967   0.025557
    23  H    0.125072   0.010745
    24  H    0.115087   0.069021
    25  H    0.342305  -0.039616
    26  H    0.113889   0.102337
    27  H   -0.218280   0.415645
    28  H    0.053395   0.141084
    29  H   -0.171617   0.332838
    30  H   -0.196124   0.354715
    31  H   -0.522536   0.700311
    32  H   -0.589164   0.774611
    33  H   -0.161414   0.317486
    34  H   -0.212442   0.358264
    35  H    0.127486   0.096153
    36  H    0.255656  -0.022531
    37  H   -0.079324   0.196142
    38  H    0.005292   0.126285
    39  H   -0.037702   0.189189
    40  H   -0.195141   0.328111
    41  H   -0.062629   0.209050
 Sum of Mulliken charges =  -1.00000   1.00000

 Dipole moment (field-independent basis, Debye):
    X=             -4.0226    Y=              1.4971    Z=             -0.5765  Tot=              4.3307
 Quadrupole moment (field-independent basis, Debye-Ang):
   XX=           -202.4832   YY=           -184.2999   ZZ=           -144.0807
   XY=              0.1119   XZ=             -4.1161   YZ=              4.6729

 Summary of Natural Population Analysis:

                                       Natural Population
                Natural  -----------------------------------------------
    Atom  No    Charge         Core      Valence    Rydberg      Total
 -----------------------------------------------------------------------
      C    1   -0.28967      0.99966     2.28566    0.00435     3.28967
      C    2   -0.20458      0.99961     2.19609    0.00888     3.20458
      C    3    0.07617      0.99952     1.91137    0.01294     2.92383
      C    4   -0.03046      0.99952     2.01736    0.01357     3.03046
      C    5   -0.06323      0.99946     2.05088    0.01289     3.06323
      C    6    0.17069      0.99934     1.81730    0.01267     2.82931
      C    7   -0.16386      0.99948     2.15528    0.00911     3.16386
      C    8    0.17076      0.99939     1.81740    0.01245     2.82924
      C    9   -0.15670      0.99951     2.14839    0.00880     3.15670
      C   10   -0.08204      0.99953     2.07168    0.01083     3.08204
      O   11   -0.27361      0.99986     3.26345    0.01030     4.27361
      C   12   -0.10068      0.99960     2.09190    0.00918     3.10068
      O   13   -0.27836      0.99986     3.26908    0.00943     4.27836
      C   14   -0.10043      0.99960     2.09158    0.00925     3.10043
      N   15   -0.41746      0.99977     2.90916    0.00853     3.91746
      O   16   -0.31607      0.99987     3.30495    0.01125     4.31607
      C   17   -0.00621      0.99959     1.99488    0.01174     3.00621
      C   18   -0.29064      0.99966     2.28633    0.00465     3.29064
      H   19    0.10572      0.00000     0.39276    0.00152     0.39428
      H   20    0.09854      0.00000     0.40063    0.00083     0.40146
      H   21    0.09332      0.00000     0.40573    0.00095     0.40668
      H   22    0.10462      0.00000     0.39407    0.00131     0.39538
      H   23    0.09514      0.00000     0.40358    0.00128     0.40486
      H   24    0.08409      0.00000     0.41373    0.00217     0.41591
      H   25    0.10840      0.00000     0.38948    0.00213     0.39160
      H   26    0.11155      0.00000     0.38669    0.00176     0.38845
      H   27    0.10694      0.00000     0.39166    0.00139     0.39306
      H   28    0.11000      0.00000     0.38815    0.00185     0.39000
      H   29    0.08551      0.00000     0.41274    0.00175     0.41449
      H   30    0.08522      0.00000     0.41298    0.00181     0.41478
      H   31    0.09458      0.00000     0.40405    0.00137     0.40542
      H   32    0.09554      0.00000     0.40317    0.00129     0.40446
      H   33    0.08599      0.00000     0.41241    0.00160     0.41401
      H   34    0.08577      0.00000     0.41264    0.00160     0.41423
      H   35    0.17434      0.00000     0.32408    0.00158     0.32566
      H   36    0.17678      0.00000     0.32104    0.00218     0.32322
      H   37    0.07707      0.00000     0.42125    0.00168     0.42293
      H   38    0.07787      0.00000     0.42076    0.00137     0.42213
      H   39    0.10129      0.00000     0.39726    0.00146     0.39871
      H   40    0.09932      0.00000     0.39952    0.00116     0.40068
      H   41    0.09878      0.00000     0.39977    0.00145     0.40122
 =======================================================================
   * Total *    0.00000     17.99283    50.79088    0.21630    69.00000

 Normal termination of Gaussian 16 at Fri Dec 11 22:42:14 2020.
