 Gaussian 16, Revision A.03,

 -----------------------------------------------------------
 # opt freq B3LYP/6-31G(d) empiricaldispersion=gd3bj scf=xqc
 -----------------------------------------------------------

 -------------------------------
 CID_115759826_JID_6397_neutraal
 -------------------------------
 Symbolic Z-matrix:
 Charge =  0 Multiplicity = 1

 SCF Done:  E(RB3LYP) =  -731.738562354     A.U. after   14 cycles
 SCF Done:  E(RB3LYP) =  -731.736747252     A.U. after   13 cycles
 SCF Done:  E(RB3LYP) =  -731.743639037     A.U. after   12 cycles
 SCF Done:  E(RB3LYP) =  -731.744436808     A.U. after   14 cycles
 SCF Done:  E(RB3LYP) =  -731.744823248     A.U. after   12 cycles
 SCF Done:  E(RB3LYP) =  -731.745525063     A.U. after   12 cycles
 SCF Done:  E(RB3LYP) =  -731.746351676     A.U. after   11 cycles
 SCF Done:  E(RB3LYP) =  -731.746564080     A.U. after   11 cycles
 SCF Done:  E(RB3LYP) =  -731.746765115     A.U. after   11 cycles
 SCF Done:  E(RB3LYP) =  -731.746837079     A.U. after   10 cycles
 SCF Done:  E(RB3LYP) =  -731.749125866     A.U. after    9 cycles
 SCF Done:  E(RB3LYP) =  -731.749128979     A.U. after    9 cycles
 SCF Done:  E(RB3LYP) =  -731.749131673     A.U. after    9 cycles
 SCF Done:  E(RB3LYP) =  -731.749132241     A.U. after    8 cycles
 SCF Done:  E(RB3LYP) =  -731.749132317     A.U. after    6 cycles
 SCF Done:  E(RB3LYP) =  -731.749132297     A.U. after    6 cycles
 Optimization completed.
    -- Stationary point found.
 Normal termination of Gaussian 16 at Thu Dec 10 23:05:32 2020.

 --------------------------------------------------------------------
 #N Geom=AllCheck Guess=TCheck SCRF=Check GenChk RB3LYP/6-31G(d) Freq
 --------------------------------------------------------------------

 Structure from the checkpoint file:  "JID_6397.chk"
 -------------------------------
 CID_115759826_JID_6397_neutraal
 -------------------------------
 Charge =  0 Multiplicity = 1

 SCF Done:  E(RB3LYP) =  -731.749132297     A.U. after    1 cycles

  Exact polarizability: 167.568  -1.049 130.255  -1.001   1.592 130.072
 Approx polarizability: 203.768   1.736 183.239  -6.604   1.271 211.598

                      1                      2                      3
                      A                      A                      A
 Frequencies --     28.7693                35.9445                39.5181
 Red. masses --      3.5438                 1.8171                 2.9539
 Frc consts  --      0.0017                 0.0014                 0.0027
 IR Inten    --      1.1670                 0.0967                 0.1498

                      4                      5                      6
                      A                      A                      A
 Frequencies --     58.8098                71.6012                98.3301
 Red. masses --      2.7448                 4.0401                 2.3518
 Frc consts  --      0.0056                 0.0122                 0.0134
 IR Inten    --      0.7016                 3.6528                 3.1550

                      7                      8                      9
                      A                      A                      A
 Frequencies --    119.3430               137.1242               150.1134
 Red. masses --      2.7427                 1.3873                 3.0298
 Frc consts  --      0.0230                 0.0154                 0.0402
 IR Inten    --      0.2725                 1.6379                 2.7409

                     10                     11                     12
                      A                      A                      A
 Frequencies --    189.3914               222.3576               230.6487
 Red. masses --      4.0236                 3.0275                 3.0324
 Frc consts  --      0.0850                 0.0882                 0.0950
 IR Inten    --      3.0483                 2.3921                 2.2615

                     13                     14                     15
                      A                      A                      A
 Frequencies --    252.3148               265.4984               276.7080
 Red. masses --      1.3722                 1.4642                 1.3708
 Frc consts  --      0.0515                 0.0608                 0.0618
 IR Inten    --      1.5415                 1.3487                 3.8453

                     16                     17                     18
                      A                      A                      A
 Frequencies --    288.7402               318.9354               338.3178
 Red. masses --      4.3781                 3.7839                 2.9398
 Frc consts  --      0.2151                 0.2268                 0.1982
 IR Inten    --      4.9865                 3.8547                 1.0282

                     19                     20                     21
                      A                      A                      A
 Frequencies --    403.8258               407.1165               425.3826
 Red. masses --      2.1584                 2.1715                 3.0217
 Frc consts  --      0.2074                 0.2121                 0.3222
 IR Inten    --      3.8634                 1.1333                15.2233

                     22                     23                     24
                      A                      A                      A
 Frequencies --    447.4984               468.1246               484.9756
 Red. masses --      1.8802                 2.2805                 2.1662
 Frc consts  --      0.2218                 0.2944                 0.3002
 IR Inten    --      0.0608                14.5379                 7.1435

                     25                     26                     27
                      A                      A                      A
 Frequencies --    550.6709               563.0732               605.2524
 Red. masses --      3.3311                 1.9896                 1.6387
 Frc consts  --      0.5951                 0.3717                 0.3537
 IR Inten    --      6.5169                88.1276               104.6343

                     28                     29                     30
                      A                      A                      A
 Frequencies --    639.4077               658.2306               695.4842
 Red. masses --      2.4228                 2.9440                 2.8098
 Frc consts  --      0.5836                 0.7515                 0.8008
 IR Inten    --     10.7272                 0.2500                 7.6379

                     31                     32                     33
                      A                      A                      A
 Frequencies --    753.2078               775.0336               798.0946
 Red. masses --      1.8010                 3.3009                 3.2499
 Frc consts  --      0.6020                 1.1682                 1.2196
 IR Inten    --      6.0068                 6.4889                 6.8783

                     34                     35                     36
                      A                      A                      A
 Frequencies --    810.2837               838.5646               898.2696
 Red. masses --      1.7518                 2.2760                 2.7949
 Frc consts  --      0.6776                 0.9430                 1.3287
 IR Inten    --      2.2324                 7.7190                 0.7531

                     37                     38                     39
                      A                      A                      A
 Frequencies --    903.0193               931.4664               950.0418
 Red. masses --      2.5266                 2.5411                 1.9409
 Frc consts  --      1.2139                 1.2990                 1.0322
 IR Inten    --      1.3954                23.4487                10.8958

                     40                     41                     42
                      A                      A                      A
 Frequencies --    956.2831               977.4187              1008.0383
 Red. masses --      2.4880                 2.1957                 2.5992
 Frc consts  --      1.3405                 1.2359                 1.5561
 IR Inten    --      3.5597                 4.0386                11.0647

                     43                     44                     45
                      A                      A                      A
 Frequencies --   1037.0795              1049.4539              1057.8285
 Red. masses --      1.8164                 2.3121                 2.1909
 Frc consts  --      1.1510                 1.5003                 1.4444
 IR Inten    --      6.0775                13.1046                 4.4882

                     46                     47                     48
                      A                      A                      A
 Frequencies --   1073.8885              1079.9093              1082.5181
 Red. masses --      1.6914                 1.6079                 1.8807
 Frc consts  --      1.1493                 1.1048                 1.2985
 IR Inten    --     14.6852                22.3195                29.5126

                     49                     50                     51
                      A                      A                      A
 Frequencies --   1111.5936              1132.1825              1138.1180
 Red. masses --      1.8469                 1.3025                 2.0386
 Frc consts  --      1.3446                 0.9837                 1.5558
 IR Inten    --      6.3413                 9.2510                43.8859

                     52                     53                     54
                      A                      A                      A
 Frequencies --   1151.7143              1169.3799              1190.2970
 Red. masses --      1.2909                 1.9296                 1.5673
 Frc consts  --      1.0089                 1.5546                 1.3083
 IR Inten    --      0.2381                41.3258                18.6133

                     55                     56                     57
                      A                      A                      A
 Frequencies --   1193.1859              1224.0239              1235.2571
 Red. masses --      1.6155                 1.6370                 1.4411
 Frc consts  --      1.3551                 1.4450                 1.2956
 IR Inten    --      5.7009                28.5523                 1.2609

                     58                     59                     60
                      A                      A                      A
 Frequencies --   1243.0990              1245.8614              1272.5347
 Red. masses --      1.4031                 1.3641                 1.3073
 Frc consts  --      1.2775                 1.2474                 1.2473
 IR Inten    --     10.0529                 2.1731                 0.8792

                     61                     62                     63
                      A                      A                      A
 Frequencies --   1289.1875              1322.8319              1327.9373
 Red. masses --      1.8399                 1.8566                 1.4440
 Frc consts  --      1.8017                 1.9142                 1.5002
 IR Inten    --     19.9912                31.9446                10.9394

                     64                     65                     66
                      A                      A                      A
 Frequencies --   1335.9313              1345.7373              1355.9483
 Red. masses --      2.5350                 1.4010                 1.4788
 Frc consts  --      2.6657                 1.4949                 1.6019
 IR Inten    --     16.5888                 6.5074                 8.0875

                     67                     68                     69
                      A                      A                      A
 Frequencies --   1359.8433              1369.4759              1399.4052
 Red. masses --      1.3931                 1.5352                 1.3848
 Frc consts  --      1.5178                 1.6964                 1.5978
 IR Inten    --     11.3120                29.8192                12.1936

                     70                     71                     72
                      A                      A                      A
 Frequencies --   1402.5125              1416.3340              1449.1152
 Red. masses --      1.2508                 1.3328                 1.8783
 Frc consts  --      1.4497                 1.5753                 2.3239
 IR Inten    --     22.8178                 5.6914               110.8319

                     73                     74                     75
                      A                      A                      A
 Frequencies --   1468.5567              1474.9303              1487.8676
 Red. masses --      1.1581                 1.4020                 1.1413
 Frc consts  --      1.4715                 1.7970                 1.4886
 IR Inten    --      0.4534                42.6574                 0.6957

                     76                     77                     78
                      A                      A                      A
 Frequencies --   1496.3251              1498.9184              1502.1455
 Red. masses --      1.1688                 1.1058                 1.0887
 Frc consts  --      1.5419                 1.4638                 1.4474
 IR Inten    --     22.7498                 6.9985                 3.4879

                     79                     80                     81
                      A                      A                      A
 Frequencies --   1503.3460              1511.6975              1516.0352
 Red. masses --      1.0709                 1.1706                 1.1078
 Frc consts  --      1.4260                 1.5762                 1.5001
 IR Inten    --     12.8073                 8.3082                 6.8849

                     82                     83                     84
                      A                      A                      A
 Frequencies --   1516.7460              1518.3464              1521.9792
 Red. masses --      1.1039                 1.0995                 1.1691
 Frc consts  --      1.4963                 1.4934                 1.5956
 IR Inten    --     19.9930                13.3037                14.8277

                     85                     86                     87
                      A                      A                      A
 Frequencies --   1530.0976              1534.8433              1544.2379
 Red. masses --      1.0672                 1.0579                 1.1076
 Frc consts  --      1.4721                 1.4683                 1.5562
 IR Inten    --      1.7359                 4.9449                 6.7536

                     88                     89                     90
                      A                      A                      A
 Frequencies --   1549.7174              1552.3086              1706.9176
 Red. masses --      1.1068                 1.0843                 8.3419
 Frc consts  --      1.5661                 1.5394                14.3199
 IR Inten    --     31.9016                35.4877               187.7725

                     91                     92                     93
                      A                      A                      A
 Frequencies --   2915.1538              2984.0307              3034.2334
 Red. masses --      1.0636                 1.0570                 1.0680
 Frc consts  --      5.3252                 5.5454                 5.7930
 IR Inten    --     87.1450               106.7134                12.5611

                     94                     95                     96
                      A                      A                      A
 Frequencies --   3041.6025              3047.7894              3053.0761
 Red. masses --      1.0676                 1.0379                 1.0657
 Frc consts  --      5.8194                 5.6801                 5.8529
 IR Inten    --     40.7041                34.6244                21.5828

                     97                     98                     99
                      A                      A                      A
 Frequencies --   3065.2144              3067.7235              3070.7843
 Red. masses --      1.0682                 1.0666                 1.0617
 Frc consts  --      5.9135                 5.9138                 5.8989
 IR Inten    --     26.6383                60.1938                28.5287

                    100                    101                    102
                      A                      A                      A
 Frequencies --   3076.4343              3077.0138              3081.8617
 Red. masses --      1.0626                 1.0762                 1.0628
 Frc consts  --      5.9253                 6.0035                 5.9472
 IR Inten    --     65.7193                21.7123                65.2809

                    103                    104                    105
                      A                      A                      A
 Frequencies --   3101.6803              3103.6076              3110.5805
 Red. masses --      1.0999                 1.1054                 1.0984
 Frc consts  --      6.2347                 6.2735                 6.2615
 IR Inten    --     10.4063                21.0406                 2.5004

                    106                    107                    108
                      A                      A                      A
 Frequencies --   3113.2480              3115.5864              3116.6553
 Red. masses --      1.1021                 1.1031                 1.1005
 Frc consts  --      6.2938                 6.3087                 6.2983
 IR Inten    --     10.1276                28.6099                20.5033

                    109                    110                    111
                      A                      A                      A
 Frequencies --   3125.7723              3132.1858              3144.8076
 Red. masses --      1.1055                 1.1046                 1.0947
 Frc consts  --      6.3641                 6.3846                 6.3789
 IR Inten    --      3.4709                70.0069                 7.6577

                    112                    113                    114
                      A                      A                      A
 Frequencies --   3146.7119              3165.5004              3590.6739
 Red. masses --      1.0968                 1.0977                 1.0677
 Frc consts  --      6.3987                 6.4804                 8.1107
 IR Inten    --     36.9417                15.4114               253.0110

 - Thermochemistry -
 -------------------
 Temperature   298.150 Kelvin.  Pressure   1.00000 Atm.
 Atom     1 has atomic number  6 and mass  12.00000

 Molecular mass:   228.18378 amu.
 Principal axes and moments of inertia in atomic units:
                           1         2         3
     Eigenvalues --  1979.984845751.945716223.60273
           X            0.99998   0.00284   0.00620
           Y           -0.00276   0.99992  -0.01271
           Z           -0.00624   0.01269   0.99990
 This molecule is an asymmetric top.
 Rotational symmetry number  1.
 Warning -- assumption of classical behavior for rotation
           may cause significant error
 Rotational temperatures (Kelvin)      0.04374     0.01506     0.01392
 Rotational constants (GHZ):           0.91149     0.31376     0.28998
 Zero-point vibrational energy     951332.4 (Joules/Mol)
                                  227.37390 (Kcal/Mol)
 Warning -- explicit consideration of  27 degrees of freedom as
           vibrations may cause significant error
 Vibrational temperatures:     41.39    51.72    56.86    84.61   103.02
          (Kelvin)            141.48   171.71   197.29   215.98   272.49
                              319.92   331.85   363.02   381.99   398.12
                              415.43   458.88   486.76   581.02   585.75
                              612.03   643.85   673.53   697.77   792.29
                              810.14   870.82   919.97   947.05  1000.65
                             1083.70  1115.10  1148.28  1165.82  1206.51
                             1292.41  1299.24  1340.17  1366.90  1375.88
                             1406.29  1450.34  1492.13  1509.93  1521.98
                             1545.09  1553.75  1557.50  1599.34  1628.96
                             1637.50  1657.06  1682.48  1712.57  1716.73
                             1761.10  1777.26  1788.54  1792.52  1830.89
                             1854.85  1903.26  1910.61  1922.11  1936.22
                             1950.91  1956.51  1970.37  2013.43  2017.90
                             2037.79  2084.95  2112.93  2122.10  2140.71
                             2152.88  2156.61  2161.25  2162.98  2175.00
                             2181.24  2182.26  2184.56  2189.79  2201.47
                             2208.30  2221.81  2229.70  2233.43  2455.87
                             4194.26  4293.35  4365.59  4376.19  4385.09
                             4392.70  4410.16  4413.77  4418.17  4426.30
                             4427.14  4434.11  4462.63  4465.40  4475.43
                             4479.27  4482.63  4484.17  4497.29  4506.52
                             4524.68  4527.42  4554.45  5166.18

 Zero-point correction=                           0.362343 (Hartree/Particle)
 Thermal correction to Energy=                    0.380201
 Thermal correction to Enthalpy=                  0.381145
 Thermal correction to Gibbs Free Energy=         0.315577
 Sum of electronic and zero-point Energies=           -731.386789
 Sum of electronic and thermal Energies=              -731.368932
 Sum of electronic and thermal Enthalpies=            -731.367987
 Sum of electronic and thermal Free Energies=         -731.433556

                     E (Thermal)             CV                S
                      KCal/Mol        Cal/Mol-Kelvin    Cal/Mol-Kelvin
 Total                  238.580             66.944            138.000
 Electronic               0.000              0.000              0.000
 Translational            0.889              2.981             42.177
 Rotational               0.889              2.981             32.627
 Vibrational            236.802             60.982             63.196
 Vibration     1          0.593              1.984              5.913
 Vibration     2          0.594              1.982              5.471
 Vibration     3          0.594              1.981              5.283
 Vibration     4          0.596              1.974              4.497
 Vibration     5          0.598              1.968              4.109
 Vibration     6          0.604              1.950              3.487
 Vibration     7          0.609              1.933              3.111
 Vibration     8          0.614              1.916              2.844
 Vibration     9          0.618              1.903              2.671
 Vibration    10          0.633              1.854              2.234
 Vibration    11          0.648              1.807              1.940
 Vibration    12          0.652              1.794              1.874
 Vibration    13          0.664              1.759              1.714
 Vibration    14          0.671              1.736              1.625
 Vibration    15          0.678              1.717              1.554
 Vibration    16          0.685              1.695              1.481
 Vibration    17          0.705              1.637              1.316
 Vibration    18          0.719              1.599              1.220
 Vibration    19          0.769              1.462              0.949
 Vibration    20          0.772              1.455              0.937
 Vibration    21          0.787              1.415              0.874
 Vibration    22          0.807              1.366              0.803
 Vibration    23          0.825              1.321              0.743
 Vibration    24          0.841              1.283              0.697
 Vibration    25          0.906              1.138              0.543
 Vibration    26          0.919              1.111              0.518
 Vibration    27          0.964              1.021              0.441

 Optimization completed.
    -- Stationary point found.
 Normal termination of Gaussian 16 at Thu Dec 10 23:21:26 2020.

 ----------------------------------------------------------------------
 # B3LYP/6-311++G(d,p) empiricaldispersion=gd3bj scf=xqc pop=npa geom=c
 heck
 ----------------------------------------------------------------------

 ---------------------------------------
 CID_115759826_JID_6397_Energie_neutraal
 ---------------------------------------
 Structure from the checkpoint file:  "JID_6397.chk"
 Charge =  0 Multiplicity = 1

 SCF Done:  E(RB3LYP) =  -731.962402181     A.U. after   14 cycles
 Normal termination of Gaussian 16 at Thu Dec 10 23:28:16 2020.

 ----------------------------------------------------------------------
 # B3LYP/6-311++G(d,p) empiricaldispersion=gd3bj scf=xqc pop=npa geom=c
 heck
 ----------------------------------------------------------------------

 -------------------------------------
 CID_115759826_JID_6397_Energie_kation
 -------------------------------------
 Structure from the checkpoint file:  "JID_6397.chk"
 Charge =  1 Multiplicity = 2

 SCF Done:  E(UB3LYP) =  -731.678457811     A.U. after   23 cycles
 Normal termination of Gaussian 16 at Thu Dec 10 23:43:11 2020.
 Gaussian 16:  ES64L-G16RevA.03 25-Dec-2016

 ----------------------------------------------------------------------
 # B3LYP/6-311++G(d,p) empiricaldispersion=gd3bj scf=xqc pop=npa geom=c
 heck
 ----------------------------------------------------------------------

 ------------------------------------
 CID_115759826_JID_6397_Energie_anion
 ------------------------------------
 Structure from the checkpoint file:  "JID_6397.chk"
 Charge = -1 Multiplicity = 2

                         Standard orientation:
 ---------------------------------------------------------------------
 Center     Atomic      Atomic             Coordinates (Angstroms)
 Number     Number       Type             X           Y           Z
 ---------------------------------------------------------------------
      1          6           0        1.759851    1.764029   -0.599321
      2          7           0        3.117219    1.275419   -0.416468
      3          6           0        3.644913    1.598127    0.894063
      4          6           0        3.320977   -0.106369   -0.818392
      5          6           0        2.594484   -1.204130    0.004391
      6          6           0        1.119209   -1.305904   -0.343039
      7          8           0        0.780827   -1.390191   -1.532964
      8          7           0        0.197046   -1.339694    0.661070
      9          6           0        0.526429   -1.092631    2.061466
     10          6           0       -1.207335   -1.547733    0.290496
     11          6           0       -1.960711   -0.268629   -0.092728
     12          6           0       -2.177198    0.734480    1.051894
     13          6           0       -3.266718    1.677013    0.504583
     14          6           0       -4.127180    0.800265   -0.454044
     15          6           0       -3.408413   -0.567728   -0.534102
     16          8           0       -1.278192    0.434008   -1.131667
     17          1           0        1.030941    1.350639    0.119468
     18          1           0        1.401653    1.510708   -1.599895
     19          1           0        1.750144    2.854751   -0.490556
     20          1           0        3.072833    1.156932    1.736176
     21          1           0        4.681601    1.252419    0.974191
     22          1           0        3.635846    2.685203    1.033159
     23          1           0        3.007166   -0.214378   -1.861120
     24          1           0        4.397555   -0.309021   -0.770695
     25          1           0        3.030528   -2.170183   -0.279952
     26          1           0        2.780747   -1.072950    1.071422
     27          1           0       -0.398626   -1.100476    2.638505
     28          1           0        1.187875   -1.865526    2.468701
     29          1           0        0.996350   -0.113000    2.202045
     30          1           0       -1.218887   -2.237468   -0.558013
     31          1           0       -1.711202   -2.037925    1.129045
     32          1           0       -2.542392    0.201330    1.940227
     33          1           0       -1.251613    1.253103    1.318128
     34          1           0       -2.794762    2.489039   -0.055098
     35          1           0       -3.858990    2.130907    1.305463
     36          1           0       -4.178928    1.261656   -1.443717
     37          1           0       -5.155596    0.687991   -0.096211
     38          1           0       -3.429126   -1.009251   -1.535055
     39          1           0       -3.867642   -1.286363    0.158264
     40          1           0       -0.696260   -0.203483   -1.591242
 ---------------------------------------------------------------------

 SCF Done:  E(UB3LYP) =  -731.953306300     A.U. after   31 cycles

 The electronic state is 2-A.
 Alpha  occ. eigenvalues --  -19.00729 -18.99662 -14.25428 -14.20919 -10.18001
 Alpha  occ. eigenvalues --  -10.12816 -10.10959 -10.10563 -10.10161 -10.09132
 Alpha  occ. eigenvalues --  -10.08512 -10.08178 -10.07219 -10.06960 -10.06896
 Alpha  occ. eigenvalues --  -10.06508  -0.95080  -0.91576  -0.84352  -0.82919
 Alpha  occ. eigenvalues --   -0.73353  -0.68088  -0.65013  -0.61889  -0.61472
 Alpha  occ. eigenvalues --   -0.61044  -0.59123  -0.55950  -0.49010  -0.47809
 Alpha  occ. eigenvalues --   -0.47041  -0.44914  -0.41724  -0.41156  -0.39600
 Alpha  occ. eigenvalues --   -0.38824  -0.38081  -0.37377  -0.36266  -0.35624
 Alpha  occ. eigenvalues --   -0.34216  -0.33787  -0.32745  -0.32239  -0.31425
 Alpha  occ. eigenvalues --   -0.30157  -0.29716  -0.28908  -0.28352  -0.27157
 Alpha  occ. eigenvalues --   -0.26693  -0.26378  -0.26055  -0.25435  -0.25179
 Alpha  occ. eigenvalues --   -0.24575  -0.24422  -0.23387  -0.22683  -0.17382
 Alpha  occ. eigenvalues --   -0.16683  -0.15124  -0.11796   0.04022
 Alpha virt. eigenvalues --    0.06062   0.07137   0.07585   0.08361   0.08519
 Alpha virt. eigenvalues --    0.08654   0.09591   0.09803   0.10105   0.10428
 Alpha virt. eigenvalues --    0.11019   0.11427   0.11599   0.11837   0.12611

  Beta  occ. eigenvalues --  -19.00723 -18.99659 -14.25424 -14.20918 -10.18000
  Beta  occ. eigenvalues --  -10.12816 -10.10938 -10.10503 -10.10154 -10.09098
  Beta  occ. eigenvalues --  -10.08502 -10.08158 -10.07214 -10.06948 -10.06890
  Beta  occ. eigenvalues --  -10.06486  -0.95075  -0.91562  -0.84337  -0.82909
  Beta  occ. eigenvalues --   -0.73336  -0.68062  -0.64978  -0.61855  -0.61409
  Beta  occ. eigenvalues --   -0.61006  -0.59098  -0.55912  -0.48969  -0.47785
  Beta  occ. eigenvalues --   -0.47001  -0.44868  -0.41687  -0.41119  -0.39573
  Beta  occ. eigenvalues --   -0.38796  -0.38052  -0.37355  -0.36237  -0.35600
  Beta  occ. eigenvalues --   -0.34185  -0.33757  -0.32705  -0.32211  -0.31389
  Beta  occ. eigenvalues --   -0.30126  -0.29689  -0.28880  -0.28327  -0.27133
  Beta  occ. eigenvalues --   -0.26668  -0.26359  -0.26037  -0.25413  -0.25161
  Beta  occ. eigenvalues --   -0.24555  -0.24404  -0.23367  -0.22664  -0.17370
  Beta  occ. eigenvalues --   -0.16672  -0.15104  -0.11781
  Beta virt. eigenvalues --    0.06346   0.06742   0.07789   0.08080   0.08517
  Beta virt. eigenvalues --    0.08836   0.09113   0.09715   0.10209   0.10353
  Beta virt. eigenvalues --    0.10713   0.11194   0.11744   0.11892   0.12148

 Mulliken charges and spin densities:
               1          2
     1  C   -0.763288   0.207416
     2  N    0.023544   0.057824
     3  C    0.504560  -0.853892
     4  C    0.017354  -0.581017
     5  C    0.591206  -0.413553
     6  C   -1.134926   0.588484
     7  O   -0.295242   0.012277
     8  N    0.042513   0.183105
     9  C    1.013893  -1.368192
    10  C    0.590956  -1.198089
    11  C   -0.612797   1.197287
    12  C    0.273279  -0.550633
    13  C    0.195160  -0.778320
    14  C   -0.315452   0.023924
    15  C    0.006471  -0.589007
    16  O   -0.107846   0.013687
    17  H    0.715491  -0.564280
    18  H    0.126514   0.043891
    19  H    0.035873   0.115116
    20  H   -0.360622   0.475847
    21  H   -0.289405   0.429399
    22  H   -0.043455   0.176081
    23  H    0.222522  -0.022101
    24  H    0.001321   0.166196
    25  H   -0.224377   0.436909
    26  H    0.360944  -0.219189
    27  H   -0.338686   0.485693
    28  H   -1.192067   1.390527
    29  H    0.185146  -0.017741
    30  H    0.147718   0.063535
    31  H   -0.403661   0.620712
    32  H   -0.206578   0.381586
    33  H   -0.169052   0.332781
    34  H    0.140616   0.014674
    35  H   -0.066707   0.219719
    36  H    0.131555   0.013075
    37  H   -0.001871   0.135671
    38  H    0.155608  -0.011091
    39  H   -0.157795   0.300418
    40  H    0.201585   0.081273
 Sum of Mulliken charges =  -1.00000   1.00000

 Dipole moment (field-independent basis, Debye):
    X=             -1.7386    Y=              2.4250    Z=             -5.5835  Tot=              6.3308
 Quadrupole moment (field-independent basis, Debye-Ang):
   XX=           -168.9370   YY=           -142.9564   ZZ=           -154.4390
   XY=             -1.6945   XZ=             -0.2460   YZ=              8.2888

 Summary of Natural Population Analysis:

                                       Natural Population
                Natural  -----------------------------------------------
    Atom  No    Charge         Core      Valence    Rydberg      Total
 -----------------------------------------------------------------------
      C    1   -0.17793      0.99964     2.17026    0.00803     3.17793
      N    2   -0.27730      0.99973     2.76512    0.01244     3.77730
      C    3   -0.17740      0.99965     2.16904    0.00871     3.17740
      C    4   -0.07817      0.99961     2.06631    0.01225     3.07817
      C    5   -0.24561      0.99958     2.23725    0.00878     3.24561
      C    6    0.35467      0.99961     1.62301    0.02270     2.64533
      O    7   -0.35446      0.99987     3.34954    0.00505     4.35446
      N    8   -0.25275      0.99964     2.73842    0.01469     3.75275
      C    9   -0.17871      0.99962     2.16981    0.00928     3.17871
      C   10   -0.09346      0.99953     2.08142    0.01251     3.09346
      C   11    0.12637      0.99950     1.85733    0.01681     2.87363
      C   12   -0.19888      0.99958     2.18975    0.00954     3.19888
      C   13   -0.19207      0.99965     2.18464    0.00778     3.19207
      C   14   -0.19271      0.99965     2.18522    0.00784     3.19271
      C   15   -0.19907      0.99958     2.19062    0.00886     3.19907
      O   16   -0.39429      0.99988     3.38800    0.00641     4.39429
      H   17    0.08561      0.00000     0.41303    0.00136     0.41439
      H   18    0.10051      0.00000     0.39866    0.00083     0.39949
      H   19    0.09189      0.00000     0.40727    0.00084     0.40811
      H   20    0.08067      0.00000     0.41752    0.00180     0.41933
      H   21    0.09480      0.00000     0.40406    0.00114     0.40520
      H   22    0.09363      0.00000     0.40531    0.00105     0.40637
      H   23    0.10229      0.00000     0.39647    0.00124     0.39771
      H   24    0.09385      0.00000     0.40514    0.00101     0.40615
      H   25    0.11538      0.00000     0.38346    0.00116     0.38462
      H   26    0.10837      0.00000     0.38980    0.00184     0.39163
      H   27    0.10728      0.00000     0.39043    0.00230     0.39272
      H   28    0.10198      0.00000     0.39535    0.00267     0.39802
      H   29    0.09879      0.00000     0.39891    0.00230     0.40121
      H   30    0.10869      0.00000     0.39008    0.00122     0.39131
      H   31    0.10616      0.00000     0.39228    0.00156     0.39384
      H   32    0.09926      0.00000     0.39890    0.00185     0.40074
      H   33    0.10572      0.00000     0.39277    0.00151     0.39428
      H   34    0.09974      0.00000     0.39907    0.00119     0.40026
      H   35    0.09694      0.00000     0.40215    0.00091     0.40306
      H   36    0.09796      0.00000     0.40112    0.00092     0.40204
      H   37    0.09587      0.00000     0.40326    0.00087     0.40413
      H   38    0.10158      0.00000     0.39749    0.00094     0.39842
      H   39    0.09857      0.00000     0.40015    0.00127     0.40143
      H   40    0.24625      0.00000     0.25085    0.00289     0.25375
 =======================================================================
   * Total *    0.00000     15.99430    46.79931    0.20638    63.00000

 Normal termination of Gaussian 16 at Fri Dec 11 00:03:06 2020.
