 Gaussian 16, Revision A.03,

 -----------------------------------------------------------
 # opt freq B3LYP/6-31G(d) empiricaldispersion=gd3bj scf=xqc
 -----------------------------------------------------------

 -------------------------------
 CID_68631259_JID_10720_neutraal
 -------------------------------
 Symbolic Z-matrix:
 Charge =  0 Multiplicity = 1

 SCF Done:  E(RB3LYP) =  -1328.41860843     A.U. after   15 cycles
 SCF Done:  E(RB3LYP) =  -1328.42445128     A.U. after   13 cycles
 SCF Done:  E(RB3LYP) =  -1328.42341639     A.U. after   13 cycles
 SCF Done:  E(RB3LYP) =  -1328.42643590     A.U. after   13 cycles
 SCF Done:  E(RB3LYP) =  -1328.42752235     A.U. after   12 cycles
 SCF Done:  E(RB3LYP) =  -1328.42760922     A.U. after   11 cycles
 SCF Done:  E(RB3LYP) =  -1328.42764454     A.U. after   11 cycles
 SCF Done:  E(RB3LYP) =  -1328.42765563     A.U. after   10 cycles
 SCF Done:  E(RB3LYP) =  -1328.42765986     A.U. after   10 cycles
 SCF Done:  E(RB3LYP) =  -1328.42766293     A.U. after   10 cycles
 SCF Done:  E(RB3LYP) =  -1328.42767545     A.U. after   10 cycles
 SCF Done:  E(RB3LYP) =  -1328.42767531     A.U. after    9 cycles
 SCF Done:  E(RB3LYP) =  -1328.42767549     A.U. after    8 cycles
 SCF Done:  E(RB3LYP) =  -1328.42767550     A.U. after    7 cycles
 Optimization completed.
    -- Stationary point found.
 Normal termination of Gaussian 16 at Mon Dec 14 17:51:47 2020.

 --------------------------------------------------------------------
 #N Geom=AllCheck Guess=TCheck SCRF=Check GenChk RB3LYP/6-31G(d) Freq
 --------------------------------------------------------------------

 Structure from the checkpoint file:  "JID_10720.chk"
 -------------------------------
 CID_68631259_JID_10720_neutraal
 -------------------------------
 Charge =  0 Multiplicity = 1

 SCF Done:  E(RB3LYP) =  -1328.42767550     A.U. after    1 cycles

  Exact polarizability: 207.029   9.970 171.264  23.293 -26.142 120.187
 Approx polarizability: 305.068  15.848 292.653  48.459 -58.396 211.535

                      1                      2                      3
                      A                      A                      A
 Frequencies --     13.1331                31.9572                62.6498
 Red. masses --      6.4377                 6.7132                 5.3501
 Frc consts  --      0.0007                 0.0040                 0.0124
 IR Inten    --      0.1534                 0.9719                 0.8840

                      4                      5                      6
                      A                      A                      A
 Frequencies --     67.3359                75.2588               103.7365
 Red. masses --      5.5990                 5.1840                 3.5644
 Frc consts  --      0.0150                 0.0173                 0.0226
 IR Inten    --      1.6551                 0.3276                 1.2411

                      7                      8                      9
                      A                      A                      A
 Frequencies --    149.6185               174.2009               204.6164
 Red. masses --      6.8809                 4.2739                 5.1556
 Frc consts  --      0.0908                 0.0764                 0.1272
 IR Inten    --      0.9138                 0.2243                 2.0202

                     10                     11                     12
                      A                      A                      A
 Frequencies --    223.7898               227.7944               239.1359
 Red. masses --      1.5079                 3.6718                 4.8624
 Frc consts  --      0.0445                 0.1123                 0.1638
 IR Inten    --      0.5891                 2.6547                 1.3530

                     13                     14                     15
                      A                      A                      A
 Frequencies --    272.7648               296.0291               306.1010
 Red. masses --      5.6101                 8.3434                 3.6495
 Frc consts  --      0.2459                 0.4308                 0.2015
 IR Inten    --      4.1286                 1.0969                 4.5288

                     16                     17                     18
                      A                      A                      A
 Frequencies --    344.7238               369.7884               380.1697
 Red. masses --      7.0222                 5.9794                 5.2803
 Frc consts  --      0.4917                 0.4817                 0.4496
 IR Inten    --      2.3282                 3.9143                 8.2407

                     19                     20                     21
                      A                      A                      A
 Frequencies --    387.7535               402.9541               418.2337
 Red. masses --      1.1058                 2.2617                 4.1100
 Frc consts  --      0.0980                 0.2164                 0.4236
 IR Inten    --    115.1033                 3.9729                12.4529

                     22                     23                     24
                      A                      A                      A
 Frequencies --    463.5686               466.1981               505.2100
 Red. masses --      4.1813                 4.6886                 4.6101
 Frc consts  --      0.5294                 0.6004                 0.6933
 IR Inten    --      2.7494                 8.3351                17.4996

                     25                     26                     27
                      A                      A                      A
 Frequencies --    521.3337               534.6647               566.8691
 Red. masses --      5.9098                 5.7056                 7.2716
 Frc consts  --      0.9464                 0.9610                 1.3767
 IR Inten    --     31.0878                 3.9601                56.2216

                     28                     29                     30
                      A                      A                      A
 Frequencies --    586.0944               623.6741               644.4415
 Red. masses --      5.6949                 6.9202                 4.0568
 Frc consts  --      1.1526                 1.5859                 0.9927
 IR Inten    --      3.2125                 8.7603                 6.9482

                     31                     32                     33
                      A                      A                      A
 Frequencies --    653.0092               660.7531               682.0347
 Red. masses --      4.1066                 1.2791                 5.0742
 Frc consts  --      1.0317                 0.3290                 1.3907
 IR Inten    --     10.4691                80.2801                10.8545

                     34                     35                     36
                      A                      A                      A
 Frequencies --    700.6758               726.3981               761.2371
 Red. masses --      4.8545                 5.1849                 7.4760
 Frc consts  --      1.4042                 1.6119                 2.5525
 IR Inten    --     27.6645               235.3622                 5.6183

                     37                     38                     39
                      A                      A                      A
 Frequencies --    775.9844               790.5974               845.8560
 Red. masses --      1.5335                 2.8142                 2.4231
 Frc consts  --      0.5440                 1.0364                 1.0214
 IR Inten    --     20.6520                 5.4158                18.7771

                     40                     41                     42
                      A                      A                      A
 Frequencies --    858.6680               887.2661               921.4222
 Red. masses --      1.4571                 2.2525                 3.0509
 Frc consts  --      0.6330                 1.0448                 1.5261
 IR Inten    --     21.4490                15.2465                91.6996

                     43                     44                     45
                      A                      A                      A
 Frequencies --    928.0810               962.2076               979.9214
 Red. masses --      1.2917                 1.3725                 1.9750
 Frc consts  --      0.6555                 0.7487                 1.1174
 IR Inten    --      2.2478                 2.3147                54.5404

                     46                     47                     48
                      A                      A                      A
 Frequencies --    990.7065              1000.9907              1042.1917
 Red. masses --      1.5222                 2.9980                 5.2642
 Frc consts  --      0.8802                 1.7699                 3.3688
 IR Inten    --      2.5546                47.0558                25.8496

                     49                     50                     51
                      A                      A                      A
 Frequencies --   1062.6852              1087.3959              1106.1029
 Red. masses --      7.9158                 2.5662                 5.6445
 Frc consts  --      5.2669                 1.7878                 4.0688
 IR Inten    --     72.9982                 5.7718               198.9614

                     52                     53                     54
                      A                      A                      A
 Frequencies --   1126.9680              1165.2865              1178.4834
 Red. masses --      2.1806                 1.3678                 1.5520
 Frc consts  --      1.6317                 1.0943                 1.2700
 IR Inten    --     32.7988                 6.8501                36.6384

                     55                     56                     57
                      A                      A                      A
 Frequencies --   1198.2119              1213.1222              1223.2173
 Red. masses --      1.4045                 2.0029                 2.1664
 Frc consts  --      1.1880                 1.7367                 1.9098
 IR Inten    --    186.1289                 7.5405                22.9004

                     58                     59                     60
                      A                      A                      A
 Frequencies --   1252.0259              1255.3825              1266.4982
 Red. masses --      6.9653                 1.6441                 2.8357
 Frc consts  --      6.4330                 1.5267                 2.6799
 IR Inten    --      4.5009                60.5693                67.0715

                     61                     62                     63
                      A                      A                      A
 Frequencies --   1273.5965              1287.0735              1322.4213
 Red. masses --      2.6015                 3.4388                 1.4994
 Frc consts  --      2.4862                 3.3564                 1.5449
 IR Inten    --      4.9672               118.0565                13.9236

                     64                     65                     66
                      A                      A                      A
 Frequencies --   1349.7601              1365.5197              1384.5683
 Red. masses --      5.2631                 1.2442                 2.6543
 Frc consts  --      5.6494                 1.3669                 2.9980
 IR Inten    --     75.4275                 0.4354                68.4282

                     67                     68                     69
                      A                      A                      A
 Frequencies --   1393.9044              1451.9690              1458.1704
 Red. masses --      1.2980                 2.0052                 1.8587
 Frc consts  --      1.4859                 2.4907                 2.3285
 IR Inten    --     10.0407                15.6321               114.8382

                     70                     71                     72
                      A                      A                      A
 Frequencies --   1469.5707              1497.7581              1518.4453
 Red. masses --      1.1518                 1.0885                 1.0789
 Frc consts  --      1.4655                 1.4387                 1.4657
 IR Inten    --      1.2674                12.8493                29.7682

                     73                     74                     75
                      A                      A                      A
 Frequencies --   1522.4989              1527.1695              1543.7037
 Red. masses --      2.2881                 3.1706                 1.0552
 Frc consts  --      3.1249                 4.3567                 1.4816
 IR Inten    --      2.4939               140.2392                13.7367

                     76                     77                     78
                      A                      A                      A
 Frequencies --   1558.8259              1599.3728              1633.0930
 Red. masses --      2.6393                 8.4867                 5.0282
 Frc consts  --      3.7786                12.7905                 7.9011
 IR Inten    --     22.2307                 1.8613                 1.5174

                     79                     80                     81
                      A                      A                      A
 Frequencies --   1639.4219              1688.5267              3041.7205
 Red. masses --      3.9168                 5.7425                 1.0424
 Frc consts  --      6.2024                 9.6464                 5.6823
 IR Inten    --    145.5354               245.6243                39.8534

                     82                     83                     84
                      A                      A                      A
 Frequencies --   3075.7070              3115.5217              3148.5802
 Red. masses --      1.0665                 1.0981                 1.0988
 Frc consts  --      5.9442                 6.2797                 6.4178
 IR Inten    --     17.7711                21.1528                 3.3183

                     85                     86                     87
                      A                      A                      A
 Frequencies --   3175.5110              3181.5607              3182.5848
 Red. masses --      1.0909                 1.0993                 1.0879
 Frc consts  --      6.4814                 6.5559                 6.4924
 IR Inten    --     24.1065                 1.5570                 3.4097

                     88                     89                     90
                      A                      A                      A
 Frequencies --   3188.3105              3200.5135              3222.8091
 Red. masses --      1.0897                 1.0972                 1.0929
 Frc consts  --      6.5262                 6.6216                 6.6880
 IR Inten    --     13.0552                31.6905                 1.1372

                     91                     92                     93
                      A                      A                      A
 Frequencies --   3239.0905              3455.2074              3751.1182
 Red. masses --      1.0915                 1.0660                 1.0660
 Frc consts  --      6.7472                 7.4979                 8.8374
 IR Inten    --      0.1183               376.4235                63.8998

 - Thermochemistry -
 -------------------
 Temperature   298.150 Kelvin.  Pressure   1.00000 Atm.
 Atom     1 has atomic number  6 and mass  12.00000

 Molecular mass:   295.06268 amu.
 Principal axes and moments of inertia in atomic units:
                           1         2         3
     Eigenvalues --  3432.343077606.769199133.00156
           X            0.99997   0.00644   0.00383
           Y           -0.00627   0.99913  -0.04132
           Z           -0.00409   0.04130   0.99914
 This molecule is an asymmetric top.
 Rotational symmetry number  1.
 Warning -- assumption of classical behavior for rotation
           may cause significant error
 Rotational temperatures (Kelvin)      0.02523     0.01139     0.00948
 Rotational constants (GHZ):           0.52580     0.23725     0.19761
 Zero-point vibrational energy     660522.8 (Joules/Mol)
                                  157.86873 (Kcal/Mol)
 Warning -- explicit consideration of  28 degrees of freedom as
           vibrations may cause significant error
 Vibrational temperatures:     18.90    45.98    90.14    96.88   108.28
          (Kelvin)            149.25   215.27   250.64   294.40   321.98
                              327.75   344.06   392.45   425.92   440.41
                              495.98   532.04   546.98   557.89   579.76
                              601.74   666.97   670.76   726.88   750.08
                              769.26   815.60   843.26   897.33   927.21
                              939.53   950.68   981.30  1008.12  1045.12
                             1095.25  1116.47  1137.49  1217.00  1235.43
                             1276.58  1325.72  1335.30  1384.40  1409.89
                             1425.41  1440.20  1499.48  1528.97  1564.52
                             1591.44  1621.46  1676.59  1695.57  1723.96
                             1745.41  1759.94  1801.39  1806.22  1822.21
                             1832.42  1851.81  1902.67  1942.00  1964.68
                             1992.08  2005.52  2089.06  2097.98  2114.38
                             2154.94  2184.70  2190.54  2197.26  2221.05
                             2242.80  2301.14  2349.66  2358.76  2429.41
                             4376.36  4425.26  4482.54  4530.10  4568.85
                             4577.56  4579.03  4587.27  4604.83  4636.90
                             4660.33  4971.27  5397.02

 Zero-point correction=                           0.251580 (Hartree/Particle)
 Thermal correction to Energy=                    0.269352
 Thermal correction to Enthalpy=                  0.270297
 Thermal correction to Gibbs Free Energy=         0.204345
 Sum of electronic and zero-point Energies=          -1328.176096
 Sum of electronic and thermal Energies=             -1328.158323
 Sum of electronic and thermal Enthalpies=           -1328.157379
 Sum of electronic and thermal Free Energies=        -1328.223330

                     E (Thermal)             CV                S
                      KCal/Mol        Cal/Mol-Kelvin    Cal/Mol-Kelvin
 Total                  169.021             68.562            138.807
 Electronic               0.000              0.000              0.000
 Translational            0.889              2.981             42.943
 Rotational               0.889              2.981             33.833
 Vibrational            167.244             62.600             62.031
 Vibration     1          0.593              1.987              7.470
 Vibration     2          0.594              1.983              5.704
 Vibration     3          0.597              1.972              4.372
 Vibration     4          0.598              1.970              4.230
 Vibration     5          0.599              1.966              4.011
 Vibration     6          0.605              1.946              3.383
 Vibration     7          0.618              1.903              2.677
 Vibration     8          0.627              1.874              2.390
 Vibration     9          0.640              1.833              2.091
 Vibration    10          0.649              1.805              1.928
 Vibration    11          0.651              1.799              1.896
 Vibration    12          0.657              1.781              1.809
 Vibration    13          0.676              1.724              1.579
 Vibration    14          0.690              1.681              1.439
 Vibration    15          0.696              1.662              1.383
 Vibration    16          0.723              1.586              1.190
 Vibration    17          0.742              1.534              1.081
 Vibration    18          0.750              1.512              1.038
 Vibration    19          0.756              1.496              1.009
 Vibration    20          0.768              1.464              0.952
 Vibration    21          0.781              1.431              0.898
 Vibration    22          0.821              1.331              0.756
 Vibration    23          0.824              1.325              0.748
 Vibration    24          0.860              1.238              0.645
 Vibration    25          0.876              1.203              0.607
 Vibration    26          0.890              1.173              0.577
 Vibration    27          0.923              1.103              0.510
 Vibration    28          0.943              1.061              0.474

 Optimization completed.
    -- Stationary point found.
 Normal termination of Gaussian 16 at Mon Dec 14 18:10:30 2020.

 ----------------------------------------------------------------------
 # B3LYP/6-311++G(d,p) empiricaldispersion=gd3bj scf=xqc pop=npa geom=c
 heck
 ----------------------------------------------------------------------

 ---------------------------------------
 CID_68631259_JID_10720_Energie_neutraal
 ---------------------------------------
 Structure from the checkpoint file:  "JID_10720.chk"
 Charge =  0 Multiplicity = 1

 SCF Done:  E(RB3LYP) =  -1328.72196726     A.U. after   17 cycles
 Normal termination of Gaussian 16 at Mon Dec 14 18:17:35 2020.

 ----------------------------------------------------------------------
 # B3LYP/6-311++G(d,p) empiricaldispersion=gd3bj scf=xqc pop=npa geom=c
 heck
 ----------------------------------------------------------------------

 -------------------------------------
 CID_68631259_JID_10720_Energie_kation
 -------------------------------------
 Structure from the checkpoint file:  "JID_10720.chk"
 Charge =  1 Multiplicity = 2

 SCF Done:  E(UB3LYP) =  -1328.40871259     A.U. after   33 cycles
 SCF Done:  E(UB3LYP) =  -1328.41324659     a.u. after    9 cycles
 Normal termination of Gaussian 16 at Mon Dec 14 20:55:20 2020.
 Gaussian 16:  ES64L-G16RevA.03 25-Dec-2016

 ----------------------------------------------------------------------
 # B3LYP/6-311++G(d,p) empiricaldispersion=gd3bj scf=xqc pop=npa geom=c
 heck
 ----------------------------------------------------------------------

 ------------------------------------
 CID_68631259_JID_10720_Energie_anion
 ------------------------------------
 Structure from the checkpoint file:  "JID_10720.chk"
 Charge = -1 Multiplicity = 2

                         Standard orientation:
 ---------------------------------------------------------------------
 Center     Atomic      Atomic             Coordinates (Angstroms)
 Number     Number       Type             X           Y           Z
 ---------------------------------------------------------------------
      1          6           0        1.790304    2.680921   -0.580531
      2          7           0        0.721173    1.677946   -0.683782
      3          6           0        1.045105    0.487480   -1.493346
      4          6           0        2.075941   -0.452485   -0.908840
      5          7           0        1.604473   -1.509364   -0.232601
      6          6           0        2.505029   -2.317748    0.327896
      7          6           0        3.877324   -2.081604    0.215444
      8          7           0        4.360359   -1.045082   -0.476588
      9          6           0        3.452943   -0.239588   -1.037554
     10         16           0       -0.082885    1.419610    0.794440
     11          8           0        0.731035    0.595158    1.724105
     12          8           0       -0.489650    2.753285    1.240804
     13          6           0       -1.467413    0.450662    0.296881
     14          6           0       -1.684796   -0.867281    0.774627
     15          6           0       -2.827032   -1.549310    0.337663
     16          6           0       -3.726170   -0.943794   -0.531833
     17          6           0       -3.514099    0.368738   -0.995451
     18          6           0       -2.391436    1.052589   -0.569592
     19          8           0       -4.810229   -1.672532   -0.909768
     20          8           0       -0.882028   -1.512936    1.628923
     21          1           0        2.075687    2.967817   -1.597072
     22          1           0        2.676078    2.309543   -0.048857
     23          1           0        1.400409    3.557017   -0.062480
     24          1           0        0.122813   -0.072986   -1.655954
     25          1           0        1.382827    0.877291   -2.459690
     26          1           0        2.122151   -3.173498    0.879268
     27          1           0        4.600811   -2.743942    0.685268
     28          1           0        3.835547    0.599313   -1.615992
     29          1           0       -3.004593   -2.557465    0.692496
     30          1           0       -4.226623    0.838219   -1.668447
     31          1           0       -2.207454    2.067212   -0.906263
     32          1           0       -5.363062   -1.137230   -1.500087
     33          1           0       -0.097699   -0.944855    1.812874
 ---------------------------------------------------------------------

 SCF Done:  E(UB3LYP) =  -1328.73504385     A.U. after   33 cycles
 SCF Done:  E(UB3LYP) =  -1328.73504385     a.u. after    1 cycles

 The electronic state is 2-A.
 Alpha  occ. eigenvalues --  -88.96519 -19.06954 -19.04496 -19.01766 -19.01680
 Alpha  occ. eigenvalues --  -14.24753 -14.17369 -14.16949 -10.15943 -10.15179
 Alpha  occ. eigenvalues --  -10.10872 -10.10698 -10.10292 -10.09727 -10.08299
 Alpha  occ. eigenvalues --  -10.08284 -10.08011 -10.07624 -10.07554 -10.07388
 Alpha  occ. eigenvalues --   -8.02663  -5.98936  -5.98892  -5.98784  -1.01938
 Alpha  occ. eigenvalues --   -0.98211  -0.96564  -0.90628  -0.84850  -0.83441
 Alpha  occ. eigenvalues --   -0.77037  -0.76797  -0.68264  -0.66561  -0.65993
 Alpha  occ. eigenvalues --   -0.61901  -0.60166  -0.55616  -0.53385  -0.52722
 Alpha  occ. eigenvalues --   -0.51842  -0.49081  -0.47200  -0.43868  -0.42573
 Alpha  occ. eigenvalues --   -0.41521  -0.39079  -0.38864  -0.38272  -0.37591
 Alpha  occ. eigenvalues --   -0.36473  -0.35370  -0.35316  -0.34210  -0.33621
 Alpha  occ. eigenvalues --   -0.32845  -0.31962  -0.31848  -0.30285  -0.30211
 Alpha  occ. eigenvalues --   -0.29652  -0.28362  -0.28240  -0.26379  -0.26261
 Alpha  occ. eigenvalues --   -0.24632  -0.23867  -0.22556  -0.22097  -0.20763
 Alpha  occ. eigenvalues --   -0.19735  -0.17181  -0.16068  -0.14914  -0.14458
 Alpha  occ. eigenvalues --   -0.13836  -0.11399   0.03260
 Alpha virt. eigenvalues --    0.04674   0.05899   0.07342   0.08456   0.08713
 Alpha virt. eigenvalues --    0.09000   0.09167   0.09972   0.10377   0.11041
 Alpha virt. eigenvalues --    0.11780   0.12021   0.12224   0.12809   0.13617

  Beta  occ. eigenvalues --  -88.96516 -19.06902 -19.04497 -19.01749 -19.01667
  Beta  occ. eigenvalues --  -14.24745 -14.16880 -14.16454 -10.15940 -10.15109
  Beta  occ. eigenvalues --  -10.10858 -10.10703 -10.10264 -10.09652 -10.08302
  Beta  occ. eigenvalues --  -10.08231 -10.08009 -10.07597 -10.07507 -10.07377
  Beta  occ. eigenvalues --   -8.02660  -5.98933  -5.98885  -5.98782  -1.01899
  Beta  occ. eigenvalues --   -0.98098  -0.96561  -0.90592  -0.84508  -0.83130
  Beta  occ. eigenvalues --   -0.76737  -0.76169  -0.68159  -0.66357  -0.65925
  Beta  occ. eigenvalues --   -0.61815  -0.60034  -0.55514  -0.53280  -0.52309
  Beta  occ. eigenvalues --   -0.51620  -0.48951  -0.47127  -0.43794  -0.42518
  Beta  occ. eigenvalues --   -0.41466  -0.38982  -0.38697  -0.38086  -0.37533
  Beta  occ. eigenvalues --   -0.36365  -0.35310  -0.35253  -0.34156  -0.33471
  Beta  occ. eigenvalues --   -0.32785  -0.31912  -0.31796  -0.30198  -0.30092
  Beta  occ. eigenvalues --   -0.29154  -0.28276  -0.27537  -0.26321  -0.26086
  Beta  occ. eigenvalues --   -0.24501  -0.23719  -0.22472  -0.21984  -0.20677
  Beta  occ. eigenvalues --   -0.17552  -0.16572  -0.15923  -0.14679  -0.13758
  Beta  occ. eigenvalues --   -0.13654  -0.10893
  Beta virt. eigenvalues --    0.05937   0.06380   0.07411   0.08623   0.08713
  Beta virt. eigenvalues --    0.08957   0.09025   0.09270   0.09967   0.10408
  Beta virt. eigenvalues --    0.11086   0.11741   0.11936   0.12180   0.12794

 Mulliken charges and spin densities:
               1          2
     1  C   -0.273083  -0.007202
     2  N    0.051533   0.065232
     3  C   -1.317713  -0.098687
     4  C    0.389506   0.067714
     5  N   -0.013147   0.216045
     6  C    0.145513   0.082660
     7  C   -0.303412   0.038220
     8  N   -0.085092   0.208741
     9  C   -0.384657   0.034220
    10  S    0.311849  -0.189710
    11  O   -0.096094   0.007465
    12  O   -0.049403  -0.016945
    13  C   -0.139957   0.128904
    14  C   -0.702881   0.226248
    15  C   -0.079931  -0.279083
    16  C    0.481694  -0.828360
    17  C   -0.454143   0.285857
    18  C    0.466193   0.005040
    19  O   -0.235484   0.016962
    20  O   -0.152511  -0.000560
    21  H    0.144404   0.009355
    22  H    0.185319   0.006301
    23  H    0.116293   0.039544
    24  H    0.222157   0.001001
    25  H    0.147213   0.022948
    26  H    0.144566   0.001917
    27  H    0.131237  -0.007185
    28  H    0.140844  -0.000089
    29  H    0.202259  -0.000276
    30  H   -0.452451   0.611862
    31  H    0.255769  -0.023603
    32  H   -0.102178   0.374979
    33  H    0.305789   0.000486
 Sum of Mulliken charges =  -1.00000   1.00000

 Dipole moment (field-independent basis, Debye):
    X=             -0.1244    Y=              2.2588    Z=             -1.1511  Tot=              2.5382
 Quadrupole moment (field-independent basis, Debye-Ang):
   XX=           -199.8486   YY=           -148.6963   ZZ=           -143.3442
   XY=              5.2696   XZ=             -5.3751   YZ=             -9.4011

 Summary of Natural Population Analysis:

                                       Natural Population
                Natural  -----------------------------------------------
    Atom  No    Charge         Core      Valence    Rydberg      Total
 -----------------------------------------------------------------------
      C    1   -0.18508      0.99964     2.17794    0.00749     3.18508
      N    2   -0.36165      0.99975     2.84927    0.01262     3.86165
      C    3   -0.10391      0.99957     2.09024    0.01410     3.10391
      C    4    0.07104      0.99953     1.91238    0.01706     2.92896
      N    5   -0.16454      0.99968     2.65058    0.01428     3.66454
      C    6    0.00750      0.99960     1.97982    0.01308     2.99250
      C    7    0.00707      0.99961     1.97953    0.01379     2.99293
      N    8   -0.16144      0.99971     2.64910    0.01263     3.66144
      C    9    0.00154      0.99954     1.98616    0.01276     2.99846
      S   10    1.11414      4.99911     1.78869    0.09805     6.88586
      O   11   -0.47293      0.99990     3.46649    0.00655     4.47293
      O   12   -0.46303      0.99990     3.45759    0.00554     4.46303
      C   13   -0.20402      0.99935     2.18937    0.01530     3.20402
      C   14    0.19119      0.99938     1.79447    0.01496     2.80881
      C   15   -0.15470      0.99948     2.14414    0.01108     3.15470
      C   16    0.18736      0.99941     1.79984    0.01339     2.81264
      C   17   -0.16279      0.99952     2.15292    0.01035     3.16279
      C   18   -0.05871      0.99953     2.04826    0.01092     3.05871
      O   19   -0.33470      0.99987     3.32809    0.00674     4.33470
      O   20   -0.33338      0.99986     3.32750    0.00602     4.33338
      H   21    0.09513      0.00000     0.40369    0.00117     0.40487
      H   22    0.09618      0.00000     0.40197    0.00185     0.40382
      H   23    0.10870      0.00000     0.39004    0.00127     0.39130
      H   24    0.11386      0.00000     0.38428    0.00186     0.38614
      H   25    0.09900      0.00000     0.40010    0.00090     0.40100
      H   26    0.08552      0.00000     0.41325    0.00123     0.41448
      H   27    0.08238      0.00000     0.41626    0.00136     0.41762
      H   28    0.08163      0.00000     0.41655    0.00182     0.41837
      H   29    0.11100      0.00000     0.38760    0.00139     0.38900
      H   30    0.10272      0.00000     0.39589    0.00139     0.39728
      H   31    0.11111      0.00000     0.38763    0.00126     0.38889
      H   32    0.23684      0.00000     0.25787    0.00529     0.26316
      H   33    0.25696      0.00000     0.23954    0.00350     0.24304
 =======================================================================
   * Total *   -0.00000     23.99195    52.66705    0.34100    77.00000

 Normal termination of Gaussian 16 at Mon Dec 14 21:13:04 2020.
