 Gaussian 16, Revision A.03,

 -----------------------------------------------------------
 # opt freq B3LYP/6-31G(d) empiricaldispersion=gd3bj scf=xqc
 -----------------------------------------------------------

 -------------------------------
 CID_115153077_JID_9249_neutraal
 -------------------------------
 Symbolic Z-matrix:
 Charge =  0 Multiplicity = 1

 SCF Done:  E(RB3LYP) =  -846.076777090     A.U. after   14 cycles
 SCF Done:  E(RB3LYP) =  -846.078784397     A.U. after   13 cycles
 SCF Done:  E(RB3LYP) =  -846.078713079     A.U. after   15 cycles
 SCF Done:  E(RB3LYP) =  -846.083251711     A.U. after   13 cycles
 SCF Done:  E(RB3LYP) =  -846.083110668     A.U. after   14 cycles
 SCF Done:  E(RB3LYP) =  -846.085724237     A.U. after   14 cycles
 SCF Done:  E(RB3LYP) =  -846.087472604     A.U. after   12 cycles
 SCF Done:  E(RB3LYP) =  -846.087396604     A.U. after   13 cycles
 SCF Done:  E(RB3LYP) =  -846.088073810     A.U. after   12 cycles
 SCF Done:  E(RB3LYP) =  -846.088024156     A.U. after   12 cycles
 SCF Done:  E(RB3LYP) =  -846.088931728     A.U. after   10 cycles
 SCF Done:  E(RB3LYP) =  -846.088930355     A.U. after    9 cycles
 SCF Done:  E(RB3LYP) =  -846.088933015     A.U. after    9 cycles
 SCF Done:  E(RB3LYP) =  -846.088932757     A.U. after    7 cycles
 SCF Done:  E(RB3LYP) =  -846.088933101     A.U. after    7 cycles
 Optimization completed.
    -- Stationary point found.
 Normal termination of Gaussian 16 at Mon Dec 14 17:26:29 2020.

 --------------------------------------------------------------------
 #N Geom=AllCheck Guess=TCheck SCRF=Check GenChk RB3LYP/6-31G(d) Freq
 --------------------------------------------------------------------

 Structure from the checkpoint file:  "JID_9249.chk"
 -------------------------------
 CID_115153077_JID_9249_neutraal
 -------------------------------
 Charge =  0 Multiplicity = 1

 SCF Done:  E(RB3LYP) =  -846.088933101     A.U. after    1 cycles

  Exact polarizability: 196.197  22.633 159.816  -5.134  10.687 154.525
 Approx polarizability: 250.145  43.638 242.789 -12.197  26.281 269.326

                      1                      2                      3
                      A                      A                      A
 Frequencies --     22.5105                35.7535                47.5388
 Red. masses --      3.1976                 4.4601                 3.6291
 Frc consts  --      0.0010                 0.0034                 0.0048
 IR Inten    --      0.1920                 0.3350                 0.3923

                      4                      5                      6
                      A                      A                      A
 Frequencies --     56.8904                76.7025                80.6705
 Red. masses --      3.6610                 2.2255                 3.8028
 Frc consts  --      0.0070                 0.0077                 0.0146
 IR Inten    --      0.3809                 0.6672                 2.8565

                      7                      8                      9
                      A                      A                      A
 Frequencies --     90.0070               113.3237               132.3401
 Red. masses --      3.0220                 3.9218                 3.9759
 Frc consts  --      0.0144                 0.0297                 0.0410
 IR Inten    --      2.6591                 4.8148                 2.0803

                     10                     11                     12
                      A                      A                      A
 Frequencies --    144.5868               159.9521               178.5369
 Red. masses --      2.3644                 2.2377                 3.2258
 Frc consts  --      0.0291                 0.0337                 0.0606
 IR Inten    --      4.5154                 7.3983                 1.2666

                     13                     14                     15
                      A                      A                      A
 Frequencies --    238.6907               247.0450               254.0198
 Red. masses --      3.1040                 2.2963                 1.1216
 Frc consts  --      0.1042                 0.0826                 0.0426
 IR Inten    --      1.5006                 5.9345                 1.1043

                     16                     17                     18
                      A                      A                      A
 Frequencies --    283.1653               291.6376               319.5908
 Red. masses --      1.0863                 2.6775                 1.2308
 Frc consts  --      0.0513                 0.1342                 0.0741
 IR Inten    --      0.6617                 2.7427                52.4156

                     19                     20                     21
                      A                      A                      A
 Frequencies --    327.2686               340.9561               358.1474
 Red. masses --      3.0907                 3.3770                 2.5011
 Frc consts  --      0.1950                 0.2313                 0.1890
 IR Inten    --      6.4425                 1.9737                 0.8690

                     22                     23                     24
                      A                      A                      A
 Frequencies --    380.8468               393.1895               417.6337
 Red. masses --      2.4941                 2.5260                 4.0741
 Frc consts  --      0.2131                 0.2301                 0.4187
 IR Inten    --      1.2199                 4.5597                 5.7089

                     25                     26                     27
                      A                      A                      A
 Frequencies --    431.9059               451.1800               468.5181
 Red. masses --      3.0666                 3.0739                 3.3612
 Frc consts  --      0.3370                 0.3687                 0.4347
 IR Inten    --      1.5744                 1.2171                14.2508

                     28                     29                     30
                      A                      A                      A
 Frequencies --    476.3100               506.6791               572.5541
 Red. masses --      2.7981                 2.6635                 2.8336
 Frc consts  --      0.3740                 0.4029                 0.5473
 IR Inten    --      2.7216                14.8759                12.0289

                     31                     32                     33
                      A                      A                      A
 Frequencies --    582.6099               600.3790               658.8914
 Red. masses --      4.3016                 2.7405                 6.9188
 Frc consts  --      0.8603                 0.5820                 1.7697
 IR Inten    --      5.6750                 7.6090                 0.7488

                     34                     35                     36
                      A                      A                      A
 Frequencies --    700.1963               720.4485               744.5800
 Red. masses --      3.9086                 2.9616                 3.1025
 Frc consts  --      1.1290                 0.9057                 1.0134
 IR Inten    --      1.1212                10.2590                 8.4368

                     37                     38                     39
                      A                      A                      A
 Frequencies --    762.8648               799.2299               843.6450
 Red. masses --      3.1908                 3.0186                 1.9445
 Frc consts  --      1.0941                 1.1361                 0.8154
 IR Inten    --      0.6977                 1.4535                19.0308

                     40                     41                     42
                      A                      A                      A
 Frequencies --    846.7062               863.6675               874.2981
 Red. masses --      1.2805                 3.3061                 2.0719
 Frc consts  --      0.5409                 1.4530                 0.9331
 IR Inten    --      7.6472                 7.3084                13.4926

                     43                     44                     45
                      A                      A                      A
 Frequencies --    897.6220               926.7950               933.8747
 Red. masses --      2.3070                 1.4720                 1.6769
 Frc consts  --      1.0952                 0.7449                 0.8617
 IR Inten    --     19.2695                23.9584                27.1971

                     46                     47                     48
                      A                      A                      A
 Frequencies --    937.1938               950.6029               953.6024
 Red. masses --      1.3611                 1.2582                 1.7097
 Frc consts  --      0.7044                 0.6699                 0.9160
 IR Inten    --      0.1342                 0.4115                28.6949

                     49                     50                     51
                      A                      A                      A
 Frequencies --    965.7579               968.1175               976.5869
 Red. masses --      1.5690                 2.1542                 1.8896
 Frc consts  --      0.8622                 1.1896                 1.0618
 IR Inten    --     17.4689                 1.4677                28.2114

                     52                     53                     54
                      A                      A                      A
 Frequencies --   1019.3941              1041.8105              1062.6062
 Red. masses --      2.0746                 2.6462                 2.1840
 Frc consts  --      1.2702                 1.6922                 1.4529
 IR Inten    --     13.6750                 4.8369                 7.7091

                     55                     56                     57
                      A                      A                      A
 Frequencies --   1079.5948              1118.3810              1136.5806
 Red. masses --      1.9973                 1.8005                 1.4407
 Frc consts  --      1.3715                 1.3269                 1.0966
 IR Inten    --      7.4897                22.7655                 8.0600

                     58                     59                     60
                      A                      A                      A
 Frequencies --   1156.5075              1159.1725              1162.8159
 Red. masses --      1.7503                 1.9723                 1.2824
 Frc consts  --      1.3793                 1.5614                 1.0217
 IR Inten    --     26.5604                13.3754                 6.5108

                     61                     62                     63
                      A                      A                      A
 Frequencies --   1168.9248              1183.8153              1197.7766
 Red. masses --      1.9075                 1.2479                 1.4321
 Frc consts  --      1.5357                 1.0304                 1.2106
 IR Inten    --     99.8110                 1.1459                37.8348

                     64                     65                     66
                      A                      A                      A
 Frequencies --   1207.6504              1214.4740              1235.4803
 Red. masses --      1.3719                 1.8537                 2.2301
 Frc consts  --      1.1789                 1.6109                 2.0056
 IR Inten    --     66.7755                 7.8961                 0.2919

                     67                     68                     69
                      A                      A                      A
 Frequencies --   1252.1722              1259.3187              1272.1573
 Red. masses --      1.3922                 3.1242                 1.3729
 Frc consts  --      1.2861                 2.9191                 1.3091
 IR Inten    --     13.4394               196.7560                 9.6653

                     70                     71                     72
                      A                      A                      A
 Frequencies --   1309.4689              1335.0417              1346.5292
 Red. masses --      3.0928                 2.0494                 1.9352
 Frc consts  --      3.1246                 2.1522                 2.0673
 IR Inten    --     46.9941                 2.4714                11.1208

                     73                     74                     75
                      A                      A                      A
 Frequencies --   1357.2167              1369.9389              1381.2096
 Red. masses --      1.3770                 1.3500                 1.3226
 Frc consts  --      1.4945                 1.4927                 1.4866
 IR Inten    --     13.9329                 3.6409                 2.5590

                     76                     77                     78
                      A                      A                      A
 Frequencies --   1397.4185              1409.5838              1412.9906
 Red. masses --      1.5972                 1.3296                 1.2566
 Frc consts  --      1.8376                 1.5566                 1.4782
 IR Inten    --     12.9312                12.6915                 2.2234

                     79                     80                     81
                      A                      A                      A
 Frequencies --   1428.8087              1431.7280              1442.8417
 Red. masses --      1.3297                 1.4337                 1.2474
 Frc consts  --      1.5994                 1.7315                 1.5300
 IR Inten    --     15.5702                12.1469                19.7652

                     82                     83                     84
                      A                      A                      A
 Frequencies --   1450.0140              1464.1990              1503.8802
 Red. masses --      1.8653                 2.4814                 1.2835
 Frc consts  --      2.3107                 3.1343                 1.7102
 IR Inten    --     63.3407                 2.4679                20.6743

                     85                     86                     87
                      A                      A                      A
 Frequencies --   1510.4002              1513.6443              1518.0107
 Red. masses --      1.0946                 1.0481                 1.1230
 Frc consts  --      1.4713                 1.4149                 1.5246
 IR Inten    --     13.5094                 0.7428                 2.9278

                     88                     89                     90
                      A                      A                      A
 Frequencies --   1519.7238              1522.7218              1525.6636
 Red. masses --      1.0516                 1.1078                 1.0524
 Frc consts  --      1.4310                 1.5133                 1.4433
 IR Inten    --      1.7471                16.0940                 8.3268

                     91                     92                     93
                      A                      A                      A
 Frequencies --   1538.1508              1538.7758              1540.4373
 Red. masses --      1.0739                 1.1264                 1.0610
 Frc consts  --      1.4970                 1.5715                 1.4833
 IR Inten    --      1.1725                26.4470                 2.8328

                     94                     95                     96
                      A                      A                      A
 Frequencies --   1561.5244              1562.6975              1629.6776
 Red. masses --      1.3349                 1.6742                 6.3293
 Frc consts  --      1.9178                 2.4088                 9.9040
 IR Inten    --     59.9346                56.6085                 2.8674

                     97                     98                     99
                      A                      A                      A
 Frequencies --   1669.0835              1701.0155              1739.9483
 Red. masses --      5.7242                 1.0934                 8.7360
 Frc consts  --      9.3955                 1.8640                15.5824
 IR Inten    --     16.5668                33.0122               205.7540

                    100                    101                    102
                      A                      A                      A
 Frequencies --   2995.3331              3032.9425              3033.4589
 Red. masses --      1.0702                 1.0642                 1.0477
 Frc consts  --      5.6571                 5.7679                 5.6802
 IR Inten    --     44.7563                12.4660                51.7251

                    103                    104                    105
                      A                      A                      A
 Frequencies --   3047.1639              3054.5607              3059.5728
 Red. masses --      1.0726                 1.0349                 1.0354
 Frc consts  --      5.8680                 5.6892                 5.7107
 IR Inten    --    100.6400                14.8858                 8.4803

                    106                    107                    108
                      A                      A                      A
 Frequencies --   3072.3788              3078.5391              3078.7985
 Red. masses --      1.0987                 1.0861                 1.0869
 Frc consts  --      6.1108                 6.0644                 6.0700
 IR Inten    --     22.2972                14.8152                36.4211

                    109                    110                    111
                      A                      A                      A
 Frequencies --   3093.5608              3121.6061              3122.6251
 Red. masses --      1.0665                 1.0885                 1.1020
 Frc consts  --      6.0132                 6.2491                 6.3308
 IR Inten    --     40.3756                17.6274                 1.0139

                    112                    113                    114
                      A                      A                      A
 Frequencies --   3129.4360              3134.0296              3138.1456
 Red. masses --      1.1018                 1.1036                 1.1024
 Frc consts  --      6.3574                 6.3868                 6.3966
 IR Inten    --     66.4268                16.7983                43.9521

                    115                    116                    117
                      A                      A                      A
 Frequencies --   3139.9947              3158.1214              3166.1428
 Red. masses --      1.1056                 1.1047                 1.0916
 Frc consts  --      6.4224                 6.4914                 6.4475
 IR Inten    --     20.9537                 3.6627                 4.3974

                    118                    119                    120
                      A                      A                      A
 Frequencies --   3180.1122              3214.3792              3217.5514
 Red. masses --      1.0889                 1.0883                 1.0928
 Frc consts  --      6.4879                 6.6248                 6.6659
 IR Inten    --     16.0758                 5.1505                10.3296

                    121                    122                    123
                      A                      A                      A
 Frequencies --   3229.1000              3483.0493              3561.6874
 Red. masses --      1.0941                 1.0510                 1.0906
 Frc consts  --      6.7216                 7.5125                 8.1515
 IR Inten    --      2.2401                 5.6175                13.3572

 - Thermochemistry -
 -------------------
 Temperature   298.150 Kelvin.  Pressure   1.00000 Atm.
 Atom     1 has atomic number  6 and mass  12.00000

 Molecular mass:   264.18378 amu.
 Principal axes and moments of inertia in atomic units:
                           1         2         3
     Eigenvalues --  2693.862198042.191438777.10402
           X            0.99993  -0.00028   0.01220
           Y            0.00017   0.99996   0.00896
           Z           -0.01220  -0.00896   0.99989
 This molecule is an asymmetric top.
 Rotational symmetry number  1.
 Warning -- assumption of classical behavior for rotation
           may cause significant error
 Rotational temperatures (Kelvin)      0.03215     0.01077     0.00987
 Rotational constants (GHZ):           0.66995     0.22441     0.20562
 Zero-point vibrational energy     995945.5 (Joules/Mol)
                                  238.03669 (Kcal/Mol)
 Warning -- explicit consideration of  32 degrees of freedom as
           vibrations may cause significant error
 Vibrational temperatures:     32.39    51.44    68.40    81.85   110.36
          (Kelvin)            116.07   129.50   163.05   190.41   208.03
                              230.14   256.87   343.42   355.44   365.48
                              407.41   419.60   459.82   470.87   490.56
                              515.29   547.95   565.71   600.88   621.42
                              649.15   674.09   685.30   729.00   823.78
                              838.25   863.81   948.00  1007.43  1036.56
                             1071.28  1097.59  1149.91  1213.82  1218.22
                             1242.62  1257.92  1291.48  1333.45  1343.64
                             1348.41  1367.71  1372.02  1389.51  1392.91
                             1405.09  1466.68  1498.93  1528.85  1553.30
                             1609.10  1635.29  1663.96  1667.79  1673.03
                             1681.82  1703.25  1723.33  1737.54  1747.36
                             1777.58  1801.60  1811.88  1830.35  1884.03
                             1920.83  1937.36  1952.73  1971.04  1987.25
                             2010.57  2028.08  2032.98  2055.74  2059.94
                             2075.93  2086.25  2106.66  2163.75  2173.13
                             2177.80  2184.08  2186.54  2190.86  2195.09
                             2213.06  2213.96  2216.35  2246.69  2248.37
                             2344.74  2401.44  2447.38  2503.40  4309.62
                             4363.73  4364.47  4384.19  4394.83  4402.04
                             4420.47  4429.33  4429.70  4450.94  4491.29
                             4492.76  4502.56  4509.17  4515.09  4517.75
                             4543.83  4555.37  4575.47  4624.77  4629.34
                             4645.95  5011.33  5124.47

 Zero-point correction=                           0.379336 (Hartree/Particle)
 Thermal correction to Energy=                    0.399511
 Thermal correction to Enthalpy=                  0.400455
 Thermal correction to Gibbs Free Energy=         0.329754
 Sum of electronic and zero-point Energies=           -845.709597
 Sum of electronic and thermal Energies=              -845.689422
 Sum of electronic and thermal Enthalpies=            -845.688478
 Sum of electronic and thermal Free Energies=         -845.759179

                     E (Thermal)             CV                S
                      KCal/Mol        Cal/Mol-Kelvin    Cal/Mol-Kelvin
 Total                  250.697             76.235            148.802
 Electronic               0.000              0.000              0.000
 Translational            0.889              2.981             42.614
 Rotational               0.889              2.981             33.608
 Vibrational            248.919             70.274             72.581
 Vibration     1          0.593              1.985              6.399
 Vibration     2          0.594              1.982              5.481
 Vibration     3          0.595              1.979              4.917
 Vibration     4          0.596              1.975              4.562
 Vibration     5          0.599              1.965              3.974
 Vibration     6          0.600              1.962              3.874
 Vibration     7          0.602              1.956              3.660
 Vibration     8          0.607              1.938              3.211
 Vibration     9          0.612              1.921              2.912
 Vibration    10          0.616              1.909              2.742
 Vibration    11          0.622              1.891              2.550
 Vibration    12          0.629              1.869              2.344
 Vibration    13          0.657              1.781              1.813
 Vibration    14          0.661              1.768              1.752
 Vibration    15          0.665              1.756              1.703
 Vibration    16          0.682              1.705              1.514
 Vibration    17          0.687              1.689              1.464
 Vibration    18          0.706              1.636              1.312
 Vibration    19          0.711              1.621              1.274
 Vibration    20          0.720              1.594              1.208
 Vibration    21          0.733              1.559              1.130
 Vibration    22          0.751              1.511              1.036
 Vibration    23          0.760              1.485              0.988
 Vibration    24          0.781              1.432              0.900
 Vibration    25          0.793              1.401              0.852
 Vibration    26          0.810              1.358              0.792
 Vibration    27          0.826              1.320              0.742
 Vibration    28          0.833              1.303              0.720
 Vibration    29          0.862              1.235              0.642
 Vibration    30          0.929              1.091              0.499
 Vibration    31          0.939              1.069              0.481
 Vibration    32          0.959              1.031              0.449

                           ! Non-Optimized Parameters !
 Normal termination of Gaussian 16 at Mon Dec 14 17:53:38 2020.

 ----------------------------------------------------------------------
 # B3LYP/6-311++G(d,p) empiricaldispersion=gd3bj scf=xqc pop=npa geom=c
 heck
 ----------------------------------------------------------------------

 ---------------------------------------
 CID_115153077_JID_9249_Energie_neutraal
 ---------------------------------------
 Structure from the checkpoint file:  "JID_9249.chk"
 Charge =  0 Multiplicity = 1

 SCF Done:  E(RB3LYP) =  -846.329693746     A.U. after   15 cycles
 Normal termination of Gaussian 16 at Mon Dec 14 18:06:28 2020.

 ----------------------------------------------------------------------
 # B3LYP/6-311++G(d,p) empiricaldispersion=gd3bj scf=xqc pop=npa geom=c
 heck
 ----------------------------------------------------------------------

 -------------------------------------
 CID_115153077_JID_9249_Energie_kation
 -------------------------------------
 Structure from the checkpoint file:  "JID_9249.chk"
 Charge =  1 Multiplicity = 2

 SCF Done:  E(UB3LYP) =  -846.035774685     A.U. after   30 cycles
 Normal termination of Gaussian 16 at Mon Dec 14 18:43:16 2020.
 Gaussian 16:  ES64L-G16RevA.03 25-Dec-2016

 ----------------------------------------------------------------------
 # B3LYP/6-311++G(d,p) empiricaldispersion=gd3bj scf=xqc pop=npa geom=c
 heck
 ----------------------------------------------------------------------

 ------------------------------------
 CID_115153077_JID_9249_Energie_anion
 ------------------------------------
 Structure from the checkpoint file:  "JID_9249.chk"
 Charge = -1 Multiplicity = 2

                         Standard orientation:
 ---------------------------------------------------------------------
 Center     Atomic      Atomic             Coordinates (Angstroms)
 Number     Number       Type             X           Y           Z
 ---------------------------------------------------------------------
      1          6           0        4.399312    0.353443    1.539996
      2          6           0        4.302675    0.613309    0.038697
      3          6           0        4.803935   -0.567413   -0.789231
      4          8           0        2.970159    1.025066   -0.357632
      5          6           0        1.940555    0.124078   -0.190655
      6          6           0        1.565225   -0.713590   -1.243467
      7          6           0        0.461143   -1.555036   -1.102533
      8          6           0       -0.286364   -1.586940    0.080413
      9          6           0        0.101353   -0.738644    1.128142
     10          6           0        1.196267    0.112067    0.994114
     11          6           0       -1.496665   -2.488548    0.193195
     12          6           0       -2.777240   -1.768033    0.666222
     13          7           0       -3.007072   -0.497814   -0.013014
     14          6           0       -3.354923   -0.535311   -1.432268
     15          6           0       -2.888318    0.659610    0.714099
     16          8           0       -2.603810    0.656942    1.913154
     17          6           0       -3.048709    1.988284   -0.013411
     18          6           0       -1.670630    2.570008   -0.374013
     19          7           0       -1.003271    1.748650   -1.390183
     20          1           0        3.814407   -0.525819    1.828867
     21          1           0        4.033026    1.215632    2.105843
     22          1           0        5.442873    0.173775    1.821248
     23          1           0        4.898011    1.498459   -0.207452
     24          1           0        4.227029   -1.473345   -0.576384
     25          1           0        4.726783   -0.349937   -1.859156
     26          1           0        5.854263   -0.770689   -0.553029
     27          1           0        2.124254   -0.678501   -2.172531
     28          1           0        0.166622   -2.188040   -1.936123
     29          1           0       -0.489668   -0.695784    2.036226
     30          1           0        1.466730    0.792043    1.794722
     31          1           0       -1.671449   -2.962989   -0.779879
     32          1           0       -1.303954   -3.310619    0.896707
     33          1           0       -3.640604   -2.428511    0.511747
     34          1           0       -2.718347   -1.536963    1.729131
     35          1           0       -2.773293    0.195958   -1.996923
     36          1           0       -3.114184   -1.527771   -1.819665
     37          1           0       -4.427507   -0.362049   -1.593213
     38          1           0       -3.664332    1.920319   -0.913242
     39          1           0       -3.540545    2.660515    0.695398
     40          1           0       -1.817120    3.572807   -0.791025
     41          1           0       -1.093361    2.680426    0.558296
     42          1           0       -0.146928    2.210796   -1.691104
     43          1           0       -0.696798    0.874680   -0.966053
 ---------------------------------------------------------------------

 SCF Done:  E(UB3LYP) =  -846.317696272     A.U. after   33 cycles
 SCF Done:  E(UB3LYP) =  -846.317696272     a.u. after    1 cycles

 The electronic state is 2-A.
 Alpha  occ. eigenvalues --  -19.04388 -18.99381 -14.25359 -14.20422 -10.17935
 Alpha  occ. eigenvalues --  -10.14130 -10.13763 -10.11408 -10.11218 -10.10732
 Alpha  occ. eigenvalues --  -10.09295 -10.08997 -10.08700 -10.08695 -10.08513
 Alpha  occ. eigenvalues --  -10.08463 -10.08373 -10.07430 -10.07157  -0.95962
 Alpha  occ. eigenvalues --   -0.94618  -0.84601  -0.79851  -0.77131  -0.70809
 Alpha  occ. eigenvalues --   -0.68969  -0.66956  -0.66227  -0.63558  -0.61381
 Alpha  occ. eigenvalues --   -0.60595  -0.56812  -0.53517  -0.52717  -0.51374
 Alpha  occ. eigenvalues --   -0.48153  -0.45031  -0.42254  -0.41770  -0.40853
 Alpha  occ. eigenvalues --   -0.40077  -0.39608  -0.39395  -0.37786  -0.37380
 Alpha  occ. eigenvalues --   -0.36504  -0.35337  -0.34164  -0.33751  -0.33139
 Alpha  occ. eigenvalues --   -0.32843  -0.32093  -0.31662  -0.31172  -0.30352
 Alpha  occ. eigenvalues --   -0.30209  -0.29371  -0.29006  -0.28326  -0.28133
 Alpha  occ. eigenvalues --   -0.27164  -0.26569  -0.26363  -0.25657  -0.24830
 Alpha  occ. eigenvalues --   -0.23455  -0.18668  -0.17045  -0.16609  -0.16412
 Alpha  occ. eigenvalues --   -0.15101  -0.14897   0.03885
 Alpha virt. eigenvalues --    0.05179   0.06237   0.06764   0.07054   0.07209
 Alpha virt. eigenvalues --    0.07635   0.08033   0.08488   0.08706   0.09246
 Alpha virt. eigenvalues --    0.09413   0.10027   0.10379   0.10609   0.10950

  Beta  occ. eigenvalues --  -19.04386 -18.99377 -14.25359 -14.20415 -10.17934
  Beta  occ. eigenvalues --  -10.14118 -10.13754 -10.11405 -10.11202 -10.10697
  Beta  occ. eigenvalues --  -10.09291 -10.08992 -10.08689 -10.08674 -10.08511
  Beta  occ. eigenvalues --  -10.08455 -10.08361 -10.07408 -10.07126  -0.95953
  Beta  occ. eigenvalues --   -0.94612  -0.84591  -0.79842  -0.77113  -0.70779
  Beta  occ. eigenvalues --   -0.68941  -0.66940  -0.66207  -0.63525  -0.61337
  Beta  occ. eigenvalues --   -0.60544  -0.56783  -0.53494  -0.52690  -0.51341
  Beta  occ. eigenvalues --   -0.48123  -0.44999  -0.42238  -0.41744  -0.40834
  Beta  occ. eigenvalues --   -0.40044  -0.39563  -0.39373  -0.37760  -0.37368
  Beta  occ. eigenvalues --   -0.36476  -0.35311  -0.34132  -0.33725  -0.33114
  Beta  occ. eigenvalues --   -0.32816  -0.32070  -0.31630  -0.31157  -0.30320
  Beta  occ. eigenvalues --   -0.30177  -0.29337  -0.28988  -0.28314  -0.28108
  Beta  occ. eigenvalues --   -0.27137  -0.26544  -0.26336  -0.25630  -0.24808
  Beta  occ. eigenvalues --   -0.23427  -0.18658  -0.17025  -0.16598  -0.16397
  Beta  occ. eigenvalues --   -0.15082  -0.14862
  Beta virt. eigenvalues --    0.05873   0.06301   0.06412   0.06986   0.07299
  Beta virt. eigenvalues --    0.07685   0.08044   0.08473   0.08824   0.09026
  Beta virt. eigenvalues --    0.09397   0.09789   0.10142   0.10594   0.10893

 Mulliken charges and spin densities:
               1          2
     1  C    0.418019  -1.004655
     2  C   -0.864190   1.039926
     3  C    0.697289  -1.307021
     4  O   -0.048953   0.003091
     5  C   -0.156254  -0.918689
     6  C    0.235217   0.057555
     7  C    0.174904  -0.353307
     8  C   -0.395300   0.875856
     9  C   -0.709819   0.523628
    10  C    0.400741  -0.278201
    11  C    1.360030  -2.061156
    12  C   -0.380232   0.199985
    13  N    0.047762   0.062343
    14  C    0.569662  -0.945649
    15  C   -0.195992   0.007609
    16  O   -0.316841   0.005977
    17  C   -0.089049  -0.169509
    18  C   -0.353405   0.009879
    19  N   -0.372473   0.027189
    20  H    0.062669   0.094616
    21  H    0.112554   0.034242
    22  H   -0.387263   0.536391
    23  H   -0.311123   0.509795
    24  H    0.020130   0.132901
    25  H    0.040402   0.110697
    26  H   -0.499088   0.646294
    27  H   -0.044821   0.238210
    28  H   -0.456246   0.648441
    29  H    0.106756   0.112218
    30  H    0.123169   0.074530
    31  H   -0.228497   0.374712
    32  H   -0.023975   0.203881
    33  H   -0.490490   0.690489
    34  H    0.177422  -0.002358
    35  H    0.005590   0.191699
    36  H   -0.065728   0.222104
    37  H   -0.391326   0.565098
    38  H    0.129601   0.009604
    39  H    0.131321   0.060500
    40  H    0.089142   0.076673
    41  H    0.154936  -0.013041
    42  H    0.165480   0.107624
    43  H    0.558271  -0.400171
 Sum of Mulliken charges =  -1.00000   1.00000

 Dipole moment (field-independent basis, Debye):
    X=             -2.5929    Y=              4.0488    Z=              1.2608  Tot=              4.9705
 Quadrupole moment (field-independent basis, Debye-Ang):
   XX=           -232.4614   YY=           -159.5930   ZZ=           -159.8050
   XY=            -10.1417   XZ=             -3.6418   YZ=             -6.9350

 Summary of Natural Population Analysis:

                                       Natural Population
                Natural  -----------------------------------------------
    Atom  No    Charge         Core      Valence    Rydberg      Total
 -----------------------------------------------------------------------
      C    1   -0.30208      0.99964     2.29658    0.00585     3.30208
      C    2    0.06847      0.99954     1.91858    0.01341     2.93153
      C    3   -0.30195      0.99964     2.29652    0.00578     3.30195
      O    4   -0.30000      0.99986     3.29033    0.00980     4.30000
      C    5    0.14574      0.99935     1.83917    0.01574     2.85426
      C    6   -0.11976      0.99950     2.11051    0.00975     3.11976
      C    7   -0.09740      0.99951     2.08787    0.01003     3.09740
      C    8   -0.02648      0.99950     2.01596    0.01103     3.02648
      C    9   -0.09721      0.99951     2.08850    0.00920     3.09721
      C   10   -0.11912      0.99950     2.11055    0.00907     3.11912
      C   11   -0.20207      0.99959     2.19279    0.00969     3.20207
      C   12   -0.08449      0.99960     2.07379    0.01110     3.08449
      N   13   -0.25734      0.99964     2.74498    0.01272     3.75734
      C   14   -0.18466      0.99962     2.17700    0.00804     3.18466
      C   15    0.34516      0.99963     1.63070    0.02452     2.65484
      O   16   -0.33617      0.99988     3.33112    0.00517     4.33617
      C   17   -0.23229      0.99959     2.22500    0.00770     3.23229
      C   18   -0.08431      0.99964     2.07531    0.00936     3.08431
      N   19   -0.42829      0.99977     2.91969    0.00883     3.92829
      H   20    0.10226      0.00000     0.39668    0.00106     0.39774
      H   21    0.10126      0.00000     0.39777    0.00097     0.39874
      H   22    0.10524      0.00000     0.39366    0.00110     0.39476
      H   23    0.08911      0.00000     0.40939    0.00150     0.41089
      H   24    0.10235      0.00000     0.39644    0.00121     0.39765
      H   25    0.10258      0.00000     0.39626    0.00116     0.39742
      H   26    0.10548      0.00000     0.39308    0.00143     0.39452
      H   27    0.10706      0.00000     0.39139    0.00154     0.39294
      H   28    0.10353      0.00000     0.39518    0.00130     0.39647
      H   29    0.11235      0.00000     0.38619    0.00146     0.38765
      H   30    0.10579      0.00000     0.39282    0.00138     0.39421
      H   31    0.10151      0.00000     0.39655    0.00193     0.39849
      H   32    0.10743      0.00000     0.39151    0.00106     0.39257
      H   33    0.09791      0.00000     0.40075    0.00134     0.40209
      H   34    0.11364      0.00000     0.38498    0.00139     0.38636
      H   35    0.11314      0.00000     0.38496    0.00190     0.38686
      H   36    0.10267      0.00000     0.39577    0.00156     0.39733
      H   37    0.09333      0.00000     0.40539    0.00128     0.40667
      H   38    0.10405      0.00000     0.39463    0.00132     0.39595
      H   39    0.10996      0.00000     0.38901    0.00103     0.39004
      H   40    0.08813      0.00000     0.41088    0.00099     0.41187
      H   41    0.08560      0.00000     0.41295    0.00145     0.41440
      H   42    0.17804      0.00000     0.32036    0.00161     0.32196
      H   43    0.18182      0.00000     0.31489    0.00329     0.31818
 =======================================================================
   * Total *   -0.00000     18.99251    52.77646    0.23104    72.00000

 Normal termination of Gaussian 16 at Mon Dec 14 19:21:54 2020.
