 Gaussian 16, Revision A.03,

 -----------------------------------------------------------
 # opt freq B3LYP/6-31G(d) empiricaldispersion=gd3bj scf=xqc
 -----------------------------------------------------------

 -------------------------------
 CID_149699733_JID_5980_neutraal
 -------------------------------
 Symbolic Z-matrix:
 Charge =  0 Multiplicity = 1

 SCF Done:  E(RB3LYP) =  -1128.01112560     A.U. after   17 cycles
 SCF Done:  E(RB3LYP) =  -1128.01809958     A.U. after   14 cycles
 SCF Done:  E(RB3LYP) =  -1128.01816197     A.U. after   16 cycles
 SCF Done:  E(RB3LYP) =  -1128.01942890     A.U. after   14 cycles
 SCF Done:  E(RB3LYP) =  -1128.01967737     A.U. after   13 cycles
 SCF Done:  E(RB3LYP) =  -1128.01999906     A.U. after   12 cycles
 SCF Done:  E(RB3LYP) =  -1128.02005801     A.U. after   13 cycles
 SCF Done:  E(RB3LYP) =  -1128.02015162     A.U. after   13 cycles
 SCF Done:  E(RB3LYP) =  -1128.02014913     A.U. after   14 cycles
 SCF Done:  E(RB3LYP) =  -1128.02029739     A.U. after   13 cycles
 SCF Done:  E(RB3LYP) =  -1128.02038760     A.U. after    9 cycles
 SCF Done:  E(RB3LYP) =  -1128.02038771     A.U. after    8 cycles
 SCF Done:  E(RB3LYP) =  -1128.02038788     A.U. after    8 cycles
 SCF Done:  E(RB3LYP) =  -1128.02038809     A.U. after    9 cycles
 SCF Done:  E(RB3LYP) =  -1128.02038821     A.U. after    9 cycles
 SCF Done:  E(RB3LYP) =  -1128.02038828     A.U. after    8 cycles
 Optimization completed.
    -- Stationary point found.
 Normal termination of Gaussian 16 at Thu Dec 10 17:36:46 2020.

 --------------------------------------------------------------------
 #N Geom=AllCheck Guess=TCheck SCRF=Check GenChk RB3LYP/6-31G(d) Freq
 --------------------------------------------------------------------

 Structure from the checkpoint file:  "JID_5980.chk"
 -------------------------------
 CID_149699733_JID_5980_neutraal
 -------------------------------
 Charge =  0 Multiplicity = 1

 SCF Done:  E(RB3LYP) =  -1128.02038828     A.U. after    2 cycles

  Exact polarizability: 185.366  -5.618 133.884  -3.614  -2.975  56.824
 Approx polarizability: 281.951 -19.313 253.683  -6.445 -14.076  99.048

                      1                      2                      3
                      A                      A                      A
 Frequencies --     21.9512                38.6267                50.8041
 Red. masses --     13.2603                15.7795                 4.6950
 Frc consts  --      0.0038                 0.0139                 0.0071
 IR Inten    --      1.1328                 1.9001                 0.0172

                      4                      5                      6
                      A                      A                      A
 Frequencies --     71.9113               104.9204               120.8641
 Red. masses --      9.1720                12.0141                 3.7588
 Frc consts  --      0.0279                 0.0779                 0.0324
 IR Inten    --      1.0698                 1.9837                 3.4250

                      7                      8                      9
                      A                      A                      A
 Frequencies --    135.9410               160.6293               172.1989
 Red. masses --      6.5017                 9.1387                10.6218
 Frc consts  --      0.0708                 0.1389                 0.1856
 IR Inten    --      0.9051                 0.1843                 3.0513

                     10                     11                     12
                      A                      A                      A
 Frequencies --    241.4403               272.2395               286.1904
 Red. masses --     13.9511                11.0344                 6.9734
 Frc consts  --      0.4792                 0.4818                 0.3365
 IR Inten    --     11.8043                 5.3772                 2.1446

                     13                     14                     15
                      A                      A                      A
 Frequencies --    339.8440               383.3644               421.9921
 Red. masses --     13.0610                11.1500                 7.8380
 Frc consts  --      0.8888                 0.9655                 0.8224
 IR Inten    --      2.9508                 4.6548                26.4957

                     16                     17                     18
                      A                      A                      A
 Frequencies --    501.8267               520.3245               544.8841
 Red. masses --     12.9796                12.3517                 5.5995
 Frc consts  --      1.9258                 1.9703                 0.9795
 IR Inten    --     10.7636                 0.8460                 1.1027

                     19                     20                     21
                      A                      A                      A
 Frequencies --    584.4034               629.3787               663.1137
 Red. masses --     13.8768                 9.9344                 1.6477
 Frc consts  --      2.7923                 2.3185                 0.4269
 IR Inten    --      7.7021                 6.0083                93.0872

                     22                     23                     24
                      A                      A                      A
 Frequencies --    668.6442               710.6885               721.7639
 Red. masses --      3.6409                 9.4052                 4.9820
 Frc consts  --      0.9591                 2.7988                 1.5291
 IR Inten    --     91.8653                72.4905                24.0143

                     25                     26                     27
                      A                      A                      A
 Frequencies --    760.2452               791.2366               827.5950
 Red. masses --      1.8384                 3.8350                 7.3792
 Frc consts  --      0.6260                 1.4146                 2.9778
 IR Inten    --     51.1616               135.3558                30.7063

                     28                     29                     30
                      A                      A                      A
 Frequencies --    866.2306               905.4005              1006.7747
 Red. masses --      5.6388                 7.1094                 5.6391
 Frc consts  --      2.4929                 3.4337                 3.3676
 IR Inten    --      7.7239                28.0277               145.6602

                     31                     32                     33
                      A                      A                      A
 Frequencies --   1019.8563              1124.1053              1229.0235
 Red. masses --      1.5874                 2.0503                 3.8031
 Frc consts  --      0.9728                 1.5265                 3.3846
 IR Inten    --      0.1659               130.8428               324.0377

                     34                     35                     36
                      A                      A                      A
 Frequencies --   1252.0402              1302.7054              1308.4147
 Red. masses --      4.2616                 7.0296                 6.7531
 Frc consts  --      3.9361                 7.0287                 6.8115
 IR Inten    --     80.6153               361.2627               215.1291

                     37                     38                     39
                      A                      A                      A
 Frequencies --   1355.4771              1401.1391              1468.6745
 Red. masses --      3.1748                 1.8872                 1.5819
 Frc consts  --      3.4368                 2.1829                 2.0104
 IR Inten    --     12.4760                 4.5154                 7.0408

                     40                     41                     42
                      A                      A                      A
 Frequencies --   1540.8626              1623.4289              1781.0208
 Red. masses --      8.6873                 6.6292                13.1012
 Frc consts  --     12.1524                10.2939                24.4849
 IR Inten    --     76.6065               357.5938               251.7186

                     43                     44                     45
                      A                      A                      A
 Frequencies --   1794.0218              1835.6808              2300.3031
 Red. masses --     13.2870                 7.6328                13.9953
 Frc consts  --     25.1960                15.1540                43.6319
 IR Inten    --    244.0322               522.5461               505.5695

                     46                     47                     48
                      A                      A                      A
 Frequencies --   3002.7659              3295.4351              3574.4420
 Red. masses --      1.0874                 1.0948                 1.0764
 Frc consts  --      5.7769                 7.0052                 8.1027
 IR Inten    --     44.8578                11.9563                57.2254

 - Thermochemistry -
 -------------------
 Temperature   298.150 Kelvin.  Pressure   1.00000 Atm.
 Atom     1 has atomic number  6 and mass  12.00000

 Molecular mass:   224.99566 amu.
 Principal axes and moments of inertia in atomic units:
                           1         2         3
     Eigenvalues --  1802.753366864.104488393.27042
           X            1.00000   0.00288   0.00043
           Y           -0.00288   1.00000  -0.00027
           Z           -0.00043   0.00027   1.00000
 This molecule is an asymmetric top.
 Rotational symmetry number  1.
 Warning -- assumption of classical behavior for rotation
           may cause significant error
 Rotational temperatures (Kelvin)      0.04805     0.01262     0.01032
 Rotational constants (GHZ):           1.00110     0.26292     0.21502
 Zero-point vibrational energy     273555.0 (Joules/Mol)
                                   65.38121 (Kcal/Mol)
 Warning -- explicit consideration of  19 degrees of freedom as
           vibrations may cause significant error
 Vibrational temperatures:     31.58    55.58    73.10   103.46   150.96
          (Kelvin)            173.90   195.59   231.11   247.76   347.38
                              391.69   411.76   488.96   551.58   607.15
                              722.02   748.63   783.97   840.83   905.54
                              954.07   962.03  1022.52  1038.46  1093.82
                             1138.41  1190.72  1246.31  1302.67  1448.52
                             1467.35  1617.34  1768.29  1801.41  1874.30
                             1882.52  1950.23  2015.93  2113.10  2216.96
                             2335.75  2562.49  2581.20  2641.14  3309.62
                             4320.31  4741.40  5142.82

 Zero-point correction=                           0.104192 (Hartree/Particle)
 Thermal correction to Energy=                    0.118038
 Thermal correction to Enthalpy=                  0.118983
 Thermal correction to Gibbs Free Energy=         0.060348
 Sum of electronic and zero-point Energies=          -1127.916197
 Sum of electronic and thermal Energies=             -1127.902350
 Sum of electronic and thermal Enthalpies=           -1127.901406
 Sum of electronic and thermal Free Energies=        -1127.960041

                     E (Thermal)             CV                S
                      KCal/Mol        Cal/Mol-Kelvin    Cal/Mol-Kelvin
 Total                   74.070             47.357            123.408
 Electronic               0.000              0.000              0.000
 Translational            0.889              2.981             42.135
 Rotational               0.889              2.981             33.007
 Vibrational             72.293             41.395             48.266
 Vibration     1          0.593              1.985              6.449
 Vibration     2          0.594              1.981              5.328
 Vibration     3          0.595              1.977              4.786
 Vibration     4          0.598              1.967              4.100
 Vibration     5          0.605              1.945              3.361
 Vibration     6          0.609              1.932              3.087
 Vibration     7          0.614              1.917              2.860
 Vibration     8          0.622              1.891              2.542
 Vibration     9          0.626              1.877              2.411
 Vibration    10          0.658              1.777              1.792
 Vibration    11          0.675              1.724              1.582
 Vibration    12          0.684              1.699              1.496
 Vibration    13          0.720              1.596              1.213
 Vibration    14          0.753              1.506              1.026
 Vibration    15          0.784              1.422              0.885
 Vibration    16          0.857              1.246              0.654
 Vibration    17          0.875              1.205              0.609
 Vibration    18          0.900              1.151              0.555
 Vibration    19          0.941              1.065              0.477

                           ! Non-Optimized Parameters !
 Normal termination of Gaussian 16 at Thu Dec 10 17:41:03 2020.

 ----------------------------------------------------------------------
 # B3LYP/6-311++G(d,p) empiricaldispersion=gd3bj scf=xqc pop=npa geom=c
 heck
 ----------------------------------------------------------------------

 ---------------------------------------
 CID_149699733_JID_5980_Energie_neutraal
 ---------------------------------------
 Structure from the checkpoint file:  "JID_5980.chk"
 Charge =  0 Multiplicity = 1

 SCF Done:  E(RB3LYP) =  -1128.25938126     A.U. after   17 cycles
 Normal termination of Gaussian 16 at Thu Dec 10 17:42:56 2020.

 ----------------------------------------------------------------------
 # B3LYP/6-311++G(d,p) empiricaldispersion=gd3bj scf=xqc pop=npa geom=c
 heck
 ----------------------------------------------------------------------

 -------------------------------------
 CID_149699733_JID_5980_Energie_kation
 -------------------------------------
 Structure from the checkpoint file:  "JID_5980.chk"
 Charge =  1 Multiplicity = 2

 SCF Done:  E(UB3LYP) =  -1127.92611754     A.U. after   28 cycles
 Normal termination of Gaussian 16 at Thu Dec 10 17:47:16 2020.
 Gaussian 16:  ES64L-G16RevA.03 25-Dec-2016

 ----------------------------------------------------------------------
 # B3LYP/6-311++G(d,p) empiricaldispersion=gd3bj scf=xqc pop=npa geom=c
 heck
 ----------------------------------------------------------------------

 ------------------------------------
 CID_149699733_JID_5980_Energie_anion
 ------------------------------------
 Structure from the checkpoint file:  "JID_5980.chk"
 Charge = -1 Multiplicity = 2

                         Standard orientation:
 ---------------------------------------------------------------------
 Center     Atomic      Atomic             Coordinates (Angstroms)
 Number     Number       Type             X           Y           Z
 ---------------------------------------------------------------------
      1          6           0       -0.796833    2.075564   -0.015044
      2          6           0        0.063893    1.012535    0.019583
      3          7           0       -0.516383   -0.242482    0.011635
      4          6           0       -1.809171   -0.144222   -0.019570
      5         16           0       -2.436196    1.516748   -0.039890
      6          7           0       -2.632690   -1.252059   -0.027085
      7          6           0       -4.011016   -1.279464   -0.112071
      8          8           0       -4.657021   -2.302815   -0.111833
      9          6           0        1.529851    1.173606    0.022815
     10          8           0        2.088001    2.243527   -0.133768
     11          6           0        2.364684   -0.075111    0.332209
     12          8           0        2.184239   -0.756214    1.315012
     13          7           0        3.401695   -0.241164   -0.619359
     14          7           0        4.160200   -1.209000   -0.389445
     15          7           0        4.898007   -2.059195   -0.276995
     16          1           0       -0.548086    3.126679   -0.027575
     17          1           0       -2.158131   -2.148320    0.032862
     18          1           0       -4.460648   -0.272462   -0.181124
 ---------------------------------------------------------------------

 SCF Done:  E(UB3LYP) =  -1128.31535356     A.U. after   26 cycles

 The electronic state is 2-A.
 Alpha  occ. eigenvalues --  -88.77446 -19.02294 -18.97936 -18.95518 -14.37534
 Alpha  occ. eigenvalues --  -14.28236 -14.27694 -14.25171 -14.20579 -10.19808
 Alpha  occ. eigenvalues --  -10.16729 -10.14751 -10.10100 -10.08192 -10.07138
 Alpha  occ. eigenvalues --   -7.86085  -5.82396  -5.82024  -5.81667  -1.04114
 Alpha  occ. eigenvalues --   -0.97290  -0.93368  -0.89587  -0.88945  -0.86304
 Alpha  occ. eigenvalues --   -0.82716  -0.69457  -0.64061  -0.59555  -0.56559
 Alpha  occ. eigenvalues --   -0.52567  -0.49851  -0.44273  -0.41687  -0.41039
 Alpha  occ. eigenvalues --   -0.40082  -0.39559  -0.37370  -0.35769  -0.35184
 Alpha  occ. eigenvalues --   -0.34973  -0.33209  -0.30953  -0.30731  -0.29337
 Alpha  occ. eigenvalues --   -0.28327  -0.25890  -0.25000  -0.22404  -0.21919
 Alpha  occ. eigenvalues --   -0.19472  -0.18046  -0.17993  -0.17150  -0.16206
 Alpha  occ. eigenvalues --   -0.12045  -0.10493   0.00390
 Alpha virt. eigenvalues --    0.05447   0.07138   0.07924   0.08276   0.09176
 Alpha virt. eigenvalues --    0.10002   0.12201   0.12305   0.12882   0.13078
 Alpha virt. eigenvalues --    0.13425   0.13762   0.15328   0.16116   0.16228

  Beta  occ. eigenvalues --  -88.77409 -19.02250 -18.97671 -18.94996 -14.37424
  Beta  occ. eigenvalues --  -14.28048 -14.27715 -14.25257 -14.20600 -10.19774
  Beta  occ. eigenvalues --  -10.16700 -10.14618 -10.09834 -10.08245 -10.06727
  Beta  occ. eigenvalues --   -7.86052  -5.82380  -5.82014  -5.81540  -1.03889
  Beta  occ. eigenvalues --   -0.97219  -0.92939  -0.89210  -0.88393  -0.86139
  Beta  occ. eigenvalues --   -0.82684  -0.69128  -0.63736  -0.59059  -0.56381
  Beta  occ. eigenvalues --   -0.52272  -0.49365  -0.43988  -0.41538  -0.40448
  Beta  occ. eigenvalues --   -0.39888  -0.39408  -0.36989  -0.35618  -0.35013
  Beta  occ. eigenvalues --   -0.34670  -0.32825  -0.30678  -0.30348  -0.28646
  Beta  occ. eigenvalues --   -0.27482  -0.25411  -0.23620  -0.22249  -0.20778
  Beta  occ. eigenvalues --   -0.19424  -0.18002  -0.17381  -0.16480  -0.15858
  Beta  occ. eigenvalues --   -0.10779  -0.09939
  Beta virt. eigenvalues --    0.05654   0.07060   0.07333   0.08247   0.09225
  Beta virt. eigenvalues --    0.09858   0.10032   0.12278   0.12671   0.12892
  Beta virt. eigenvalues --    0.13122   0.13496   0.13767   0.15832   0.16223

 Mulliken charges and spin densities:
               1          2
     1  C    0.652205   0.318167
     2  C   -0.890852  -0.067590
     3  N    0.040366  -0.013485
     4  C    0.448634  -0.000023
     5  S   -0.454787   0.061330
     6  N   -0.089697  -0.007191
     7  C    0.205712   0.034730
     8  O   -0.351117   0.012787
     9  C   -0.295191   0.220422
    10  O   -0.355863   0.186429
    11  C   -0.341496   0.107927
    12  O   -0.306592   0.088200
    13  N    0.204520  -0.055052
    14  N    0.067988   0.027954
    15  N   -0.211682   0.109507
    16  H    0.275150  -0.020883
    17  H    0.315426   0.000775
    18  H    0.087276  -0.004002
 Sum of Mulliken charges =  -1.00000   1.00000

 Dipole moment (field-independent basis, Debye):
    X=             -4.2002    Y=              0.3465    Z=             -1.0127  Tot=              4.3344
 Quadrupole moment (field-independent basis, Debye-Ang):
   XX=           -151.1782   YY=           -116.6752   ZZ=            -99.9586
   XY=            -12.3521   XZ=             -2.1494   YZ=              3.1466

 Summary of Natural Population Analysis:

                                       Natural Population
                Natural  -----------------------------------------------
    Atom  No    Charge         Core      Valence    Rydberg      Total
 -----------------------------------------------------------------------
      C    1   -0.09636      0.99949     2.08706    0.00981     3.09636
      C    2    0.00482      0.99944     1.98093    0.01481     2.99518
      N    3   -0.24256      0.99963     2.73122    0.01171     3.74256
      C    4    0.11919      0.99961     1.86275    0.01844     2.88081
      S    5    0.16792      4.99946     2.81223    0.02039     7.83208
      N    6   -0.31385      0.99963     2.80532    0.00890     3.81385
      C    7    0.27414      0.99976     1.70377    0.02233     2.72586
      O    8   -0.30141      0.99988     3.29424    0.00728     4.30141
      C    9    0.26371      0.99957     1.71578    0.02094     2.73629
      O   10   -0.22688      0.99988     3.22053    0.00647     4.22688
      C   11    0.31890      0.99968     1.65485    0.02657     2.68110
      O   12   -0.26472      0.99987     3.25736    0.00749     4.26472
      N   13   -0.21215      0.99967     2.69757    0.01491     3.71215
      N   14    0.13999      0.99971     2.34291    0.01740     3.36001
      N   15   -0.00765      0.99981     2.49444    0.01339     3.50765
      H   16    0.11366      0.00000     0.38510    0.00124     0.38634
      H   17    0.20630      0.00000     0.29162    0.00208     0.29370
      H   18    0.05695      0.00000     0.44156    0.00149     0.44305
 =======================================================================
   * Total *    0.00000     18.99509    37.77927    0.22564    57.00000

 Normal termination of Gaussian 16 at Thu Dec 10 17:51:02 2020.
