 Gaussian 16, Revision A.03,

 -----------------------------------------------------------
 # opt freq B3LYP/6-31G(d) empiricaldispersion=gd3bj scf=xqc
 -----------------------------------------------------------

 -------------------------------
 CID_149657575_JID_8392_neutraal
 -------------------------------
 Symbolic Z-matrix:
 Charge =  0 Multiplicity = 1

 SCF Done:  E(RB3LYP) =  -814.082531349     A.U. after   17 cycles
 SCF Done:  E(RB3LYP) =  -814.091361814     A.U. after   14 cycles
 SCF Done:  E(RB3LYP) =  -814.093370528     A.U. after   14 cycles
 SCF Done:  E(RB3LYP) =  -814.092288128     A.U. after   16 cycles
 SCF Done:  E(RB3LYP) =  -814.093065681     A.U. after   14 cycles
 SCF Done:  E(RB3LYP) =  -814.094512430     A.U. after   11 cycles
 SCF Done:  E(RB3LYP) =  -814.095278718     A.U. after   13 cycles
 SCF Done:  E(RB3LYP) =  -814.095530425     A.U. after   13 cycles
 SCF Done:  E(RB3LYP) =  -814.095724718     A.U. after   13 cycles
 SCF Done:  E(RB3LYP) =  -814.095863496     A.U. after   12 cycles
 SCF Done:  E(RB3LYP) =  -814.095904658     A.U. after    8 cycles
 SCF Done:  E(RB3LYP) =  -814.095904806     A.U. after    8 cycles
 SCF Done:  E(RB3LYP) =  -814.095904932     A.U. after    8 cycles
 SCF Done:  E(RB3LYP) =  -814.095905038     A.U. after    7 cycles
 SCF Done:  E(RB3LYP) =  -814.095905111     A.U. after    7 cycles
 Optimization completed.
    -- Stationary point found.
 Normal termination of Gaussian 16 at Fri Dec 11 20:26:18 2020.

 --------------------------------------------------------------------
 #N Geom=AllCheck Guess=TCheck SCRF=Check GenChk RB3LYP/6-31G(d) Freq
 --------------------------------------------------------------------

 Structure from the checkpoint file:  "JID_8392.chk"
 -------------------------------
 CID_149657575_JID_8392_neutraal
 -------------------------------
 Charge =  0 Multiplicity = 1

 SCF Done:  E(RB3LYP) =  -814.095905111     A.U. after    1 cycles

  Exact polarizability: 170.398 -30.229 184.399 -22.643 -13.755 101.900
 Approx polarizability: 253.887 -60.624 332.600 -52.889 -27.302 182.782

                      1                      2                      3
                      A                      A                      A
 Frequencies --     21.5568                41.3644                62.0983
 Red. masses --      6.6546                 7.5117                 9.4593
 Frc consts  --      0.0018                 0.0076                 0.0215
 IR Inten    --      0.4372                 0.1888                 1.4995

                      4                      5                      6
                      A                      A                      A
 Frequencies --     91.8781                99.1317               133.4591
 Red. masses --      5.1748                 5.7950                 6.9192
 Frc consts  --      0.0257                 0.0336                 0.0726
 IR Inten    --      0.6260                 0.3974                 0.1496

                      7                      8                      9
                      A                      A                      A
 Frequencies --    165.9659               191.4900               221.5329
 Red. masses --      6.1996                 3.9825                 2.6416
 Frc consts  --      0.1006                 0.0860                 0.0764
 IR Inten    --      1.1598                 2.8489                10.4152

                     10                     11                     12
                      A                      A                      A
 Frequencies --    238.3928               247.4812               262.4231
 Red. masses --      1.3399                 3.0113                 1.4239
 Frc consts  --      0.0449                 0.1087                 0.0578
 IR Inten    --     14.9546                 5.0396                35.0813

                     13                     14                     15
                      A                      A                      A
 Frequencies --    279.0006               315.2276               333.9149
 Red. masses --      3.3279                 2.4964                 2.8472
 Frc consts  --      0.1526                 0.1462                 0.1870
 IR Inten    --      5.4191                 6.0521                20.8198

                     16                     17                     18
                      A                      A                      A
 Frequencies --    343.5430               387.5630               440.2501
 Red. masses --      3.0852                 1.6405                 2.8107
 Frc consts  --      0.2145                 0.1452                 0.3210
 IR Inten    --      5.9113                55.3242                 0.2924

                     19                     20                     21
                      A                      A                      A
 Frequencies --    447.2180               470.4280               492.0110
 Red. masses --      3.2332                 3.0011                 5.6068
 Frc consts  --      0.3810                 0.3913                 0.7997
 IR Inten    --     11.9731                 3.9273                11.6091

                     22                     23                     24
                      A                      A                      A
 Frequencies --    510.7467               557.5183               581.7085
 Red. masses --      4.9841                 5.8639                 6.6069
 Frc consts  --      0.7660                 1.0739                 1.3172
 IR Inten    --      6.7499                 0.7004                 7.6230

                     25                     26                     27
                      A                      A                      A
 Frequencies --    585.2128               590.3083               621.0796
 Red. masses --      7.3921                 3.5038                 4.2749
 Frc consts  --      1.4916                 0.7194                 0.9716
 IR Inten    --      6.2422                13.4993                 8.3977

                     28                     29                     30
                      A                      A                      A
 Frequencies --    649.8146               739.5399               755.3764
 Red. masses --      3.2183                 5.6629                 1.2667
 Frc consts  --      0.8007                 1.8248                 0.4259
 IR Inten    --      0.3687                29.5007                63.8106

                     31                     32                     33
                      A                      A                      A
 Frequencies --    767.2748               784.1018               784.6781
 Red. masses --      3.6712                 4.3415                 2.1878
 Frc consts  --      1.2734                 1.5727                 0.7937
 IR Inten    --      1.3467                 3.2384                 2.9417

                     34                     35                     36
                      A                      A                      A
 Frequencies --    804.6885               840.6504               861.1136
 Red. masses --      2.8468                 3.2143                 1.5688
 Frc consts  --      1.0861                 1.3384                 0.6854
 IR Inten    --     30.3765                22.2023                 1.0048

                     37                     38                     39
                      A                      A                      A
 Frequencies --    879.5822               893.0447               919.0461
 Red. masses --      4.0723                 4.9500                 1.6877
 Frc consts  --      1.8563                 2.3260                 0.8399
 IR Inten    --     30.0845                 3.6336                82.0486

                     40                     41                     42
                      A                      A                      A
 Frequencies --    927.6729               934.3439               968.9432
 Red. masses --      1.3307                 2.0187                 1.2426
 Frc consts  --      0.6747                 1.0383                 0.6874
 IR Inten    --      6.2174                61.0082                 1.4741

                     43                     44                     45
                      A                      A                      A
 Frequencies --    974.1628              1045.9273              1052.7611
 Red. masses --      1.9311                 2.0297                 1.8305
 Frc consts  --      1.0797                 1.3082                 1.1953
 IR Inten    --     41.7123                 7.6264                28.4725

                     46                     47                     48
                      A                      A                      A
 Frequencies --   1087.3209              1109.1556              1120.4754
 Red. masses --      3.9716                 2.4783                 1.5182
 Frc consts  --      2.7665                 1.7964                 1.1230
 IR Inten    --    118.1884                73.7010                17.9315

                     49                     50                     51
                      A                      A                      A
 Frequencies --   1155.5534              1166.7741              1188.7393
 Red. masses --      1.6101                 1.6416                 1.1946
 Frc consts  --      1.2668                 1.3167                 0.9946
 IR Inten    --     22.3619                10.5703                 1.5977

                     52                     53                     54
                      A                      A                      A
 Frequencies --   1212.2493              1225.6390              1262.9860
 Red. masses --      1.8129                 1.8548                 2.5419
 Frc consts  --      1.5696                 1.6416                 2.3889
 IR Inten    --     10.1518                13.8407                 9.4843

                     55                     56                     57
                      A                      A                      A
 Frequencies --   1288.7517              1290.3729              1339.6623
 Red. masses --      1.6755                 6.3640                 2.3189
 Frc consts  --      1.6396                 6.2432                 2.4520
 IR Inten    --     57.1197               272.2876                 2.5226

                     58                     59                     60
                      A                      A                      A
 Frequencies --   1359.6404              1385.8064              1396.9044
 Red. masses --      1.7283                 2.4412                 4.5308
 Frc consts  --      1.8824                 2.7622                 5.2091
 IR Inten    --      4.9866                14.9666                31.0655

                     61                     62                     63
                      A                      A                      A
 Frequencies --   1407.8883              1438.9964              1465.2706
 Red. masses --      1.7294                 1.3619                 2.5497
 Frc consts  --      2.0197                 1.6615                 3.2253
 IR Inten    --     14.9044                 9.8533                20.2324

                     64                     65                     66
                      A                      A                      A
 Frequencies --   1500.7433              1505.2161              1520.9843
 Red. masses --      2.0794                 1.2175                 1.0491
 Frc consts  --      2.7593                 1.6252                 1.4299
 IR Inten    --     15.3584                 4.1695                 2.3368

                     67                     68                     69
                      A                      A                      A
 Frequencies --   1527.0609              1543.0456              1605.1742
 Red. masses --      1.0686                 2.9119                 5.5476
 Frc consts  --      1.4681                 4.0850                 8.4218
 IR Inten    --      6.4461                 3.1119                 9.5926

                     70                     71                     72
                      A                      A                      A
 Frequencies --   1635.1269              1681.5513              1682.9696
 Red. masses --      5.6346                 4.6450                 1.1572
 Frc consts  --      8.8760                 7.7384                 1.9312
 IR Inten    --      0.4013                 9.6108                45.4088

                     73                     74                     75
                      A                      A                      A
 Frequencies --   1818.4710              2302.0890              3038.7889
 Red. masses --     12.8044                13.9733                 1.0618
 Frc consts  --     24.9472                43.6308                 5.7770
 IR Inten    --    141.3494               400.8447                33.2897

                     76                     77                     78
                      A                      A                      A
 Frequencies --   3060.5650              3087.4958              3140.2103
 Red. masses --      1.0443                 1.1013                 1.0930
 Frc consts  --      5.7633                 6.1853                 6.3503
 IR Inten    --     28.9824                18.9295                15.9173

                     79                     80                     81
                      A                      A                      A
 Frequencies --   3173.6882              3184.1043              3192.4399
 Red. masses --      1.1025                 1.0854                 1.0889
 Frc consts  --      6.5426                 6.4838                 6.5385
 IR Inten    --     11.3792                 0.9102                11.0810

                     82                     83                     84
                      A                      A                      A
 Frequencies --   3204.8190              3214.0294              3267.1072
 Red. masses --      1.0929                 1.0962                 1.0965
 Frc consts  --      6.6134                 6.6718                 6.8961
 IR Inten    --     32.3399                17.6261                 1.8435

                     85                     86                     87
                      A                      A                      A
 Frequencies --   3462.7250              3553.0347              3673.2586
 Red. masses --      1.0492                 1.0925                 1.0801
 Frc consts  --      7.4120                 8.1258                 8.5864
 IR Inten    --      0.5068                 0.1870                65.0481

 - Thermochemistry -
 -------------------
 Temperature   298.150 Kelvin.  Pressure   1.00000 Atm.
 Atom     1 has atomic number  6 and mass  12.00000

 Molecular mass:   243.11201 amu.
 Principal axes and moments of inertia in atomic units:
                           1         2         3
     Eigenvalues --  2957.543944591.874366468.60978
           X            0.99818  -0.05929  -0.01069
           Y            0.05909   0.99808  -0.01843
           Z            0.01177   0.01776   0.99977
 This molecule is an asymmetric top.
 Rotational symmetry number  1.
 Warning -- assumption of classical behavior for rotation
           may cause significant error
 Rotational temperatures (Kelvin)      0.02929     0.01886     0.01339
 Rotational constants (GHZ):           0.61022     0.39303     0.27900
 Zero-point vibrational energy     644740.0 (Joules/Mol)
                                  154.09656 (Kcal/Mol)
 Warning -- explicit consideration of  26 degrees of freedom as
           vibrations may cause significant error
 Vibrational temperatures:     31.02    59.51    89.35   132.19   142.63
          (Kelvin)            192.02   238.79   275.51   318.74   342.99
                              356.07   377.57   401.42   453.54   480.43
                              494.28   557.62   633.42   643.45   676.84
                              707.89   734.85   802.14   836.95   841.99
                              849.32   893.59   934.94  1064.03  1086.82
                             1103.94  1128.15  1128.98  1157.77  1209.51
                             1238.95  1265.52  1284.89  1322.30  1334.71
                             1344.31  1394.09  1401.60  1504.86  1514.69
                             1564.41  1595.83  1612.11  1662.58  1678.73
                             1710.33  1744.16  1763.42  1817.16  1854.23
                             1856.56  1927.48  1956.22  1993.87  2009.83
                             2025.64  2070.39  2108.20  2159.23  2165.67
                             2188.36  2197.10  2220.10  2309.49  2352.58
                             2419.38  2421.42  2616.37  3312.19  4372.14
                             4403.47  4442.22  4518.06  4566.23  4581.22
                             4593.21  4611.02  4624.27  4700.64  4982.09
                             5112.02  5285.00

 Zero-point correction=                           0.245569 (Hartree/Particle)
 Thermal correction to Energy=                    0.261761
 Thermal correction to Enthalpy=                  0.262705
 Thermal correction to Gibbs Free Energy=         0.201266
 Sum of electronic and zero-point Energies=           -813.850337
 Sum of electronic and thermal Energies=              -813.834144
 Sum of electronic and thermal Enthalpies=            -813.833200
 Sum of electronic and thermal Free Energies=         -813.894639

                     E (Thermal)             CV                S
                      KCal/Mol        Cal/Mol-Kelvin    Cal/Mol-Kelvin
 Total                  164.257             62.288            129.310
 Electronic               0.000              0.000              0.000
 Translational            0.889              2.981             42.366
 Rotational               0.889              2.981             32.841
 Vibrational            162.480             56.326             54.103
 Vibration     1          0.593              1.985              6.485
 Vibration     2          0.594              1.981              5.193
 Vibration     3          0.597              1.972              4.389
 Vibration     4          0.602              1.955              3.620
 Vibration     5          0.604              1.950              3.471
 Vibration     6          0.613              1.920              2.896
 Vibration     7          0.624              1.884              2.481
 Vibration     8          0.634              1.852              2.213
 Vibration     9          0.648              1.808              1.947
 Vibration    10          0.656              1.782              1.815
 Vibration    11          0.661              1.767              1.748
 Vibration    12          0.670              1.742              1.646
 Vibration    13          0.679              1.712              1.540
 Vibration    14          0.703              1.645              1.335
 Vibration    15          0.715              1.608              1.241
 Vibration    16          0.722              1.588              1.196
 Vibration    17          0.756              1.497              1.010
 Vibration    18          0.800              1.382              0.826
 Vibration    19          0.806              1.367              0.804
 Vibration    20          0.827              1.316              0.736
 Vibration    21          0.848              1.268              0.678
 Vibration    22          0.866              1.226              0.632
 Vibration    23          0.913              1.123              0.529
 Vibration    24          0.938              1.071              0.482
 Vibration    25          0.942              1.063              0.476
 Vibration    26          0.948              1.052              0.467

 Optimization completed.
    -- Stationary point found.
 Normal termination of Gaussian 16 at Fri Dec 11 20:38:33 2020.

 ----------------------------------------------------------------------
 # B3LYP/6-311++G(d,p) empiricaldispersion=gd3bj scf=xqc pop=npa geom=c
 heck
 ----------------------------------------------------------------------

 ---------------------------------------
 CID_149657575_JID_8392_Energie_neutraal
 ---------------------------------------
 Structure from the checkpoint file:  "JID_8392.chk"
 Charge =  0 Multiplicity = 1

 SCF Done:  E(RB3LYP) =  -814.325126412     A.U. after   16 cycles
 Normal termination of Gaussian 16 at Fri Dec 11 20:43:30 2020.

 ----------------------------------------------------------------------
 # B3LYP/6-311++G(d,p) empiricaldispersion=gd3bj scf=xqc pop=npa geom=c
 heck
 ----------------------------------------------------------------------

 -------------------------------------
 CID_149657575_JID_8392_Energie_kation
 -------------------------------------
 Structure from the checkpoint file:  "JID_8392.chk"
 Charge =  1 Multiplicity = 2

 SCF Done:  E(UB3LYP) =  -814.051231476     A.U. after   24 cycles
 Normal termination of Gaussian 16 at Fri Dec 11 20:53:35 2020.
 Gaussian 16:  ES64L-G16RevA.03 25-Dec-2016

 ----------------------------------------------------------------------
 # B3LYP/6-311++G(d,p) empiricaldispersion=gd3bj scf=xqc pop=npa geom=c
 heck
 ----------------------------------------------------------------------

 ------------------------------------
 CID_149657575_JID_8392_Energie_anion
 ------------------------------------
 Structure from the checkpoint file:  "JID_8392.chk"
 Charge = -1 Multiplicity = 2

                         Standard orientation:
 ---------------------------------------------------------------------
 Center     Atomic      Atomic             Coordinates (Angstroms)
 Number     Number       Type             X           Y           Z
 ---------------------------------------------------------------------
      1          6           0        2.595178   -1.813746    0.797888
      2          6           0        2.251395   -0.705936   -0.196783
      3          6           0        1.123357   -1.168145   -1.184299
      4          6           0       -0.230702   -1.369141   -0.574338
      5          6           0       -0.692443   -2.482350    0.086426
      6          7           0       -1.968613   -2.251509    0.565260
      7          6           0       -2.361282   -0.973368    0.223630
      8          6           0       -3.552398   -0.288825    0.481100
      9          6           0       -3.666324    1.006738   -0.008143
     10          6           0       -2.623529    1.602602   -0.746431
     11          6           0       -1.443074    0.917677   -1.001194
     12          6           0       -1.288756   -0.388156   -0.505045
     13          6           0        1.741349    0.510758    0.576334
     14          8           0        1.406320    0.525756    1.735953
     15          7           0        1.664920    1.665705   -0.280454
     16          7           0        1.147925    2.665405    0.252999
     17          7           0        0.675946    3.613371    0.653801
     18          7           0        3.480040   -0.305392   -0.897135
     19          1           0        1.719116   -2.092559    1.385319
     20          1           0        3.381082   -1.478310    1.478148
     21          1           0        2.954241   -2.696261    0.254865
     22          1           0        1.055420   -0.421734   -1.984026
     23          1           0        1.484009   -2.095442   -1.648639
     24          1           0       -0.208475   -3.434407    0.254093
     25          1           0       -2.519263   -2.909445    1.093454
     26          1           0       -4.358799   -0.751127    1.043809
     27          1           0       -4.577153    1.568270    0.177899
     28          1           0       -2.749359    2.613875   -1.122078
     29          1           0       -0.649391    1.381571   -1.578292
     30          1           0        3.836986   -1.107892   -1.414790
     31          1           0        3.262893    0.415712   -1.583556
 ---------------------------------------------------------------------

 SCF Done:  E(UB3LYP) =  -814.323963147     A.U. after   33 cycles
 SCF Done:  E(UB3LYP) =  -814.323963193     a.u. after    2 cycles

 The electronic state is 2-A.
 Alpha  occ. eigenvalues --  -19.00819 -14.34732 -14.26453 -14.25657 -14.24613
 Alpha  occ. eigenvalues --  -14.19953 -10.17753 -10.12074 -10.10806 -10.10366
 Alpha  occ. eigenvalues --  -10.07958 -10.07946 -10.07616 -10.07307 -10.07257
 Alpha  occ. eigenvalues --  -10.07051 -10.06973 -10.05903  -1.02731  -0.95300
 Alpha  occ. eigenvalues --   -0.88208  -0.85855  -0.80401  -0.74610  -0.70572
 Alpha  occ. eigenvalues --   -0.65984  -0.64117  -0.62646  -0.60201  -0.58765
 Alpha  occ. eigenvalues --   -0.52863  -0.49843  -0.49211  -0.46490  -0.44347
 Alpha  occ. eigenvalues --   -0.41523  -0.40074  -0.39090  -0.38760  -0.38069
 Alpha  occ. eigenvalues --   -0.37526  -0.36749  -0.34976  -0.34134  -0.33667
 Alpha  occ. eigenvalues --   -0.33264  -0.32433  -0.31920  -0.30507  -0.29389
 Alpha  occ. eigenvalues --   -0.27987  -0.27626  -0.26932  -0.26417  -0.24909
 Alpha  occ. eigenvalues --   -0.24272  -0.24059  -0.22813  -0.18453  -0.16755
 Alpha  occ. eigenvalues --   -0.16305  -0.15004  -0.13108  -0.10779   0.03897
 Alpha virt. eigenvalues --    0.05370   0.06527   0.06615   0.07425   0.07525
 Alpha virt. eigenvalues --    0.08562   0.09033   0.09846   0.10487   0.10766
 Alpha virt. eigenvalues --    0.10841   0.11807   0.12583   0.13181   0.13573

  Beta  occ. eigenvalues --  -19.00828 -14.34352 -14.26054 -14.25618 -14.24656
  Beta  occ. eigenvalues --  -14.19928 -10.17677 -10.12074 -10.10807 -10.10344
  Beta  occ. eigenvalues --  -10.07949 -10.07931 -10.07615 -10.07303 -10.07253
  Beta  occ. eigenvalues --  -10.07050 -10.06974 -10.05886  -1.02100  -0.95237
  Beta  occ. eigenvalues --   -0.88163  -0.85593  -0.80358  -0.74595  -0.70543
  Beta  occ. eigenvalues --   -0.65944  -0.64094  -0.62617  -0.60055  -0.58612
  Beta  occ. eigenvalues --   -0.52827  -0.49808  -0.49042  -0.46425  -0.44283
  Beta  occ. eigenvalues --   -0.41121  -0.39831  -0.39047  -0.38352  -0.37741
  Beta  occ. eigenvalues --   -0.37058  -0.36695  -0.34904  -0.33641  -0.33228
  Beta  occ. eigenvalues --   -0.33124  -0.32394  -0.31882  -0.30454  -0.29359
  Beta  occ. eigenvalues --   -0.27950  -0.27493  -0.26899  -0.26400  -0.24881
  Beta  occ. eigenvalues --   -0.24252  -0.24039  -0.22189  -0.18441  -0.16593
  Beta  occ. eigenvalues --   -0.16206  -0.14948  -0.13093  -0.10753
  Beta virt. eigenvalues --    0.06590   0.06792   0.07044   0.07561   0.07729
  Beta virt. eigenvalues --    0.08993   0.09049   0.09857   0.09959   0.10611
  Beta virt. eigenvalues --    0.10907   0.11067   0.12065   0.12590   0.13274

 Mulliken charges and spin densities:
               1          2
     1  C    0.114233  -0.687680
     2  C   -0.268058   0.077776
     3  C    0.234300  -0.646111
     4  C    1.027584  -0.475808
     5  C    0.308778  -0.347215
     6  N   -0.179921   0.071057
     7  C    0.315915  -0.432088
     8  C   -1.235878   0.763972
     9  C   -0.014127  -0.221563
    10  C   -0.362342  -0.095423
    11  C   -0.512617  -0.027855
    12  C    0.875259  -0.291065
    13  C   -0.248416  -0.101845
    14  O   -0.228271  -0.003503
    15  N   -0.209349   0.063953
    16  N    0.459369   0.038783
    17  N   -0.264729   0.262266
    18  N   -0.238653   0.030089
    19  H    0.219578  -0.024040
    20  H    0.148655   0.027227
    21  H   -0.144788   0.270625
    22  H    0.115311   0.015852
    23  H   -0.106229   0.316960
    24  H   -0.711081   0.897463
    25  H   -0.349194   0.680577
    26  H   -0.227516   0.369843
    27  H    0.184021  -0.047178
    28  H    0.097286   0.050861
    29  H    0.001532   0.156928
    30  H    0.078183   0.164145
    31  H    0.121164   0.142996
 Sum of Mulliken charges =  -1.00000   1.00000

 Dipole moment (field-independent basis, Debye):
    X=             -0.5430    Y=              2.1213    Z=             -2.4819  Tot=              3.3098
 Quadrupole moment (field-independent basis, Debye-Ang):
   XX=           -150.4416   YY=           -162.5495   ZZ=           -131.4045
   XY=            -10.0688   XZ=              2.3032   YZ=             -0.8995

 Summary of Natural Population Analysis:

                                       Natural Population
                Natural  -----------------------------------------------
    Atom  No    Charge         Core      Valence    Rydberg      Total
 -----------------------------------------------------------------------
      C    1   -0.28816      0.99963     2.28022    0.00832     3.28816
      C    2    0.02339      0.99952     1.96404    0.01306     2.97661
      C    3   -0.20092      0.99957     2.18935    0.01201     3.20092
      C    4   -0.06038      0.99949     2.04994    0.01095     3.06038
      C    5    0.01022      0.99949     1.97793    0.01236     2.98978
      N    6   -0.26805      0.99966     2.75836    0.01003     3.76805
      C    7    0.07853      0.99947     1.90988    0.01211     2.92147
      C    8   -0.11769      0.99952     2.10859    0.00958     3.11769
      C    9   -0.10909      0.99958     2.10047    0.00904     3.10909
      C   10   -0.11545      0.99958     2.10632    0.00956     3.11545
      C   11   -0.09554      0.99953     2.08703    0.00898     3.09554
      C   12   -0.04120      0.99946     2.03210    0.00964     3.04120
      C   13    0.35203      0.99960     1.62092    0.02745     2.64797
      O   14   -0.29409      0.99987     3.28821    0.00602     4.29409
      N   15   -0.24336      0.99967     2.73000    0.01369     3.74336
      N   16    0.16393      0.99971     2.31943    0.01693     3.33607
      N   17    0.03494      0.99981     2.45332    0.01193     3.46506
      N   18   -0.42072      0.99975     2.91051    0.01046     3.92072
      H   19    0.11094      0.00000     0.38794    0.00112     0.38906
      H   20    0.10665      0.00000     0.39246    0.00089     0.39335
      H   21    0.09576      0.00000     0.40323    0.00101     0.40424
      H   22    0.10764      0.00000     0.39085    0.00151     0.39236
      H   23    0.10444      0.00000     0.39418    0.00138     0.39556
      H   24    0.10342      0.00000     0.39473    0.00184     0.39658
      H   25    0.20447      0.00000     0.28659    0.00895     0.29553
      H   26    0.10209      0.00000     0.39699    0.00092     0.39791
      H   27    0.09674      0.00000     0.40256    0.00071     0.40326
      H   28    0.09875      0.00000     0.40045    0.00080     0.40125
      H   29    0.10537      0.00000     0.39294    0.00169     0.39463
      H   30    0.17251      0.00000     0.32583    0.00166     0.32749
      H   31    0.18285      0.00000     0.31520    0.00195     0.31715
 =======================================================================
   * Total *   -0.00000     17.99289    45.77057    0.23654    64.00000

 Normal termination of Gaussian 16 at Fri Dec 11 21:20:41 2020.
