 Gaussian 16, Revision A.03,

 -----------------------------------------------------------
 # opt freq B3LYP/6-31G(d) empiricaldispersion=gd3bj scf=xqc
 -----------------------------------------------------------

 -------------------------------
 CID_114511696_JID_9986_neutraal
 -------------------------------
 Symbolic Z-matrix:
 Charge =  0 Multiplicity = 1

 SCF Done:  E(RB3LYP) =  -1261.90736634     A.U. after   15 cycles
 SCF Done:  E(RB3LYP) =  -1261.91691443     A.U. after   13 cycles
 SCF Done:  E(RB3LYP) =  -1261.91572973     A.U. after   14 cycles
 SCF Done:  E(RB3LYP) =  -1261.92178980     A.U. after   13 cycles
 SCF Done:  E(RB3LYP) =  -1261.92439212     A.U. after   14 cycles
 SCF Done:  E(RB3LYP) =  -1261.92607294     A.U. after   13 cycles
 SCF Done:  E(RB3LYP) =  -1261.92570586     A.U. after   14 cycles
 SCF Done:  E(RB3LYP) =  -1261.92746044     A.U. after   13 cycles
 SCF Done:  E(RB3LYP) =  -1261.92793300     A.U. after   12 cycles
 SCF Done:  E(RB3LYP) =  -1261.92808073     A.U. after   12 cycles
 SCF Done:  E(RB3LYP) =  -1261.92828844     A.U. after   10 cycles
 SCF Done:  E(RB3LYP) =  -1261.92828960     A.U. after    9 cycles
 SCF Done:  E(RB3LYP) =  -1261.92829110     A.U. after    9 cycles
 SCF Done:  E(RB3LYP) =  -1261.92829146     A.U. after    9 cycles
 SCF Done:  E(RB3LYP) =  -1261.92829151     A.U. after    7 cycles
 Optimization completed.
    -- Stationary point found.
 Normal termination of Gaussian 16 at Sat Dec 12 10:34:38 2020.

 --------------------------------------------------------------------
 #N Geom=AllCheck Guess=TCheck SCRF=Check GenChk RB3LYP/6-31G(d) Freq
 --------------------------------------------------------------------

 Structure from the checkpoint file:  "JID_9986.chk"
 -------------------------------
 CID_114511696_JID_9986_neutraal
 -------------------------------
 Charge =  0 Multiplicity = 1

 SCF Done:  E(RB3LYP) =  -1261.92829151     A.U. after    1 cycles

  Exact polarizability: 187.923   6.865 148.610   1.894  -7.083 154.176
 Approx polarizability: 246.866  12.279 223.518   7.657 -17.558 256.431

                      1                      2                      3
                      A                      A                      A
 Frequencies --     24.8314                34.4476                45.6218
 Red. masses --      6.8739                 6.8736                 4.4031
 Frc consts  --      0.0025                 0.0048                 0.0054
 IR Inten    --      1.4603                 0.1077                 0.7865

                      4                      5                      6
                      A                      A                      A
 Frequencies --     54.3144                89.0051                90.8842
 Red. masses --      3.9573                 3.5783                 4.0307
 Frc consts  --      0.0069                 0.0167                 0.0196
 IR Inten    --      2.0023                 1.6963                 1.2872

                      7                      8                      9
                      A                      A                      A
 Frequencies --    100.0768               123.8782               134.2418
 Red. masses --      3.7207                 3.7302                 5.4549
 Frc consts  --      0.0220                 0.0337                 0.0579
 IR Inten    --      1.0375                 3.6925                 6.4703

                     10                     11                     12
                      A                      A                      A
 Frequencies --    149.2570               179.2514               226.2022
 Red. masses --      5.6264                 2.5811                 1.9549
 Frc consts  --      0.0739                 0.0489                 0.0589
 IR Inten    --      4.3266                 3.4244                 1.0654

                     13                     14                     15
                      A                      A                      A
 Frequencies --    236.8952               254.9674               284.1585
 Red. masses --      3.2289                 1.9368                 3.1276
 Frc consts  --      0.1068                 0.0742                 0.1488
 IR Inten    --      1.9962                 0.5172                 2.3041

                     16                     17                     18
                      A                      A                      A
 Frequencies --    286.4409               314.7692               340.4448
 Red. masses --      3.5464                 3.3366                 2.6459
 Frc consts  --      0.1714                 0.1948                 0.1807
 IR Inten    --      0.6323                 4.1309                 2.1861

                     19                     20                     21
                      A                      A                      A
 Frequencies --    378.1109               388.2946               408.3724
 Red. masses --      4.8613                 2.8601                 2.7314
 Frc consts  --      0.4095                 0.2541                 0.2684
 IR Inten    --     11.9920                 9.4410                 3.1730

                     22                     23                     24
                      A                      A                      A
 Frequencies --    420.6332               451.2305               459.2708
 Red. masses --      2.3035                 3.3699                 3.4375
 Frc consts  --      0.2401                 0.4043                 0.4272
 IR Inten    --      2.4630                 3.6559                 0.9177

                     25                     26                     27
                      A                      A                      A
 Frequencies --    469.9461               493.8727               570.3904
 Red. masses --      3.5600                 2.8652                 3.5651
 Frc consts  --      0.4632                 0.4117                 0.6834
 IR Inten    --     16.0198                 4.1630                 3.7719

                     28                     29                     30
                      A                      A                      A
 Frequencies --    593.3238               601.7786               610.4354
 Red. masses --      2.8240                 5.1495                 4.0754
 Frc consts  --      0.5857                 1.0987                 0.8948
 IR Inten    --     11.8103                 2.1119                25.9762

                     31                     32                     33
                      A                      A                      A
 Frequencies --    632.1454               653.9075               671.9520
 Red. masses --      2.7747                 2.7328                 2.2185
 Frc consts  --      0.6533                 0.6885                 0.5902
 IR Inten    --     27.8134                17.3752                24.8844

                     34                     35                     36
                      A                      A                      A
 Frequencies --    693.4138               726.9836               771.0793
 Red. masses --      2.3071                 3.3703                 3.4311
 Frc consts  --      0.6536                 1.0495                 1.2019
 IR Inten    --     47.3416                 6.4217                31.9828

                     37                     38                     39
                      A                      A                      A
 Frequencies --    792.4102               823.2410               847.8429
 Red. masses --      1.2449                 1.8120                 3.1359
 Frc consts  --      0.4606                 0.7235                 1.3281
 IR Inten    --      1.4857                 2.5222                20.2821

                     40                     41                     42
                      A                      A                      A
 Frequencies --    872.7858               906.8879               947.6313
 Red. masses --      2.5916                 2.0115                 2.0456
 Frc consts  --      1.1632                 0.9747                 1.0823
 IR Inten    --      0.9533                 1.6171                22.5291

                     43                     44                     45
                      A                      A                      A
 Frequencies --    954.2472               967.3846               977.0012
 Red. masses --      1.6584                 1.6023                 2.1858
 Frc consts  --      0.8897                 0.8834                 1.2293
 IR Inten    --      3.5292                 5.8693                35.8860

                     46                     47                     48
                      A                      A                      A
 Frequencies --    984.8445              1001.8835              1017.8103
 Red. masses --      2.1048                 1.8233                 2.1335
 Frc consts  --      1.2028                 1.0783                 1.3022
 IR Inten    --      7.7627                 0.7936                 1.4006

                     49                     50                     51
                      A                      A                      A
 Frequencies --   1029.2923              1040.4481              1051.6889
 Red. masses --      2.4450                 3.2035                 2.4223
 Frc consts  --      1.5262                 2.0432                 1.5785
 IR Inten    --      5.8911                65.0421                 2.4686

                     52                     53                     54
                      A                      A                      A
 Frequencies --   1066.3700              1080.0535              1086.4555
 Red. masses --      2.8317                 3.4969                 2.0107
 Frc consts  --      1.8972                 2.4034                 1.3984
 IR Inten    --     26.4367                 5.8613                16.9543

                     55                     56                     57
                      A                      A                      A
 Frequencies --   1102.4434              1141.9141              1160.8540
 Red. masses --      2.1920                 2.2928                 2.0563
 Frc consts  --      1.5696                 1.7615                 1.6326
 IR Inten    --     18.9946                49.3830                 9.7887

                     58                     59                     60
                      A                      A                      A
 Frequencies --   1177.0039              1189.0878              1199.6306
 Red. masses --      1.3037                 1.6295                 2.0213
 Frc consts  --      1.0641                 1.3574                 1.7139
 IR Inten    --      1.4620                 0.4815               137.2242

                     61                     62                     63
                      A                      A                      A
 Frequencies --   1201.3109              1216.2173              1246.7086
 Red. masses --      1.7195                 1.4255                 1.4499
 Frc consts  --      1.4621                 1.2424                 1.3277
 IR Inten    --     43.1030                61.8829                 6.7077

                     64                     65                     66
                      A                      A                      A
 Frequencies --   1257.9561              1279.6233              1293.5800
 Red. masses --      1.5262                 1.2900                 1.6039
 Frc consts  --      1.4230                 1.2445                 1.5813
 IR Inten    --     38.6089                 1.5286                 4.9358

                     67                     68                     69
                      A                      A                      A
 Frequencies --   1298.7446              1310.0710              1320.3072
 Red. masses --      1.6738                 1.2554                 1.2640
 Frc consts  --      1.6634                 1.2695                 1.2982
 IR Inten    --     27.1756                 0.9832                 1.9667

                     70                     71                     72
                      A                      A                      A
 Frequencies --   1329.0457              1339.7107              1350.7289
 Red. masses --      1.3087                 1.4095                 1.2601
 Frc consts  --      1.3620                 1.4905                 1.3546
 IR Inten    --     31.5377                40.1811                 4.4378

                     73                     74                     75
                      A                      A                      A
 Frequencies --   1355.1206              1363.4479              1370.5030
 Red. masses --      1.5111                 1.2682                 1.3112
 Frc consts  --      1.6350                 1.3891                 1.4511
 IR Inten    --     18.0451                 4.2775                 2.6314

                     76                     77                     78
                      A                      A                      A
 Frequencies --   1387.6500              1389.1596              1396.0234
 Red. masses --      1.2955                 1.5294                 1.8714
 Frc consts  --      1.4698                 1.7389                 2.1489
 IR Inten    --      3.2574                10.0705                14.4640

                     79                     80                     81
                      A                      A                      A
 Frequencies --   1418.7420              1422.8837              1443.5858
 Red. masses --      1.6186                 1.3928                 1.2445
 Frc consts  --      1.9195                 1.6614                 1.5280
 IR Inten    --      3.2345                16.8127                 2.4881

                     82                     83                     84
                      A                      A                      A
 Frequencies --   1468.0833              1471.8030              1479.6443
 Red. masses --      1.1412                 2.3424                 1.1001
 Frc consts  --      1.4491                 2.9896                 1.4190
 IR Inten    --     12.3409               170.0494                10.9916

                     85                     86                     87
                      A                      A                      A
 Frequencies --   1508.5674              1516.8247              1522.6217
 Red. masses --      1.0763                 1.0699                 1.1242
 Frc consts  --      1.4432                 1.4503                 1.5356
 IR Inten    --      5.1016                 2.7565                13.4821

                     88                     89                     90
                      A                      A                      A
 Frequencies --   1528.6627              1532.9438              1537.6218
 Red. masses --      1.0810                 1.0621                 1.0647
 Frc consts  --      1.4883                 1.4705                 1.4831
 IR Inten    --      6.4981                 4.6580                 4.4075

                     91                     92                     93
                      A                      A                      A
 Frequencies --   1546.1640              1753.6000              1839.6426
 Red. masses --      1.0903                 9.6940                10.1227
 Frc consts  --      1.5358                17.5636                20.1844
 IR Inten    --      1.9270               273.3089               242.0493

                     94                     95                     96
                      A                      A                      A
 Frequencies --   3007.4926              3022.7601              3038.5921
 Red. masses --      1.0814                 1.0639                 1.0829
 Frc consts  --      5.7629                 5.7273                 5.8912
 IR Inten    --      7.7496                29.2522                 5.7905

                     97                     98                     99
                      A                      A                      A
 Frequencies --   3047.9850              3057.8427              3060.1455
 Red. masses --      1.0365                 1.0773                 1.0886
 Frc consts  --      5.6733                 5.9350                 6.0065
 IR Inten    --     28.2150                 6.3482                33.8717

                    100                    101                    102
                      A                      A                      A
 Frequencies --   3062.4874              3065.0773              3068.1196
 Red. masses --      1.0733                 1.0699                 1.0645
 Frc consts  --      5.9311                 5.9220                 5.9040
 IR Inten    --     11.9733                12.0740                36.3445

                    103                    104                    105
                      A                      A                      A
 Frequencies --   3075.4077              3079.3259              3107.9123
 Red. masses --      1.0585                 1.0582                 1.0983
 Frc consts  --      5.8988                 5.9121                 6.2501
 IR Inten    --      4.9477                16.4562                10.5837

                    106                    107                    108
                      A                      A                      A
 Frequencies --   3112.8466              3118.6784              3125.1687
 Red. masses --      1.1018                 1.1013                 1.0964
 Frc consts  --      6.2903                 6.3112                 6.3088
 IR Inten    --     46.6975                38.9321                30.3292

                    109                    110                    111
                      A                      A                      A
 Frequencies --   3129.6510              3137.8017              3140.0679
 Red. masses --      1.0906                 1.1063                 1.1079
 Frc consts  --      6.2936                 6.4176                 6.4364
 IR Inten    --     29.6516                 6.2622                11.4342

                    112                    113                    114
                      A                      A                      A
 Frequencies --   3169.6639              3208.5658              3678.3405
 Red. masses --      1.0944                 1.0878                 1.0639
 Frc consts  --      6.4781                 6.5983                 8.4815
 IR Inten    --      8.3916                 5.1344                51.6777

 - Thermochemistry -
 -------------------
 Temperature   298.150 Kelvin.  Pressure   1.00000 Atm.
 Atom     1 has atomic number  6 and mass  12.00000

 Molecular mass:   287.11913 amu.
 Principal axes and moments of inertia in atomic units:
                           1         2         3
     Eigenvalues --  3786.341418026.865228824.48723
           X            0.99935   0.03511  -0.00811
           Y           -0.03498   0.99927   0.01557
           Z            0.00865  -0.01528   0.99985
 This molecule is an asymmetric top.
 Rotational symmetry number  1.
 Warning -- assumption of classical behavior for rotation
           may cause significant error
 Rotational temperatures (Kelvin)      0.02288     0.01079     0.00982
 Rotational constants (GHZ):           0.47665     0.22484     0.20452
 Zero-point vibrational energy     894778.4 (Joules/Mol)
                                  213.85718 (Kcal/Mol)
 Warning -- explicit consideration of  30 degrees of freedom as
           vibrations may cause significant error
 Vibrational temperatures:     35.73    49.56    65.64    78.15   128.06
          (Kelvin)            130.76   143.99   178.23   193.14   214.75
                              257.90   325.45   340.84   366.84   408.84
                              412.12   452.88   489.82   544.02   558.67
                              587.56   605.20   649.22   660.79   676.15
                              710.57   820.66   853.66   865.83   878.28
                              909.52   940.83   966.79   997.67  1045.97
                             1109.41  1140.10  1184.46  1219.86  1255.74
                             1304.81  1363.43  1372.95  1391.85  1405.69
                             1416.97  1441.49  1464.40  1480.92  1496.97
                             1513.15  1534.27  1553.96  1563.17  1586.17
                             1642.96  1670.21  1693.45  1710.83  1726.00
                             1728.42  1749.87  1793.74  1809.92  1841.09
                             1861.17  1868.60  1884.90  1899.63  1912.20
                             1927.54  1943.40  1949.72  1961.70  1971.85
                             1996.52  1998.69  2008.57  2041.25  2047.21
                             2077.00  2112.24  2117.60  2128.88  2170.49
                             2182.37  2190.71  2199.40  2205.56  2212.29
                             2224.59  2523.04  2646.84  4327.11  4349.08
                             4371.86  4385.37  4399.55  4402.87  4406.24
                             4409.96  4414.34  4424.83  4430.46  4471.59
                             4478.69  4487.08  4496.42  4502.87  4514.60
                             4517.86  4560.44  4616.41  5292.31

 Zero-point correction=                           0.340803 (Hartree/Particle)
 Thermal correction to Energy=                    0.359828
 Thermal correction to Enthalpy=                  0.360772
 Thermal correction to Gibbs Free Energy=         0.292117
 Sum of electronic and zero-point Energies=          -1261.587488
 Sum of electronic and thermal Energies=             -1261.568464
 Sum of electronic and thermal Enthalpies=           -1261.567520
 Sum of electronic and thermal Free Energies=        -1261.636175

                     E (Thermal)             CV                S
                      KCal/Mol        Cal/Mol-Kelvin    Cal/Mol-Kelvin
 Total                  225.795             72.401            144.497
 Electronic               0.000              0.000              0.000
 Translational            0.889              2.981             42.862
 Rotational               0.889              2.981             33.950
 Vibrational            224.018             66.440             67.685
 Vibration     1          0.593              1.985              6.205
 Vibration     2          0.594              1.983              5.555
 Vibration     3          0.595              1.979              4.999
 Vibration     4          0.596              1.976              4.654
 Vibration     5          0.602              1.957              3.682
 Vibration     6          0.602              1.956              3.641
 Vibration     7          0.604              1.949              3.453
 Vibration     8          0.610              1.929              3.039
 Vibration     9          0.613              1.919              2.884
 Vibration    10          0.618              1.903              2.682
 Vibration    11          0.629              1.868              2.336
 Vibration    12          0.650              1.801              1.909
 Vibration    13          0.656              1.784              1.826
 Vibration    14          0.665              1.754              1.696
 Vibration    15          0.683              1.703              1.509
 Vibration    16          0.684              1.699              1.495
 Vibration    17          0.702              1.645              1.337
 Vibration    18          0.720              1.595              1.210
 Vibration    19          0.748              1.517              1.047
 Vibration    20          0.756              1.495              1.007
 Vibration    21          0.773              1.452              0.932
 Vibration    22          0.783              1.425              0.890
 Vibration    23          0.810              1.358              0.792
 Vibration    24          0.817              1.340              0.768
 Vibration    25          0.827              1.317              0.738
 Vibration    26          0.850              1.264              0.674
 Vibration    27          0.926              1.095              0.503
 Vibration    28          0.951              1.046              0.461
 Vibration    29          0.960              1.028              0.447
 Vibration    30          0.969              1.010              0.432

 Optimization completed.
    -- Stationary point found.
 Normal termination of Gaussian 16 at Sat Dec 12 10:57:00 2020.

 ----------------------------------------------------------------------
 # B3LYP/6-311++G(d,p) empiricaldispersion=gd3bj scf=xqc pop=npa geom=c
 heck
 ----------------------------------------------------------------------

 ---------------------------------------
 CID_114511696_JID_9986_Energie_neutraal
 ---------------------------------------
 Structure from the checkpoint file:  "JID_9986.chk"
 Charge =  0 Multiplicity = 1

 SCF Done:  E(RB3LYP) =  -1262.21170271     A.U. after   15 cycles
 Normal termination of Gaussian 16 at Sat Dec 12 11:07:28 2020.

 ----------------------------------------------------------------------
 # B3LYP/6-311++G(d,p) empiricaldispersion=gd3bj scf=xqc pop=npa geom=c
 heck
 ----------------------------------------------------------------------

 -------------------------------------
 CID_114511696_JID_9986_Energie_kation
 -------------------------------------
 Structure from the checkpoint file:  "JID_9986.chk"
 Charge =  1 Multiplicity = 2

 SCF Done:  E(UB3LYP) =  -1261.90757632     A.U. after   32 cycles
 Normal termination of Gaussian 16 at Sat Dec 12 11:39:22 2020.
 Gaussian 16:  ES64L-G16RevA.03 25-Dec-2016

 ----------------------------------------------------------------------
 # B3LYP/6-311++G(d,p) empiricaldispersion=gd3bj scf=xqc pop=npa geom=c
 heck
 ----------------------------------------------------------------------

 ------------------------------------
 CID_114511696_JID_9986_Energie_anion
 ------------------------------------
 Structure from the checkpoint file:  "JID_9986.chk"
 Charge = -1 Multiplicity = 2

                         Standard orientation:
 ---------------------------------------------------------------------
 Center     Atomic      Atomic             Coordinates (Angstroms)
 Number     Number       Type             X           Y           Z
 ---------------------------------------------------------------------
      1          6           0        4.754590    2.240790   -0.391048
      2          6           0        3.433115    2.121027    0.372936
      3          6           0        2.997729    0.676752    0.628639
      4          6           0        1.686397    0.555295    1.424063
      5          6           0        1.208138   -0.902521    1.205654
      6          6           0        1.895667   -1.355567   -0.137471
      7          6           0        2.707018   -0.142122   -0.640289
      8          6           0        0.993990   -2.032598   -1.147170
      9          8           0        0.069124   -2.766948   -0.879929
     10          8           0        1.363454   -1.770441   -2.426556
     11          6           0       -0.296581   -1.115683    1.423613
     12          8           0       -0.655632   -1.799509    2.376381
     13          7           0       -1.215890   -0.463547    0.630847
     14          6           0       -2.633448   -0.737796    0.857291
     15          6           0       -3.424752    0.549056    1.056241
     16         16           0       -3.384716    1.599514   -0.468754
     17          8           0       -3.796219    0.701179   -1.619882
     18          6           0       -1.535929    1.684292   -0.531721
     19          6           0       -0.937303    0.280000   -0.587369
     20          1           0        5.565016    1.729743    0.142725
     21          1           0        5.046346    3.289123   -0.515543
     22          1           0        4.682015    1.795593   -1.389574
     23          1           0        3.519117    2.642289    1.335802
     24          1           0        2.636347    2.635310   -0.184508
     25          1           0        3.792552    0.165843    1.193730
     26          1           0        1.810730    0.778027    2.488135
     27          1           0        0.958466    1.276793    1.034798
     28          1           0        1.627480   -1.517629    2.001898
     29          1           0        2.607191   -2.146657    0.134284
     30          1           0        2.116135    0.461123   -1.340914
     31          1           0        3.606311   -0.450488   -1.179050
     32          1           0        0.754045   -2.284782   -2.989716
     33          1           0       -3.041686   -1.279679   -0.004695
     34          1           0       -2.703217   -1.373276    1.739467
     35          1           0       -3.037595    1.150045    1.886158
     36          1           0       -4.483472    0.335053    1.230016
     37          1           0       -1.190299    2.247974    0.341407
     38          1           0       -1.302842    2.244468   -1.442094
     39          1           0        0.133173    0.361281   -0.750139
     40          1           0       -1.366748   -0.247338   -1.448385
 ---------------------------------------------------------------------

 SCF Done:  E(UB3LYP) =  -1262.20559404     A.U. after   33 cycles
 SCF Done:  E(UB3LYP) =  -1262.20559404     a.u. after    1 cycles

 The electronic state is 2-A.
 Alpha  occ. eigenvalues --  -88.86821 -19.08575 -19.02827 -19.00390 -18.99639
 Alpha  occ. eigenvalues --  -14.25752 -10.21979 -10.18476 -10.13436 -10.12674
 Alpha  occ. eigenvalues --  -10.12546 -10.12434 -10.10930 -10.10060 -10.08502
 Alpha  occ. eigenvalues --  -10.08420 -10.08076 -10.07599 -10.06807  -7.94559
 Alpha  occ. eigenvalues --   -5.90823  -5.90679  -5.90163  -1.02577  -0.95175
 Alpha  occ. eigenvalues --   -0.93563  -0.93414  -0.85839  -0.76985  -0.72242
 Alpha  occ. eigenvalues --   -0.70570  -0.69281  -0.65577  -0.63025  -0.60205
 Alpha  occ. eigenvalues --   -0.57698  -0.56095  -0.53111  -0.52562  -0.49621
 Alpha  occ. eigenvalues --   -0.47670  -0.46633  -0.42644  -0.41937  -0.40725
 Alpha  occ. eigenvalues --   -0.40291  -0.39324  -0.38895  -0.37963  -0.37640
 Alpha  occ. eigenvalues --   -0.36424  -0.35516  -0.34744  -0.34381  -0.33682
 Alpha  occ. eigenvalues --   -0.33152  -0.32117  -0.31904  -0.30954  -0.30187
 Alpha  occ. eigenvalues --   -0.29629  -0.29185  -0.28506  -0.27921  -0.27730
 Alpha  occ. eigenvalues --   -0.26909  -0.25527  -0.24675  -0.24162  -0.23800
 Alpha  occ. eigenvalues --   -0.23354  -0.23213  -0.19418  -0.19140  -0.17347
 Alpha  occ. eigenvalues --   -0.16420  -0.15045   0.03656
 Alpha virt. eigenvalues --    0.05503   0.06046   0.06199   0.07205   0.07586
 Alpha virt. eigenvalues --    0.08104   0.08387   0.09247   0.09508   0.09596
 Alpha virt. eigenvalues --    0.09775   0.10066   0.10576   0.10826   0.11393

  Beta  occ. eigenvalues --  -88.86819 -19.08543 -19.02810 -19.00387 -18.99635
  Beta  occ. eigenvalues --  -14.25754 -10.21947 -10.18469 -10.13422 -10.12661
  Beta  occ. eigenvalues --  -10.12545 -10.12407 -10.10915 -10.10056 -10.08487
  Beta  occ. eigenvalues --  -10.08407 -10.08048 -10.07576 -10.06778  -7.94558
  Beta  occ. eigenvalues --   -5.90822  -5.90679  -5.90159  -1.02518  -0.95166
  Beta  occ. eigenvalues --   -0.93518  -0.93407  -0.85833  -0.76953  -0.72220
  Beta  occ. eigenvalues --   -0.70543  -0.69237  -0.65532  -0.62981  -0.60180
  Beta  occ. eigenvalues --   -0.57661  -0.56022  -0.53052  -0.52511  -0.49566
  Beta  occ. eigenvalues --   -0.47603  -0.46596  -0.42601  -0.41881  -0.40695
  Beta  occ. eigenvalues --   -0.40254  -0.39305  -0.38856  -0.37947  -0.37581
  Beta  occ. eigenvalues --   -0.36399  -0.35498  -0.34680  -0.34351  -0.33648
  Beta  occ. eigenvalues --   -0.33113  -0.32088  -0.31867  -0.30926  -0.30161
  Beta  occ. eigenvalues --   -0.29604  -0.29152  -0.28480  -0.27884  -0.27711
  Beta  occ. eigenvalues --   -0.26866  -0.25485  -0.24630  -0.24118  -0.23757
  Beta  occ. eigenvalues --   -0.23306  -0.23161  -0.19377  -0.19129  -0.17339
  Beta  occ. eigenvalues --   -0.16415  -0.15033
  Beta virt. eigenvalues --    0.05825   0.06268   0.06631   0.06719   0.07545
  Beta virt. eigenvalues --    0.08046   0.08420   0.08790   0.09279   0.09682
  Beta virt. eigenvalues --    0.09868   0.09990   0.10392   0.10724   0.11099

 Mulliken charges and spin densities:
               1          2
     1  C    0.704352  -1.382955
     2  C   -0.612409   0.326296
     3  C    0.215747   0.031992
     4  C    0.122632  -0.573559
     5  C   -0.174374   0.039172
     6  C    1.279057  -0.979036
     7  C    0.389782  -1.098275
     8  C   -0.520446   0.089647
     9  O   -0.181817   0.012938
    10  O   -0.047116   0.007939
    11  C   -0.812396   0.642158
    12  O   -0.293148  -0.000947
    13  N    0.352061  -0.035447
    14  C   -0.372794   0.309849
    15  C   -0.365075  -0.460090
    16  S    0.793060  -0.033318
    17  O   -0.430906   0.027158
    18  C   -0.132996  -0.789925
    19  C   -0.913368   0.665605
    20  H   -0.092480   0.227371
    21  H   -0.261121   0.408581
    22  H   -0.077123   0.224418
    23  H   -0.171274   0.319931
    24  H   -0.182907   0.308458
    25  H   -0.095874   0.285887
    26  H   -0.133572   0.330967
    27  H    0.181783  -0.019376
    28  H    0.191513   0.088167
    29  H   -0.349673   0.608577
    30  H   -0.317836   0.617445
    31  H   -0.002660   0.216784
    32  H   -0.076981   0.380696
    33  H    0.196130   0.003576
    34  H    0.140841   0.075072
    35  H   -0.051108   0.249690
    36  H    0.239445   0.013374
    37  H   -0.197671   0.375860
    38  H   -0.225350   0.522447
    39  H    1.080023  -1.099318
    40  H    0.206049   0.062190
 Sum of Mulliken charges =  -1.00000   1.00000

 Dipole moment (field-independent basis, Debye):
    X=             -4.5441    Y=             -0.1234    Z=              1.3964  Tot=              4.7554
 Quadrupole moment (field-independent basis, Debye-Ang):
   XX=           -198.5884   YY=           -178.3041   ZZ=           -170.6771
   XY=             -8.2247   XZ=             -7.1748   YZ=              4.2342

 Summary of Natural Population Analysis:

                                       Natural Population
                Natural  -----------------------------------------------
    Atom  No    Charge         Core      Valence    Rydberg      Total
 -----------------------------------------------------------------------
      C    1   -0.28286      0.99967     2.27890    0.00429     3.28286
      C    2   -0.18545      0.99962     2.17734    0.00850     3.18545
      C    3   -0.10826      0.99959     2.09821    0.01047     3.10826
      C    4   -0.18314      0.99960     2.17492    0.00862     3.18314
      C    5   -0.14235      0.99954     2.13079    0.01202     3.14235
      C    6   -0.15535      0.99953     2.14415    0.01167     3.15535
      C    7   -0.18988      0.99961     2.18016    0.01011     3.18988
      C    8    0.41305      0.99966     1.56192    0.02537     2.58695
      O    9   -0.30483      0.99987     3.29910    0.00586     4.30483
      O   10   -0.34316      0.99988     3.33676    0.00652     4.34316
      C   11    0.36332      0.99960     1.61404    0.02304     2.63668
      O   12   -0.32362      0.99988     3.31878    0.00496     4.32362
      N   13   -0.26193      0.99962     2.75118    0.01113     3.76193
      C   14   -0.09987      0.99960     2.09036    0.00991     3.09987
      C   15   -0.27777      0.99959     2.26759    0.01059     3.27777
      S   16    0.57738      4.99946     2.36787    0.05528     7.42262
      O   17   -0.48407      0.99993     3.47834    0.00580     4.48407
      C   18   -0.27648      0.99959     2.26463    0.01227     3.27648
      C   19   -0.10307      0.99958     2.09190    0.01158     3.10307
      H   20    0.09596      0.00000     0.40282    0.00122     0.40404
      H   21    0.09902      0.00000     0.39997    0.00101     0.40098
      H   22    0.09756      0.00000     0.40122    0.00122     0.40244
      H   23    0.09728      0.00000     0.40145    0.00127     0.40272
      H   24    0.09423      0.00000     0.40402    0.00175     0.40577
      H   25    0.09566      0.00000     0.40257    0.00177     0.40434
      H   26    0.10640      0.00000     0.39254    0.00106     0.39360
      H   27    0.09440      0.00000     0.40319    0.00240     0.40560
      H   28    0.11703      0.00000     0.38170    0.00127     0.38297
      H   29    0.12473      0.00000     0.37355    0.00171     0.37527
      H   30    0.09937      0.00000     0.39844    0.00220     0.40063
      H   31    0.11115      0.00000     0.38751    0.00134     0.38885
      H   32    0.24176      0.00000     0.25372    0.00452     0.25824
      H   33    0.10599      0.00000     0.39290    0.00111     0.39401
      H   34    0.12403      0.00000     0.37467    0.00129     0.37597
      H   35    0.10947      0.00000     0.38858    0.00195     0.39053
      H   36    0.10945      0.00000     0.38960    0.00095     0.39055
      H   37    0.10879      0.00000     0.38807    0.00313     0.39121
      H   38    0.11468      0.00000     0.38368    0.00164     0.38532
      H   39    0.11120      0.00000     0.38573    0.00307     0.38880
      H   40    0.11017      0.00000     0.38854    0.00130     0.38983
 =======================================================================
   * Total *    0.00000     22.99341    53.72142    0.28517    77.00000

 Normal termination of Gaussian 16 at Sat Dec 12 12:11:13 2020.
