 Gaussian 16, Revision A.03,

 -----------------------------------------------------------
 # opt freq B3LYP/6-31G(d) empiricaldispersion=gd3bj scf=xqc
 -----------------------------------------------------------

 -------------------------------
 CID_114695021_JID_7118_neutraal
 -------------------------------
 Symbolic Z-matrix:
 Charge =  0 Multiplicity = 1

 SCF Done:  E(RB3LYP) =  -763.608999989     A.U. after   15 cycles
 SCF Done:  E(RB3LYP) =  -763.591629166     A.U. after   14 cycles
 SCF Done:  E(RB3LYP) =  -763.612551246     A.U. after   12 cycles
 SCF Done:  E(RB3LYP) =  -763.613411081     A.U. after   13 cycles
 SCF Done:  E(RB3LYP) =  -763.614112938     A.U. after   12 cycles
 SCF Done:  E(RB3LYP) =  -763.614266597     A.U. after   10 cycles
 SCF Done:  E(RB3LYP) =  -763.614400622     A.U. after   12 cycles
 SCF Done:  E(RB3LYP) =  -763.614477263     A.U. after   12 cycles
 SCF Done:  E(RB3LYP) =  -763.614525257     A.U. after   11 cycles
 SCF Done:  E(RB3LYP) =  -763.614620920     A.U. after   11 cycles
 SCF Done:  E(RB3LYP) =  -763.614642213     A.U. after    8 cycles
 SCF Done:  E(RB3LYP) =  -763.614642253     A.U. after    7 cycles
 SCF Done:  E(RB3LYP) =  -763.614642276     A.U. after    7 cycles
 SCF Done:  E(RB3LYP) =  -763.614642285     A.U. after    7 cycles
 Optimization completed.
    -- Stationary point found.
 Normal termination of Gaussian 16 at Sun Dec 13 12:40:00 2020.

 --------------------------------------------------------------------
 #N Geom=AllCheck Guess=TCheck SCRF=Check GenChk RB3LYP/6-31G(d) Freq
 --------------------------------------------------------------------

 Structure from the checkpoint file:  "JID_7118.chk"
 -------------------------------
 CID_114695021_JID_7118_neutraal
 -------------------------------
 Charge =  0 Multiplicity = 1

 SCF Done:  E(RB3LYP) =  -763.614642285     A.U. after    1 cycles

  Exact polarizability: 145.197 -12.098 152.625   1.966  -0.963 130.157
 Approx polarizability: 187.853 -25.817 229.846   5.242 -10.674 225.490

                      1                      2                      3
                      A                      A                      A
 Frequencies --     25.5660                42.8478                64.8889
 Red. masses --      3.8965                 4.4808                 6.3264
 Frc consts  --      0.0015                 0.0048                 0.0157
 IR Inten    --      0.4709                 0.3574                 4.1237

                      4                      5                      6
                      A                      A                      A
 Frequencies --     68.5328                75.9262                91.6311
 Red. masses --      4.2231                 5.0034                 4.0960
 Frc consts  --      0.0117                 0.0170                 0.0203
 IR Inten    --      2.2533                 3.8233                 0.7989

                      7                      8                      9
                      A                      A                      A
 Frequencies --    121.4801               178.6266               197.9775
 Red. masses --      3.9173                 2.8797                 3.2611
 Frc consts  --      0.0341                 0.0541                 0.0753
 IR Inten    --      1.0829                 1.0474                 0.0516

                     10                     11                     12
                      A                      A                      A
 Frequencies --    206.8369               229.0514               269.5257
 Red. masses --      1.7874                 1.6966                 2.8900
 Frc consts  --      0.0451                 0.0524                 0.1237
 IR Inten    --      3.7275                 0.4743                 3.4234

                     13                     14                     15
                      A                      A                      A
 Frequencies --    301.0465               356.1828               376.7454
 Red. masses --      2.4678                 2.9953                 2.1819
 Frc consts  --      0.1318                 0.2239                 0.1825
 IR Inten    --      0.3636                 5.3587                 5.6760

                     16                     17                     18
                      A                      A                      A
 Frequencies --    395.5583               410.8896               458.4566
 Red. masses --      2.3847                 2.8854                 2.6634
 Frc consts  --      0.2198                 0.2870                 0.3298
 IR Inten    --      4.4809                 0.9253                 2.5641

                     19                     20                     21
                      A                      A                      A
 Frequencies --    503.5350               511.2280               531.3523
 Red. masses --      2.2426                 3.9651                 2.6943
 Frc consts  --      0.3350                 0.6106                 0.4482
 IR Inten    --      7.9794                 4.3812                 7.2655

                     22                     23                     24
                      A                      A                      A
 Frequencies --    564.0009               610.5373               634.2276
 Red. masses --      1.5482                 2.2515                 3.3702
 Frc consts  --      0.2902                 0.4945                 0.7987
 IR Inten    --     60.6654                33.5346                18.5278

                     25                     26                     27
                      A                      A                      A
 Frequencies --    672.3368               677.2210               688.5053
 Red. masses --      4.1615                 3.4041                 2.6872
 Frc consts  --      1.1083                 0.9198                 0.7505
 IR Inten    --      3.7316                 6.1431                 4.1589

                     28                     29                     30
                      A                      A                      A
 Frequencies --    724.7415               750.4979               762.3561
 Red. masses --      2.5705                 1.7234                 1.1998
 Frc consts  --      0.7955                 0.5719                 0.4108
 IR Inten    --     30.9327               100.9245                58.2473

                     31                     32                     33
                      A                      A                      A
 Frequencies --    802.8554               813.3328               836.3993
 Red. masses --      3.1005                 2.7511                 1.2791
 Frc consts  --      1.1775                 1.0723                 0.5272
 IR Inten    --      2.5796                 5.4021                 1.1316

                     34                     35                     36
                      A                      A                      A
 Frequencies --    859.5793               871.3375               882.2671
 Red. masses --      1.9317                 2.1854                 1.2954
 Frc consts  --      0.8409                 0.9776                 0.5941
 IR Inten    --      4.9053                 5.6244                 6.0255

                     37                     38                     39
                      A                      A                      A
 Frequencies --    895.2438               945.4084               949.3109
 Red. masses --      1.8657                 6.0235                 2.5659
 Frc consts  --      0.8810                 3.1720                 1.3624
 IR Inten    --     21.7686                 3.0563                12.5756

                     40                     41                     42
                      A                      A                      A
 Frequencies --    962.2554               986.2409               988.8247
 Red. masses --      2.0673                 1.9692                 1.8093
 Frc consts  --      1.1278                 1.1285                 1.0423
 IR Inten    --      5.5071                 0.9707                 0.1633

                     43                     44                     45
                      A                      A                      A
 Frequencies --   1003.0318              1036.8736              1053.5890
 Red. masses --      2.2692                 1.8060                 1.9833
 Frc consts  --      1.3451                 1.1440                 1.2971
 IR Inten    --      6.2358                 0.4913                 1.8865

                     46                     47                     48
                      A                      A                      A
 Frequencies --   1069.3184              1079.5544              1084.1480
 Red. masses --      2.1696                 1.6572                 1.8129
 Frc consts  --      1.4616                 1.1379                 1.2555
 IR Inten    --      9.8725                 3.1177                19.6069

                     49                     50                     51
                      A                      A                      A
 Frequencies --   1090.2036              1114.3810              1119.3995
 Red. masses --      1.8060                 1.9785                 1.8532
 Frc consts  --      1.2647                 1.4476                 1.3682
 IR Inten    --      3.5136                11.2851                15.6336

                     52                     53                     54
                      A                      A                      A
 Frequencies --   1172.0244              1183.6254              1197.1648
 Red. masses --      1.3803                 2.2475                 2.5382
 Frc consts  --      1.1171                 1.8552                 2.1433
 IR Inten    --     22.8716                21.4587                17.7869

                     55                     56                     57
                      A                      A                      A
 Frequencies --   1220.2056              1233.3657              1240.0604
 Red. masses --      1.3538                 1.4392                 1.5377
 Frc consts  --      1.1876                 1.2899                 1.3932
 IR Inten    --      6.1213                32.0629                 8.7168

                     58                     59                     60
                      A                      A                      A
 Frequencies --   1261.4582              1315.4315              1318.9193
 Red. masses --      1.5695                 1.2701                 2.3700
 Frc consts  --      1.4715                 1.2949                 2.4291
 IR Inten    --      8.7313                 1.3162                34.6001

                     61                     62                     63
                      A                      A                      A
 Frequencies --   1338.1956              1345.2882              1349.4986
 Red. masses --      1.4999                 1.6408                 1.4369
 Frc consts  --      1.5826                 1.7495                 1.5418
 IR Inten    --      7.1970                 8.9970                 4.8775

                     64                     65                     66
                      A                      A                      A
 Frequencies --   1374.5135              1381.9860              1393.1091
 Red. masses --      1.3292                 1.8994                 1.3897
 Frc consts  --      1.4795                 2.1373                 1.5890
 IR Inten    --      1.4982                19.3886                 6.2405

                     67                     68                     69
                      A                      A                      A
 Frequencies --   1401.0796              1403.0101              1405.6662
 Red. masses --      1.3668                 1.4888                 1.3996
 Frc consts  --      1.5808                 1.7266                 1.6294
 IR Inten    --      0.2519                 8.3400                 8.1741

                     70                     71                     72
                      A                      A                      A
 Frequencies --   1427.1116              1433.4164              1439.2064
 Red. masses --      1.4148                 1.3312                 1.9400
 Frc consts  --      1.6977                 1.6115                 2.3675
 IR Inten    --      9.8356                18.0250                68.1684

                     73                     74                     75
                      A                      A                      A
 Frequencies --   1443.7647              1488.7543              1494.1817
 Red. masses --      3.8530                 1.6518                 2.9657
 Frc consts  --      4.7319                 2.1571                 3.9011
 IR Inten    --     40.3867                52.7896                30.2499

                     76                     77                     78
                      A                      A                      A
 Frequencies --   1505.6940              1508.6734              1511.8149
 Red. masses --      1.2241                 1.1482                 1.0948
 Frc consts  --      1.6351                 1.5398                 1.4743
 IR Inten    --      4.2198                 9.5848                 2.3992

                     79                     80                     81
                      A                      A                      A
 Frequencies --   1516.0348              1521.0783              1523.7269
 Red. masses --      1.0965                 1.2012                 1.1069
 Frc consts  --      1.4848                 1.6374                 1.5141
 IR Inten    --      2.3204                34.5629                 4.1030

                     82                     83                     84
                      A                      A                      A
 Frequencies --   1534.0413              1537.9384              1567.6181
 Red. masses --      1.0725                 1.0610                 3.8359
 Frc consts  --      1.4870                 1.4785                 5.5539
 IR Inten    --     10.1326                 0.1843                18.7405

                     85                     86                     87
                      A                      A                      A
 Frequencies --   1772.0519              3036.6295              3045.9191
 Red. masses --      7.7648                 1.0640                 1.0626
 Frc consts  --     14.3659                 5.7805                 5.8084
 IR Inten    --    403.7083                23.2360                14.1133

                     88                     89                     90
                      A                      A                      A
 Frequencies --   3047.4449              3067.1513              3069.7170
 Red. masses --      1.0620                 1.0502                 1.0724
 Frc consts  --      5.8112                 5.8208                 5.9540
 IR Inten    --     34.3847                10.2077                21.9344

                     91                     92                     93
                      A                      A                      A
 Frequencies --   3079.4092              3087.1285              3090.9604
 Red. masses --      1.0960                 1.1019                 1.0630
 Frc consts  --      6.1237                 6.1875                 5.9836
 IR Inten    --     41.7703                55.5890                 8.6674

                     94                     95                     96
                      A                      A                      A
 Frequencies --   3096.3500              3104.6855              3120.1122
 Red. masses --      1.1039                 1.0589                 1.0871
 Frc consts  --      6.2357                 6.0137                 6.2352
 IR Inten    --     49.0446                20.8700                 4.2455

                     97                     98                     99
                      A                      A                      A
 Frequencies --   3134.9484              3145.5403              3147.1770
 Red. masses --      1.1007                 1.1034                 1.1020
 Frc consts  --      6.3737                 6.4327                 6.4309
 IR Inten    --     33.0930                23.6906                 6.0981

                    100                    101                    102
                      A                      A                      A
 Frequencies --   3162.7506              3254.5977              3274.5994
 Red. masses --      1.1074                 1.0933                 1.0930
 Frc consts  --      6.5266                 6.8230                 6.9052
 IR Inten    --      9.4354                 5.7744                 1.2799

                    103                    104                    105
                      A                      A                      A
 Frequencies --   3291.0440              3485.5325              3578.5801
 Red. masses --      1.1062                 1.0742                 1.0746
 Frc consts  --      7.0593                 7.6894                 8.1082
 IR Inten    --      1.0074                 4.7481                13.7527

 - Thermochemistry -
 -------------------
 Temperature   298.150 Kelvin.  Pressure   1.00000 Atm.
 Atom     1 has atomic number  6 and mass  12.00000

 Molecular mass:   236.16371 amu.
 Principal axes and moments of inertia in atomic units:
                           1         2         3
     Eigenvalues --  2560.749474819.838266090.85734
           X            0.99993  -0.01108   0.00468
           Y            0.01097   0.99964   0.02436
           Z           -0.00495  -0.02430   0.99969
 This molecule is an asymmetric top.
 Rotational symmetry number  1.
 Warning -- assumption of classical behavior for rotation
           may cause significant error
 Rotational temperatures (Kelvin)      0.03382     0.01797     0.01422
 Rotational constants (GHZ):           0.70477     0.37444     0.29630
 Zero-point vibrational energy     855484.6 (Joules/Mol)
                                  204.46572 (Kcal/Mol)
 Warning -- explicit consideration of  23 degrees of freedom as
           vibrations may cause significant error
 Vibrational temperatures:     36.78    61.65    93.36    98.60   109.24
          (Kelvin)            131.84   174.78   257.00   284.85   297.59
                              329.55   387.79   433.14   512.47   542.05
                              569.12   591.18   659.62   724.47   735.54
                              764.50   811.47   878.43   912.51   967.34
                              974.37   990.61  1042.74  1079.80  1096.86
                             1155.13  1170.20  1203.39  1236.74  1253.66
                             1269.39  1288.06  1360.23  1365.85  1384.47
                             1418.98  1422.70  1443.14  1491.83  1515.88
                             1538.51  1553.24  1559.85  1568.56  1603.35
                             1610.57  1686.28  1702.97  1722.45  1755.60
                             1774.54  1784.17  1814.96  1892.61  1897.63
                             1925.36  1935.57  1941.63  1977.62  1988.37
                             2004.37  2015.84  2018.62  2022.44  2053.30
                             2062.37  2070.70  2077.26  2141.99  2149.79
                             2166.36  2170.64  2175.16  2181.24  2188.49
                             2192.30  2207.14  2212.75  2255.45  2549.59
                             4369.03  4382.40  4384.59  4412.95  4416.64
                             4430.58  4441.69  4447.20  4454.96  4466.95
                             4489.15  4510.49  4525.73  4528.09  4550.49
                             4682.64  4711.42  4735.08  5014.90  5148.78

 Zero-point correction=                           0.325837 (Hartree/Particle)
 Thermal correction to Energy=                    0.341864
 Thermal correction to Enthalpy=                  0.342809
 Thermal correction to Gibbs Free Energy=         0.281146
 Sum of electronic and zero-point Energies=           -763.288805
 Sum of electronic and thermal Energies=              -763.272778
 Sum of electronic and thermal Enthalpies=            -763.271834
 Sum of electronic and thermal Free Energies=         -763.333496

                     E (Thermal)             CV                S
                      KCal/Mol        Cal/Mol-Kelvin    Cal/Mol-Kelvin
 Total                  214.523             62.067            129.780
 Electronic               0.000              0.000              0.000
 Translational            0.889              2.981             42.280
 Rotational               0.889              2.981             32.686
 Vibrational            212.746             56.106             54.815
 Vibration     1          0.593              1.985              6.147
 Vibration     2          0.595              1.980              5.123
 Vibration     3          0.597              1.971              4.303
 Vibration     4          0.598              1.969              4.195
 Vibration     5          0.599              1.965              3.994
 Vibration     6          0.602              1.955              3.625
 Vibration     7          0.609              1.931              3.077
 Vibration     8          0.629              1.869              2.343
 Vibration     9          0.637              1.843              2.152
 Vibration    10          0.641              1.830              2.071
 Vibration    11          0.652              1.797              1.886
 Vibration    12          0.674              1.729              1.599
 Vibration    13          0.693              1.672              1.411
 Vibration    14          0.732              1.563              1.139
 Vibration    15          0.747              1.520              1.052
 Vibration    16          0.762              1.480              0.979
 Vibration    17          0.775              1.447              0.923
 Vibration    18          0.816              1.342              0.771
 Vibration    19          0.859              1.242              0.649
 Vibration    20          0.866              1.225              0.631
 Vibration    21          0.886              1.181              0.584
 Vibration    22          0.920              1.109              0.516
 Vibration    23          0.970              1.010              0.432

                           ! Non-Optimized Parameters !
 Normal termination of Gaussian 16 at Sun Dec 13 12:56:13 2020.

 ----------------------------------------------------------------------
 # B3LYP/6-311++G(d,p) empiricaldispersion=gd3bj scf=xqc pop=npa geom=c
 heck
 ----------------------------------------------------------------------

 ---------------------------------------
 CID_114695021_JID_7118_Energie_neutraal
 ---------------------------------------
 Structure from the checkpoint file:  "JID_7118.chk"
 Charge =  0 Multiplicity = 1

 SCF Done:  E(RB3LYP) =  -763.831802061     A.U. after   16 cycles
 Normal termination of Gaussian 16 at Sun Dec 13 13:05:02 2020.

 ----------------------------------------------------------------------
 # B3LYP/6-311++G(d,p) empiricaldispersion=gd3bj scf=xqc pop=npa geom=c
 heck
 ----------------------------------------------------------------------

 -------------------------------------
 CID_114695021_JID_7118_Energie_kation
 -------------------------------------
 Structure from the checkpoint file:  "JID_7118.chk"
 Charge =  1 Multiplicity = 2

 SCF Done:  E(UB3LYP) =  -763.531237394     A.U. after   33 cycles
 SCF Done:  E(UB3LYP) =  -763.532636883     a.u. after   16 cycles
 Normal termination of Gaussian 16 at Sun Dec 13 18:58:49 2020.
 Gaussian 16:  ES64L-G16RevA.03 25-Dec-2016

 ----------------------------------------------------------------------
 # B3LYP/6-311++G(d,p) empiricaldispersion=gd3bj scf=xqc pop=npa geom=c
 heck
 ----------------------------------------------------------------------

 ------------------------------------
 CID_114695021_JID_7118_Energie_anion
 ------------------------------------
 Structure from the checkpoint file:  "JID_7118.chk"
 Charge = -1 Multiplicity = 2

                         Standard orientation:
 ---------------------------------------------------------------------
 Center     Atomic      Atomic             Coordinates (Angstroms)
 Number     Number       Type             X           Y           Z
 ---------------------------------------------------------------------
      1          6           0        1.695135   -2.331670    0.382258
      2          6           0        1.517293   -1.064399   -0.458736
      3          6           0        0.929225    0.098112    0.385001
      4          6           0        1.988794    0.683593    1.336823
      5          6           0        3.255442    1.082355    0.569131
      6          6           0        3.780017   -0.104714   -0.253416
      7          7           0        2.777000   -0.714691   -1.134678
      8          7           0        0.415822    1.125518   -0.527205
      9          6           0       -0.696205    1.901766   -0.415662
     10          8           0       -1.096102    2.594539   -1.349405
     11          6           0       -1.481327    1.854236    0.890600
     12          6           0       -2.819834    1.143349    0.644137
     13          7           0       -2.625487   -0.231492    0.212696
     14          6           0       -2.518411   -0.690577   -1.062831
     15          6           0       -2.185017   -2.030557   -0.977237
     16          6           0       -2.104433   -2.284833    0.410121
     17          7           0       -2.359876   -1.190453    1.131621
     18          1           0        2.094889   -3.132062   -0.246467
     19          1           0        0.731840   -2.648305    0.793326
     20          1           0        2.385565   -2.185607    1.218845
     21          1           0        0.786795   -1.291144   -1.243576
     22          1           0        0.086072   -0.298180    0.954006
     23          1           0        2.236916   -0.064971    2.100349
     24          1           0        1.565916    1.546457    1.864674
     25          1           0        4.029385    1.434866    1.262076
     26          1           0        3.024955    1.920757   -0.102457
     27          1           0        4.149511   -0.882608    0.426935
     28          1           0        4.631878    0.195776   -0.873143
     29          1           0        2.593068   -0.092802   -1.919721
     30          1           0        0.858259    1.208176   -1.435111
     31          1           0       -0.946799    1.365571    1.707175
     32          1           0       -1.684261    2.889572    1.181873
     33          1           0       -3.423409    1.120666    1.553683
     34          1           0       -3.369911    1.666716   -0.141002
     35          1           0       -2.672275   -0.031740   -1.905108
     36          1           0       -2.041658   -2.722955   -1.793659
     37          1           0       -1.884213   -3.216631    0.914370
 ---------------------------------------------------------------------

 SCF Done:  E(UB3LYP) =  -763.819342199     A.U. after   33 cycles
 SCF Done:  E(UB3LYP) =  -763.819342199     a.u. after    1 cycles

 The electronic state is 2-A.
 Alpha  occ. eigenvalues --  -18.99258 -14.30554 -14.24452 -14.24204 -14.20328
 Alpha  occ. eigenvalues --  -10.17999 -10.13430 -10.12231 -10.11669 -10.10880
 Alpha  occ. eigenvalues --  -10.10633 -10.09348 -10.09342 -10.08313 -10.07378
 Alpha  occ. eigenvalues --  -10.06773 -10.06486  -0.96786  -0.94375  -0.84239
 Alpha  occ. eigenvalues --   -0.80737  -0.76755  -0.70606  -0.68928  -0.67708
 Alpha  occ. eigenvalues --   -0.67031  -0.60538  -0.58479  -0.54614  -0.52413
 Alpha  occ. eigenvalues --   -0.52193  -0.49547  -0.47443  -0.46315  -0.44183
 Alpha  occ. eigenvalues --   -0.41786  -0.40653  -0.40305  -0.39701  -0.36424
 Alpha  occ. eigenvalues --   -0.35823  -0.35353  -0.34367  -0.33686  -0.33062
 Alpha  occ. eigenvalues --   -0.32757  -0.31858  -0.31341  -0.29917  -0.29730
 Alpha  occ. eigenvalues --   -0.29287  -0.28241  -0.27833  -0.27104  -0.26859
 Alpha  occ. eigenvalues --   -0.25311  -0.23259  -0.22652  -0.21364  -0.17541
 Alpha  occ. eigenvalues --   -0.17057  -0.16453  -0.16087  -0.12996   0.04155
 Alpha virt. eigenvalues --    0.06033   0.06347   0.06841   0.07951   0.08158
 Alpha virt. eigenvalues --    0.08626   0.08912   0.09181   0.09693   0.10244
 Alpha virt. eigenvalues --    0.10484   0.11121   0.11388   0.11689   0.12086

  Beta  occ. eigenvalues --  -18.99246 -14.30552 -14.24440 -14.24194 -14.20308
  Beta  occ. eigenvalues --  -10.17985 -10.13414 -10.12217 -10.11668 -10.10875
  Beta  occ. eigenvalues --  -10.10626 -10.09324 -10.09322 -10.08306 -10.07359
  Beta  occ. eigenvalues --  -10.06747 -10.06465  -0.96772  -0.94351  -0.84215
  Beta  occ. eigenvalues --   -0.80701  -0.76734  -0.70582  -0.68890  -0.67677
  Beta  occ. eigenvalues --   -0.67000  -0.60497  -0.58438  -0.54567  -0.52365
  Beta  occ. eigenvalues --   -0.52174  -0.49505  -0.47403  -0.46263  -0.44144
  Beta  occ. eigenvalues --   -0.41745  -0.40615  -0.40270  -0.39656  -0.36396
  Beta  occ. eigenvalues --   -0.35792  -0.35325  -0.34326  -0.33651  -0.33036
  Beta  occ. eigenvalues --   -0.32716  -0.31834  -0.31312  -0.29883  -0.29697
  Beta  occ. eigenvalues --   -0.29258  -0.28209  -0.27803  -0.27071  -0.26820
  Beta  occ. eigenvalues --   -0.25273  -0.23218  -0.22617  -0.21342  -0.17501
  Beta  occ. eigenvalues --   -0.17038  -0.16427  -0.16058  -0.12968
  Beta virt. eigenvalues --    0.06228   0.06887   0.07114   0.07398   0.08229
  Beta virt. eigenvalues --    0.08701   0.08954   0.09195   0.09424   0.09999
  Beta virt. eigenvalues --    0.10566   0.10921   0.11471   0.11639   0.11999

 Mulliken charges and spin densities:
               1          2
     1  C   -0.035533  -0.574647
     2  C   -0.233967  -0.527820
     3  C    0.062235  -0.172857
     4  C   -0.123298  -0.083424
     5  C   -0.147058  -0.118175
     6  C    0.814179  -1.207286
     7  N   -0.086557   0.112806
     8  N   -0.005968   0.086085
     9  C   -0.638313   0.333015
    10  O   -0.293156   0.002150
    11  C   -0.101982   0.198501
    12  C    0.741380  -1.242255
    13  N    0.249902   0.051167
    14  C    0.200508  -0.425677
    15  C   -0.317010   0.242612
    16  C    0.272826  -0.598988
    17  N   -0.350768   0.106923
    18  H   -0.044090   0.219564
    19  H    0.047755   0.058464
    20  H   -0.018986   0.164413
    21  H    0.475915  -0.201260
    22  H    0.487859  -0.252111
    23  H   -0.185540   0.346542
    24  H   -0.124978   0.269277
    25  H   -0.618405   0.800239
    26  H    0.186965  -0.021793
    27  H    0.149459   0.001659
    28  H   -0.577007   0.767941
    29  H   -0.148668   0.399995
    30  H    0.127718   0.162730
    31  H    0.165779   0.018011
    32  H   -0.457368   0.694612
    33  H   -0.305323   0.507267
    34  H    0.175067   0.034710
    35  H    0.058192   0.122236
    36  H   -0.365515   0.538099
    37  H   -0.036249   0.187276
 Sum of Mulliken charges =  -1.00000   1.00000

 Dipole moment (field-independent basis, Debye):
    X=             -3.6700    Y=             -2.6140    Z=             -0.1883  Tot=              4.5097
 Quadrupole moment (field-independent basis, Debye-Ang):
   XX=           -179.4590   YY=           -156.8977   ZZ=           -147.0409
   XY=              0.7807   XZ=              5.3557   YZ=             -2.8120

 Summary of Natural Population Analysis:

                                       Natural Population
                Natural  -----------------------------------------------
    Atom  No    Charge         Core      Valence    Rydberg      Total
 -----------------------------------------------------------------------
      C    1   -0.28970      0.99964     2.28416    0.00590     3.28970
      C    2   -0.01379      0.99957     2.00101    0.01321     3.01379
      C    3   -0.02411      0.99954     2.01128    0.01329     3.02411
      C    4   -0.19351      0.99960     2.18430    0.00960     3.19351
      C    5   -0.20075      0.99963     2.19287    0.00825     3.20075
      C    6   -0.08956      0.99962     2.07839    0.01156     3.08956
      N    7   -0.34133      0.99974     2.82815    0.01344     3.84133
      N    8   -0.31680      0.99965     2.80595    0.01121     3.81680
      C    9    0.34428      0.99966     1.63286    0.02320     2.65572
      O   10   -0.33263      0.99988     3.32726    0.00549     4.33263
      C   11   -0.23578      0.99958     2.22761    0.00860     3.23578
      C   12   -0.07854      0.99960     2.06703    0.01191     3.07854
      N   13   -0.11118      0.99966     2.59798    0.01354     3.61118
      C   14   -0.00328      0.99956     1.99340    0.01032     3.00328
      C   15   -0.16801      0.99957     2.15926    0.00918     3.16801
      C   16   -0.01672      0.99963     2.00316    0.01393     3.01672
      N   17   -0.15611      0.99973     2.64498    0.01139     3.65611
      H   18    0.10497      0.00000     0.39391    0.00113     0.39503
      H   19    0.10256      0.00000     0.39643    0.00101     0.39744
      H   20    0.09737      0.00000     0.40161    0.00102     0.40263
      H   21    0.10121      0.00000     0.39667    0.00212     0.39879
      H   22    0.10857      0.00000     0.38818    0.00324     0.39143
      H   23    0.09869      0.00000     0.40013    0.00118     0.40131
      H   24    0.10222      0.00000     0.39649    0.00129     0.39778
      H   25    0.10251      0.00000     0.39595    0.00154     0.39749
      H   26    0.09539      0.00000     0.40293    0.00168     0.40461
      H   27    0.08869      0.00000     0.40995    0.00136     0.41131
      H   28    0.09842      0.00000     0.40016    0.00142     0.40158
      H   29    0.17247      0.00000     0.32462    0.00292     0.32753
      H   30    0.19290      0.00000     0.30409    0.00301     0.30710
      H   31    0.10782      0.00000     0.39056    0.00162     0.39218
      H   32    0.11764      0.00000     0.38076    0.00161     0.38236
      H   33    0.10873      0.00000     0.38985    0.00142     0.39127
      H   34    0.10664      0.00000     0.39214    0.00121     0.39336
      H   35    0.11099      0.00000     0.38804    0.00097     0.38901
      H   36    0.11053      0.00000     0.38851    0.00096     0.38947
      H   37    0.09918      0.00000     0.39990    0.00092     0.40082
 =======================================================================
   * Total *    0.00000     16.99385    46.78052    0.22563    64.00000

 Normal termination of Gaussian 16 at Sun Dec 13 19:21:36 2020.
