 Gaussian 16, Revision A.03,

 -----------------------------------------------------------
 # opt freq B3LYP/6-31G(d) empiricaldispersion=gd3bj scf=xqc
 -----------------------------------------------------------

 ------------------------------
 CID_62714225_JID_5503_neutraal
 ------------------------------
 Symbolic Z-matrix:
 Charge =  0 Multiplicity = 1

 SCF Done:  E(RB3LYP) =  -638.013828557     A.U. after   14 cycles
 SCF Done:  E(RB3LYP) =  -638.020626454     A.U. after   12 cycles
 SCF Done:  E(RB3LYP) =  -638.022259030     A.U. after   12 cycles
 SCF Done:  E(RB3LYP) =  -638.023685140     A.U. after   14 cycles
 SCF Done:  E(RB3LYP) =  -638.009889086     A.U. after   15 cycles
 SCF Done:  E(RB3LYP) =  -638.022682224     A.U. after   13 cycles
 SCF Done:  E(RB3LYP) =  -638.024379237     A.U. after   11 cycles
 SCF Done:  E(RB3LYP) =  -638.024403322     A.U. after   14 cycles
 SCF Done:  E(RB3LYP) =  -638.025160128     A.U. after   12 cycles
 SCF Done:  E(RB3LYP) =  -638.025494052     A.U. after   12 cycles
 SCF Done:  E(RB3LYP) =  -638.025759525     A.U. after    7 cycles
 SCF Done:  E(RB3LYP) =  -638.025759716     A.U. after    6 cycles
 SCF Done:  E(RB3LYP) =  -638.025759819     A.U. after    6 cycles
 SCF Done:  E(RB3LYP) =  -638.025759883     A.U. after    6 cycles
 SCF Done:  E(RB3LYP) =  -638.025759909     A.U. after    6 cycles
 Optimization completed.
    -- Stationary point found.
 Normal termination of Gaussian 16 at Thu Dec 10 16:35:17 2020.

 --------------------------------------------------------------------
 #N Geom=AllCheck Guess=TCheck SCRF=Check GenChk RB3LYP/6-31G(d) Freq
 --------------------------------------------------------------------

 Structure from the checkpoint file:  "JID_5503.chk"
 ------------------------------
 CID_62714225_JID_5503_neutraal
 ------------------------------
 Charge =  0 Multiplicity = 1

 SCF Done:  E(RB3LYP) =  -638.025759909     A.U. after    1 cycles

  Exact polarizability: 135.185  -1.294 160.811  -9.351   0.032 122.082
 Approx polarizability: 176.966   0.155 222.068 -20.379   0.988 203.757

                      1                      2                      3
                      A                      A                      A
 Frequencies --     34.7388                39.7357                56.6705
 Red. masses --      3.6385                 2.7996                 3.6865
 Frc consts  --      0.0026                 0.0026                 0.0070
 IR Inten    --      0.0350                 0.0515                 0.2436

                      4                      5                      6
                      A                      A                      A
 Frequencies --     91.7787               101.7805               135.2053
 Red. masses --      3.6347                 3.2003                 1.1319
 Frc consts  --      0.0180                 0.0195                 0.0122
 IR Inten    --      1.2793                 0.0660                 0.2246

                      7                      8                      9
                      A                      A                      A
 Frequencies --    154.1996               179.8605               211.6747
 Red. masses --      2.2725                 2.9865                 2.3667
 Frc consts  --      0.0318                 0.0569                 0.0625
 IR Inten    --      0.7095                 1.5587                 5.3528

                     10                     11                     12
                      A                      A                      A
 Frequencies --    229.8549               256.3881               271.4820
 Red. masses --      1.3102                 1.7003                 1.3610
 Frc consts  --      0.0408                 0.0659                 0.0591
 IR Inten    --      1.1285                 0.7119                 0.6341

                     13                     14                     15
                      A                      A                      A
 Frequencies --    280.1221               291.2311               324.8904
 Red. masses --      1.0785                 2.5720                 2.7817
 Frc consts  --      0.0499                 0.1285                 0.1730
 IR Inten    --      0.0444                 0.0556                 0.7014

                     16                     17                     18
                      A                      A                      A
 Frequencies --    329.3223               348.0917               379.4636
 Red. masses --      3.2210                 2.3075                 2.4169
 Frc consts  --      0.2058                 0.1647                 0.2050
 IR Inten    --      0.4115                 0.2405                 0.8839

                     19                     20                     21
                      A                      A                      A
 Frequencies --    424.0077               457.4576               495.4677
 Red. masses --      3.0615                 2.4255                 2.7935
 Frc consts  --      0.3243                 0.2991                 0.4040
 IR Inten    --      0.2533                 4.0420                 0.6862

                     22                     23                     24
                      A                      A                      A
 Frequencies --    499.4138               536.7368               613.1672
 Red. masses --      2.9734                 2.8799                 3.5006
 Frc consts  --      0.4369                 0.4888                 0.7754
 IR Inten    --      1.9301                 0.5789                 0.3571

                     25                     26                     27
                      A                      A                      A
 Frequencies --    630.0599               678.4298               724.2200
 Red. masses --      3.9184                 4.5282                 3.0803
 Frc consts  --      0.9165                 1.2280                 0.9519
 IR Inten    --      0.0590                 1.4292                 4.2441

                     28                     29                     30
                      A                      A                      A
 Frequencies --    758.1040               799.4965               812.3185
 Red. masses --      3.4928                 1.2476                 1.7475
 Frc consts  --      1.1827                 0.4699                 0.6794
 IR Inten    --      2.7329                38.8226                42.5000

                     31                     32                     33
                      A                      A                      A
 Frequencies --    828.0097               845.9102               862.5919
 Red. masses --      1.8426                 1.3359                 1.5220
 Frc consts  --      0.7443                 0.5632                 0.6672
 IR Inten    --     21.8646                 2.2610                 9.4441

                     34                     35                     36
                      A                      A                      A
 Frequencies --    901.5319               919.4042               930.2478
 Red. masses --      2.0056                 1.7396                 1.8815
 Frc consts  --      0.9604                 0.8664                 0.9593
 IR Inten    --      4.4352                 0.6476                 0.9151

                     37                     38                     39
                      A                      A                      A
 Frequencies --    949.0656               968.4125               969.7406
 Red. masses --      1.5290                 1.2403                 2.4539
 Frc consts  --      0.8115                 0.6853                 1.3596
 IR Inten    --      3.9330                 0.6019                 4.6956

                     40                     41                     42
                      A                      A                      A
 Frequencies --    977.5493              1006.0007              1024.7071
 Red. masses --      3.0735                 2.1794                 1.7961
 Frc consts  --      1.7305                 1.2995                 1.1112
 IR Inten    --     15.7523                 1.6433                 1.4099

                     43                     44                     45
                      A                      A                      A
 Frequencies --   1043.6435              1050.9983              1058.7459
 Red. masses --      2.0202                 1.4183                 1.4089
 Frc consts  --      1.2964                 0.9230                 0.9305
 IR Inten    --      0.3724                24.8641                 4.3102

                     46                     47                     48
                      A                      A                      A
 Frequencies --   1072.8537              1081.9549              1089.5383
 Red. masses --      1.7504                 1.4519                 1.4476
 Frc consts  --      1.1871                 1.0014                 1.0125
 IR Inten    --     10.8819                 3.0585                 1.8428

                     49                     50                     51
                      A                      A                      A
 Frequencies --   1108.0087              1136.5501              1143.5113
 Red. masses --      1.6081                 1.2161                 3.2522
 Frc consts  --      1.1632                 0.9256                 2.5055
 IR Inten    --      2.9909                 0.2312                17.6552

                     52                     53                     54
                      A                      A                      A
 Frequencies --   1180.5080              1193.4835              1224.8609
 Red. masses --      1.6495                 3.1618                 1.6151
 Frc consts  --      1.3544                 2.6535                 1.4277
 IR Inten    --      7.9708                16.1829                11.4284

                     55                     56                     57
                      A                      A                      A
 Frequencies --   1249.0770              1256.3381              1258.3196
 Red. masses --      1.9476                 2.4349                 2.3563
 Frc consts  --      1.7903                 2.2643                 2.1981
 IR Inten    --     11.2516                19.9472                 5.2564

                     58                     59                     60
                      A                      A                      A
 Frequencies --   1265.4000              1280.8986              1315.1670
 Red. masses --      2.0294                 2.3622                 1.7492
 Frc consts  --      1.9146                 2.2835                 1.7826
 IR Inten    --     10.1347                44.2091                 8.5225

                     61                     62                     63
                      A                      A                      A
 Frequencies --   1366.1479              1386.5716              1420.1393
 Red. masses --      1.4115                 2.6215                 1.3778
 Frc consts  --      1.5521                 2.9695                 1.6372
 IR Inten    --      3.7316                 0.8580                 3.8207

                     64                     65                     66
                      A                      A                      A
 Frequencies --   1423.1177              1426.5570              1444.6954
 Red. masses --      1.2601                 1.6795                 1.3228
 Frc consts  --      1.5037                 2.0138                 1.6267
 IR Inten    --     10.9677                10.7735                 2.0865

                     67                     68                     69
                      A                      A                      A
 Frequencies --   1447.6128              1454.3398              1502.4013
 Red. masses --      1.4072                 1.3427                 1.0433
 Frc consts  --      1.7375                 1.6732                 1.3874
 IR Inten    --      3.1430                10.1885                 4.6708

                     70                     71                     72
                      A                      A                      A
 Frequencies --   1506.3507              1513.7422              1516.5751
 Red. masses --      1.0539                 1.0508                 1.2940
 Frc consts  --      1.4090                 1.4186                 1.7535
 IR Inten    --      0.9978                 0.5342                 0.0142

                     73                     74                     75
                      A                      A                      A
 Frequencies --   1518.5191              1521.4614              1524.8709
 Red. masses --      1.0766                 1.0887                 1.1032
 Frc consts  --      1.4627                 1.4848                 1.5114
 IR Inten    --      0.3870                 3.9280                 7.6626

                     76                     77                     78
                      A                      A                      A
 Frequencies --   1531.7087              1543.1993              1551.6848
 Red. masses --      1.0594                 1.0745                 1.0693
 Frc consts  --      1.4644                 1.5076                 1.5169
 IR Inten    --      3.4292                 0.9640                 9.6342

                     79                     80                     81
                      A                      A                      A
 Frequencies --   1563.8330              1624.2296              1674.9783
 Red. masses --      1.1775                 7.6652                 6.3646
 Frc consts  --      1.6967                11.9143                10.5205
 IR Inten    --     18.2357                17.2193                13.6162

                     82                     83                     84
                      A                      A                      A
 Frequencies --   2977.2071              3039.5445              3042.3922
 Red. masses --      1.0708                 1.0376                 1.0386
 Frc consts  --      5.5923                 5.6482                 5.6642
 IR Inten    --     34.2162                25.9076                29.4497

                     85                     86                     87
                      A                      A                      A
 Frequencies --   3045.5493              3053.5038              3065.6071
 Red. masses --      1.0359                 1.0392                 1.0846
 Frc consts  --      5.6611                 5.7089                 6.0056
 IR Inten    --     20.5264                 9.6854                52.5020

                     88                     89                     90
                      A                      A                      A
 Frequencies --   3091.8572              3103.6437              3110.6864
 Red. masses --      1.1010                 1.0985                 1.1013
 Frc consts  --      6.2014                 6.2344                 6.2784
 IR Inten    --     21.8703                17.5746                22.2291

                     91                     92                     93
                      A                      A                      A
 Frequencies --   3117.2962              3120.9897              3126.7199
 Red. masses --      1.1011                 1.1013                 1.1031
 Frc consts  --      6.3044                 6.3202                 6.3541
 IR Inten    --     58.1232                38.1974                 8.3994

                     94                     95                     96
                      A                      A                      A
 Frequencies --   3132.7761              3141.3998              3146.9949
 Red. masses --      1.1026                 1.0991                 1.0859
 Frc consts  --      6.3754                 6.3905                 6.3363
 IR Inten    --     47.7292                11.4271                11.0705

                     97                     98                     99
                      A                      A                      A
 Frequencies --   3152.3893              3172.9323              3231.9200
 Red. masses --      1.0560                 1.0901                 1.1169
 Frc consts  --      6.1830                 6.4659                 6.8739
 IR Inten    --     14.7380                18.7309                15.6179

                    100                    101                    102
                      A                      A                      A
 Frequencies --   3261.4882              3275.3153              3497.1459
 Red. masses --      1.0932                 1.1004                 1.0732
 Frc consts  --      6.8516                 6.9554                 7.7331
 IR Inten    --      7.8501                 1.6410                 6.9606

 - Thermochemistry -
 -------------------
 Temperature   298.150 Kelvin.  Pressure   1.00000 Atm.
 Atom     1 has atomic number  6 and mass  12.00000

 Molecular mass:   207.16231 amu.
 Principal axes and moments of inertia in atomic units:
                           1         2         3
     Eigenvalues --  2524.215373493.427965071.17371
           X            0.99977  -0.02158   0.00160
           Y            0.02156   0.99973   0.00902
           Z           -0.00179  -0.00899   0.99996
 This molecule is an asymmetric top.
 Rotational symmetry number  1.
 Warning -- assumption of classical behavior for rotation
           may cause significant error
 Rotational temperatures (Kelvin)      0.03431     0.02479     0.01708
 Rotational constants (GHZ):           0.71497     0.51661     0.35588
 Zero-point vibrational energy     841623.7 (Joules/Mol)
                                  201.15289 (Kcal/Mol)
 Warning -- explicit consideration of  24 degrees of freedom as
           vibrations may cause significant error
 Vibrational temperatures:     49.98    57.17    81.54   132.05   146.44
          (Kelvin)            194.53   221.86   258.78   304.55   330.71
                              368.89   390.60   403.03   419.02   467.44
                              473.82   500.83   545.96   610.05   658.18
                              712.87   718.55   772.24   882.21   906.52
                              976.11  1041.99  1090.74  1150.30  1168.75
                             1191.32  1217.08  1241.08  1297.10  1322.82
                             1338.42  1365.49  1393.33  1395.24  1406.48
                             1447.41  1474.33  1501.57  1512.15  1523.30
                             1543.60  1556.69  1567.60  1594.18  1635.24
                             1645.26  1698.49  1717.16  1762.30  1797.14
                             1807.59  1810.44  1820.63  1842.93  1892.23
                             1965.58  1994.97  2043.26  2047.55  2052.50
                             2078.59  2082.79  2092.47  2161.62  2167.30
                             2177.94  2182.01  2184.81  2189.04  2193.95
                             2203.79  2220.32  2232.53  2250.01  2336.90
                             2409.92  4283.54  4373.23  4377.32  4381.87
                             4393.31  4410.72  4448.49  4465.45  4475.58
                             4485.09  4490.41  4498.65  4507.37  4519.77
                             4527.82  4535.59  4565.14  4650.01  4692.55
                             4712.45  5031.61

 Zero-point correction=                           0.320558 (Hartree/Particle)
 Thermal correction to Energy=                    0.336675
 Thermal correction to Enthalpy=                  0.337619
 Thermal correction to Gibbs Free Energy=         0.277004
 Sum of electronic and zero-point Energies=           -637.705202
 Sum of electronic and thermal Energies=              -637.689085
 Sum of electronic and thermal Enthalpies=            -637.688140
 Sum of electronic and thermal Free Energies=         -637.748756

                     E (Thermal)             CV                S
                      KCal/Mol        Cal/Mol-Kelvin    Cal/Mol-Kelvin
 Total                  211.267             61.807            127.576
 Electronic               0.000              0.000              0.000
 Translational            0.889              2.981             41.889
 Rotational               0.889              2.981             32.170
 Vibrational            209.489             55.846             53.517
 Vibration     1          0.594              1.983              5.539
 Vibration     2          0.594              1.981              5.272
 Vibration     3          0.596              1.975              4.570
 Vibration     4          0.602              1.955              3.622
 Vibration     5          0.604              1.948              3.420
 Vibration     6          0.613              1.918              2.871
 Vibration     7          0.620              1.898              2.620
 Vibration     8          0.629              1.867              2.330
 Vibration     9          0.643              1.823              2.029
 Vibration    10          0.652              1.795              1.880
 Vibration    11          0.666              1.752              1.686
 Vibration    12          0.675              1.726              1.587
 Vibration    13          0.680              1.710              1.533
 Vibration    14          0.687              1.690              1.467
 Vibration    15          0.709              1.626              1.285
 Vibration    16          0.712              1.617              1.263
 Vibration    17          0.726              1.579              1.175
 Vibration    18          0.749              1.514              1.041
 Vibration    19          0.786              1.418              0.878
 Vibration    20          0.816              1.344              0.774
 Vibration    21          0.851              1.260              0.670
 Vibration    22          0.855              1.251              0.660
 Vibration    23          0.892              1.169              0.572
 Vibration    24          0.972              1.004              0.428

 Optimization completed.
    -- Stationary point found.
 Normal termination of Gaussian 16 at Thu Dec 10 16:48:26 2020.

 ----------------------------------------------------------------------
 # B3LYP/6-311++G(d,p) empiricaldispersion=gd3bj scf=xqc pop=npa geom=c
 heck
 ----------------------------------------------------------------------

 --------------------------------------
 CID_62714225_JID_5503_Energie_neutraal
 --------------------------------------
 Structure from the checkpoint file:  "JID_5503.chk"
 Charge =  0 Multiplicity = 1

 SCF Done:  E(RB3LYP) =  -638.202018013     A.U. after   14 cycles
 Normal termination of Gaussian 16 at Thu Dec 10 16:54:16 2020.

 ----------------------------------------------------------------------
 # B3LYP/6-311++G(d,p) empiricaldispersion=gd3bj scf=xqc pop=npa geom=c
 heck
 ----------------------------------------------------------------------

 ------------------------------------
 CID_62714225_JID_5503_Energie_kation
 ------------------------------------
 Structure from the checkpoint file:  "JID_5503.chk"
 Charge =  1 Multiplicity = 2

 SCF Done:  E(UB3LYP) =  -637.924372536     A.U. after   22 cycles
 Normal termination of Gaussian 16 at Thu Dec 10 17:11:51 2020.
 Gaussian 16:  ES64L-G16RevA.03 25-Dec-2016

 ----------------------------------------------------------------------
 # B3LYP/6-311++G(d,p) empiricaldispersion=gd3bj scf=xqc pop=npa geom=c
 heck
 ----------------------------------------------------------------------

 -----------------------------------
 CID_62714225_JID_5503_Energie_anion
 -----------------------------------
 Structure from the checkpoint file:  "JID_5503.chk"
 Charge = -1 Multiplicity = 2

                         Standard orientation:
 ---------------------------------------------------------------------
 Center     Atomic      Atomic             Coordinates (Angstroms)
 Number     Number       Type             X           Y           Z
 ---------------------------------------------------------------------
      1          6           0       -1.577478   -3.050439   -0.671483
      2          6           0       -1.865684   -1.718955   -0.075945
      3          6           0       -2.409390   -1.306336    1.103433
      4          6           0       -2.414317    0.129665    1.078298
      5          6           0       -1.870102    0.507735   -0.112577
      6          8           0       -1.529804   -0.621988   -0.830556
      7          6           0       -1.532538    1.794558   -0.739217
      8          6           0       -1.316568    3.019820    0.116961
      9          6           0       -0.134365    2.388677   -0.563492
     10          6           0        0.896175    1.629693    0.240464
     11          7           0        1.463138    0.562623   -0.581899
     12          6           0        2.359910   -0.401706    0.087070
     13          6           0        1.705903   -1.100473    1.298957
     14          6           0        2.712186   -1.455069   -0.973169
     15          6           0        3.640120    0.321797    0.529492
     16          1           0       -2.104111   -3.188677   -1.623633
     17          1           0       -0.505400   -3.180581   -0.866667
     18          1           0       -1.896380   -3.839448    0.014904
     19          1           0       -2.768746   -1.947742    1.896192
     20          1           0       -2.780224    0.795417    1.846916
     21          1           0       -1.985822    1.958887   -1.715180
     22          1           0       -1.693646    3.968257   -0.253149
     23          1           0       -1.396683    2.898852    1.193851
     24          1           0        0.261440    2.890946   -1.442757
     25          1           0        1.695870    2.316961    0.542106
     26          1           0        0.420443    1.269926    1.168488
     27          1           0        0.685279    0.038578   -0.979774
     28          1           0        0.760101   -1.575244    1.012904
     29          1           0        2.367361   -1.873797    1.707110
     30          1           0        1.490716   -0.393420    2.106837
     31          1           0        3.164440   -0.977234   -1.847882
     32          1           0        3.411176   -2.197746   -0.573473
     33          1           0        1.811033   -1.987070   -1.305559
     34          1           0        4.089218    0.847606   -0.319338
     35          1           0        3.438405    1.054083    1.318837
     36          1           0        4.368878   -0.394825    0.924262
 ---------------------------------------------------------------------

 SCF Done:  E(UB3LYP) =  -638.185993831     A.U. after   33 cycles
 SCF Done:  E(UB3LYP) =  -638.185993831     a.u. after    1 cycles

 The electronic state is 2-A.
 Alpha  occ. eigenvalues --  -19.08667 -14.19117 -10.12968 -10.12872 -10.10968
 Alpha  occ. eigenvalues --  -10.09583 -10.09450 -10.08870 -10.08558 -10.07925
 Alpha  occ. eigenvalues --  -10.07245 -10.06994 -10.06230 -10.06129 -10.05558
 Alpha  occ. eigenvalues --   -1.00981  -0.81494  -0.77680  -0.70325  -0.68828
 Alpha  occ. eigenvalues --   -0.68161  -0.60769  -0.59702  -0.58946  -0.57640
 Alpha  occ. eigenvalues --   -0.52813  -0.48986  -0.48555  -0.45537  -0.45104
 Alpha  occ. eigenvalues --   -0.42556  -0.40225  -0.37696  -0.36651  -0.36318
 Alpha  occ. eigenvalues --   -0.35500  -0.34353  -0.33217  -0.32743  -0.31287
 Alpha  occ. eigenvalues --   -0.30969  -0.30834  -0.29259  -0.28877  -0.28625
 Alpha  occ. eigenvalues --   -0.28518  -0.27426  -0.27306  -0.26766  -0.25150
 Alpha  occ. eigenvalues --   -0.23942  -0.23202  -0.21002  -0.20450  -0.18548
 Alpha  occ. eigenvalues --   -0.12772  -0.12004   0.04333
 Alpha virt. eigenvalues --    0.05964   0.06586   0.07021   0.08283   0.08480
 Alpha virt. eigenvalues --    0.08715   0.09069   0.09575   0.09842   0.10921
 Alpha virt. eigenvalues --    0.11047   0.11179   0.11560   0.11739   0.12891

  Beta  occ. eigenvalues --  -19.08660 -14.19112 -10.12967 -10.12871 -10.10966
  Beta  occ. eigenvalues --  -10.09575 -10.09441 -10.08865 -10.08539 -10.07882
  Beta  occ. eigenvalues --  -10.07235 -10.06977 -10.06213 -10.06112 -10.05538
  Beta  occ. eigenvalues --   -1.00970  -0.81485  -0.77662  -0.70306  -0.68809
  Beta  occ. eigenvalues --   -0.68139  -0.60729  -0.59667  -0.58909  -0.57610
  Beta  occ. eigenvalues --   -0.52773  -0.48946  -0.48525  -0.45507  -0.45074
  Beta  occ. eigenvalues --   -0.42524  -0.40187  -0.37673  -0.36624  -0.36295
  Beta  occ. eigenvalues --   -0.35473  -0.34325  -0.33197  -0.32713  -0.31253
  Beta  occ. eigenvalues --   -0.30930  -0.30803  -0.29229  -0.28855  -0.28600
  Beta  occ. eigenvalues --   -0.28494  -0.27405  -0.27283  -0.26746  -0.25129
  Beta  occ. eigenvalues --   -0.23923  -0.23184  -0.20983  -0.20432  -0.18532
  Beta  occ. eigenvalues --   -0.12760  -0.11985
  Beta virt. eigenvalues --    0.06308   0.06864   0.07301   0.07545   0.08669
  Beta virt. eigenvalues --    0.08922   0.09209   0.09426   0.09765   0.10088
  Beta virt. eigenvalues --    0.11258   0.11379   0.11548   0.11931   0.12026

 Mulliken charges and spin densities:
               1          2
     1  C    2.445637  -3.074905
     2  C   -1.403246   1.472898
     3  C    0.107289  -0.231070
     4  C   -0.823767   0.519745
     5  C    1.145393  -0.759583
     6  O    0.024253   0.029337
     7  C   -0.444893  -0.022212
     8  C    0.568269  -1.043067
     9  C    0.228781  -0.057405
    10  C   -0.025069  -0.547935
    11  N    0.147295  -0.005725
    12  C   -1.114116   1.002183
    13  C    0.207467  -0.708955
    14  C   -0.078935  -0.341920
    15  C    0.070599  -0.621439
    16  H   -0.193393   0.358446
    17  H   -0.228957   0.372561
    18  H   -0.440080   0.611888
    19  H   -0.819891   1.002446
    20  H   -0.392942   0.547803
    21  H   -0.204477   0.439517
    22  H   -0.409980   0.584396
    23  H    0.035829   0.104357
    24  H    0.013325   0.203786
    25  H    0.076271   0.078336
    26  H    0.150779  -0.100130
    27  H    0.228619  -0.007289
    28  H    0.514372  -0.351936
    29  H   -0.293534   0.451750
    30  H   -0.122205   0.277093
    31  H    0.058716   0.095255
    32  H   -0.056888   0.189045
    33  H    0.042364   0.085493
    34  H    0.070755   0.083978
    35  H   -0.096810   0.236376
    36  H    0.013170   0.126881
 Sum of Mulliken charges =  -1.00000   1.00000

 Dipole moment (field-independent basis, Debye):
    X=              2.3549    Y=              2.6846    Z=             -0.9513  Tot=              3.6956
 Quadrupole moment (field-independent basis, Debye-Ang):
   XX=           -154.9508   YY=           -162.4144   ZZ=           -132.9010
   XY=             -2.6403   XZ=              1.1295   YZ=              5.8229

 Summary of Natural Population Analysis:

                                       Natural Population
                Natural  -----------------------------------------------
    Atom  No    Charge         Core      Valence    Rydberg      Total
 -----------------------------------------------------------------------
      C    1   -0.30590      0.99962     2.30018    0.00610     3.30590
      C    2    0.15040      0.99947     1.83497    0.01515     2.84960
      C    3   -0.14865      0.99948     2.13957    0.00959     3.14865
      C    4   -0.14195      0.99948     2.13385    0.00862     3.14195
      C    5    0.14339      0.99944     1.84118    0.01599     2.85661
      O    6   -0.24876      0.99985     3.24060    0.00831     4.24876
      C    7   -0.13702      0.99954     2.12627    0.01121     3.13702
      C    8   -0.18732      0.99960     2.17857    0.00915     3.18732
      C    9   -0.10131      0.99958     2.09083    0.01090     3.10131
      C   10   -0.09310      0.99959     2.08296    0.01056     3.09310
      N   11   -0.34986      0.99971     2.83931    0.01084     3.84986
      C   12    0.05441      0.99960     1.93331    0.01267     2.94559
      C   13   -0.29558      0.99962     2.28890    0.00707     3.29558
      C   14   -0.28421      0.99962     2.27732    0.00728     3.28421
      C   15   -0.28793      0.99961     2.28252    0.00580     3.28793
      H   16    0.10746      0.00000     0.39115    0.00140     0.39254
      H   17    0.10664      0.00000     0.39172    0.00164     0.39336
      H   18    0.11175      0.00000     0.38663    0.00163     0.38825
      H   19    0.11036      0.00000     0.38817    0.00147     0.38964
      H   20    0.10901      0.00000     0.38992    0.00107     0.39099
      H   21    0.11213      0.00000     0.38658    0.00130     0.38787
      H   22    0.10578      0.00000     0.39300    0.00121     0.39422
      H   23    0.10404      0.00000     0.39478    0.00117     0.39596
      H   24    0.10593      0.00000     0.39283    0.00125     0.39407
      H   25    0.09430      0.00000     0.40434    0.00136     0.40570
      H   26    0.08534      0.00000     0.41241    0.00225     0.41466
      H   27    0.17880      0.00000     0.31648    0.00472     0.32120
      H   28    0.10342      0.00000     0.39479    0.00180     0.39658
      H   29    0.09982      0.00000     0.39919    0.00098     0.40018
      H   30    0.09916      0.00000     0.39980    0.00104     0.40084
      H   31    0.10222      0.00000     0.39680    0.00098     0.39778
      H   32    0.09859      0.00000     0.40063    0.00078     0.40141
      H   33    0.09867      0.00000     0.40003    0.00130     0.40133
      H   34    0.10216      0.00000     0.39687    0.00096     0.39784
      H   35    0.09885      0.00000     0.40021    0.00094     0.40115
      H   36    0.09896      0.00000     0.40022    0.00081     0.40104
 =======================================================================
   * Total *    0.00000     14.99382    41.82690    0.17928    57.00000

 Normal termination of Gaussian 16 at Thu Dec 10 17:34:55 2020.
