 Gaussian 16, Revision A.03,

 -----------------------------------------------------------
 # opt freq B3LYP/6-31G(d) empiricaldispersion=gd3bj scf=xqc
 -----------------------------------------------------------

 -------------------------------
 CID_150951943_JID_8757_neutraal
 -------------------------------
 Symbolic Z-matrix:
 Charge =  0 Multiplicity = 1

 SCF Done:  E(RB3LYP) =  -833.941787857     A.U. after   17 cycles
 SCF Done:  E(RB3LYP) =  -833.949234948     A.U. after   14 cycles
 SCF Done:  E(RB3LYP) =  -833.949355660     A.U. after   14 cycles
 SCF Done:  E(RB3LYP) =  -833.951527407     A.U. after   13 cycles
 SCF Done:  E(RB3LYP) =  -833.952080745     A.U. after   13 cycles
 SCF Done:  E(RB3LYP) =  -833.953149648     A.U. after   14 cycles
 SCF Done:  E(RB3LYP) =  -833.953767947     A.U. after   13 cycles
 SCF Done:  E(RB3LYP) =  -833.954550842     A.U. after   13 cycles
 SCF Done:  E(RB3LYP) =  -833.954769383     A.U. after   13 cycles
 SCF Done:  E(RB3LYP) =  -833.954895970     A.U. after   13 cycles
 SCF Done:  E(RB3LYP) =  -833.955700716     A.U. after   10 cycles
 SCF Done:  E(RB3LYP) =  -833.955701130     A.U. after    9 cycles
 SCF Done:  E(RB3LYP) =  -833.955701162     A.U. after    7 cycles
 SCF Done:  E(RB3LYP) =  -833.955701171     A.U. after    7 cycles
 SCF Done:  E(RB3LYP) =  -833.955701173     A.U. after    6 cycles
 Optimization completed.
    -- Stationary point found.
 Normal termination of Gaussian 16 at Fri Dec 11 21:06:05 2020.

 --------------------------------------------------------------------
 #N Geom=AllCheck Guess=TCheck SCRF=Check GenChk RB3LYP/6-31G(d) Freq
 --------------------------------------------------------------------

 Structure from the checkpoint file:  "JID_8757.chk"
 -------------------------------
 CID_150951943_JID_8757_neutraal
 -------------------------------
 Charge =  0 Multiplicity = 1

 SCF Done:  E(RB3LYP) =  -833.955701173     A.U. after    1 cycles

  Exact polarizability: 241.654  16.381 186.694  -8.197   4.606  80.986
 Approx polarizability: 323.541  28.269 343.557 -18.700  14.887 134.133

                      1                      2                      3
                      A                      A                      A
 Frequencies --     20.1954                23.0480                29.6429
 Red. masses --      3.3391                 1.2794                 5.2161
 Frc consts  --      0.0008                 0.0004                 0.0027
 IR Inten    --      0.3284                 0.2074                 0.1983

                      4                      5                      6
                      A                      A                      A
 Frequencies --     38.4456                52.0390                65.3727
 Red. masses --      5.5871                 5.1451                 8.8648
 Frc consts  --      0.0049                 0.0082                 0.0223
 IR Inten    --      0.4538                 1.2483                 2.3437

                      7                      8                      9
                      A                      A                      A
 Frequencies --     91.8571               105.2659               134.7149
 Red. masses --      6.0617                 9.2484                 4.4690
 Frc consts  --      0.0301                 0.0604                 0.0478
 IR Inten    --      1.8435                 2.8439                 2.2749

                     10                     11                     12
                      A                      A                      A
 Frequencies --    150.1784               175.1995               206.8446
 Red. masses --      4.7208                 4.4933                 4.1427
 Frc consts  --      0.0627                 0.0813                 0.1044
 IR Inten    --      3.7708                 1.5491                 2.8900

                     13                     14                     15
                      A                      A                      A
 Frequencies --    226.0084               291.0163               303.1881
 Red. masses --      7.9385                 4.2368                 3.8259
 Frc consts  --      0.2389                 0.2114                 0.2072
 IR Inten    --      1.1963                 1.3183                 3.1714

                     16                     17                     18
                      A                      A                      A
 Frequencies --    353.9092               381.4619               413.3988
 Red. masses --      3.6569                 3.4761                 2.5095
 Frc consts  --      0.2699                 0.2980                 0.2527
 IR Inten    --      1.2997                 1.9608                 1.1130

                     19                     20                     21
                      A                      A                      A
 Frequencies --    418.0217               491.2820               503.0770
 Red. masses --      2.7966                 7.5952                 2.9829
 Frc consts  --      0.2879                 1.0801                 0.4448
 IR Inten    --      1.7454                 6.1917                 9.1950

                     22                     23                     24
                      A                      A                      A
 Frequencies --    517.9741               541.2802               574.4571
 Red. masses --      4.5396                 4.3484                 3.8148
 Frc consts  --      0.7176                 0.7506                 0.7417
 IR Inten    --      9.4119                11.7539                 8.7229

                     25                     26                     27
                      A                      A                      A
 Frequencies --    586.9243               610.8500               658.9207
 Red. masses --      2.5506                 3.0097                 6.8495
 Frc consts  --      0.5177                 0.6617                 1.7522
 IR Inten    --     38.7149                83.1932                 0.0238

                     28                     29                     30
                      A                      A                      A
 Frequencies --    672.5058               700.7716               738.1002
 Red. masses --      4.3789                 3.5329                 3.5060
 Frc consts  --      1.1668                 1.0222                 1.1254
 IR Inten    --     55.7194                20.7455                 4.4334

                     31                     32                     33
                      A                      A                      A
 Frequencies --    754.4985               789.3360               830.3514
 Red. masses --      4.9940                 4.4979                 1.5394
 Frc consts  --      1.6750                 1.6511                 0.6254
 IR Inten    --     37.7815                 2.9028                48.7013

                     34                     35                     36
                      A                      A                      A
 Frequencies --    851.7683               861.0351               876.4921
 Red. masses --      1.4663                 2.9837                 4.9735
 Frc consts  --      0.6268                 1.3033                 2.2512
 IR Inten    --      4.6669                12.3276                14.3352

                     37                     38                     39
                      A                      A                      A
 Frequencies --    886.0858               907.1699               964.5574
 Red. masses --      3.1066                 3.2192                 1.3203
 Frc consts  --      1.4371                 1.5609                 0.7237
 IR Inten    --      9.9925                28.1204                 0.0877

                     40                     41                     42
                      A                      A                      A
 Frequencies --    972.5701               996.6685              1020.5769
 Red. masses --      1.3045                 2.3932                 1.4216
 Frc consts  --      0.7270                 1.4007                 0.8724
 IR Inten    --      0.4266                14.2362                 3.4975

                     43                     44                     45
                      A                      A                      A
 Frequencies --   1040.6568              1043.9309              1074.8192
 Red. masses --      1.3985                 1.9853                 1.5289
 Frc consts  --      0.8924                 1.2747                 1.0406
 IR Inten    --     42.7997                 9.8496                 9.7862

                     46                     47                     48
                      A                      A                      A
 Frequencies --   1140.6897              1155.0484              1172.1133
 Red. masses --      2.8037                 1.3653                 4.3848
 Frc consts  --      2.1494                 1.0732                 3.5493
 IR Inten    --    173.6724                 5.0162               190.0810

                     49                     50                     51
                      A                      A                      A
 Frequencies --   1222.6176              1247.1878              1254.5312
 Red. masses --      1.1779                 2.6229                 2.6793
 Frc consts  --      1.0374                 2.4038                 2.4845
 IR Inten    --     18.6355                 3.2115               179.6195

                     52                     53                     54
                      A                      A                      A
 Frequencies --   1263.9187              1303.4148              1308.7375
 Red. masses --      2.5304                 1.9791                 1.7927
 Frc consts  --      2.3817                 1.9810                 1.8091
 IR Inten    --    165.2339               156.5646               166.1365

                     55                     56                     57
                      A                      A                      A
 Frequencies --   1343.4046              1359.3047              1363.3801
 Red. masses --      1.6666                 2.1736                 2.3883
 Frc consts  --      1.7721                 2.3663                 2.6156
 IR Inten    --      1.7297                10.6002               119.3655

                     58                     59                     60
                      A                      A                      A
 Frequencies --   1393.9220              1401.7421              1442.5371
 Red. masses --      1.4930                 1.6785                 1.2485
 Frc consts  --      1.7091                 1.9432                 1.5307
 IR Inten    --      2.9075               130.3532                 0.3441

                     61                     62                     63
                      A                      A                      A
 Frequencies --   1465.9239              1489.3220              1500.6052
 Red. masses --      2.5059                 1.6473                 1.0867
 Frc consts  --      3.1727                 2.1527                 1.4418
 IR Inten    --     16.7768                92.3350                17.1066

                     64                     65                     66
                      A                      A                      A
 Frequencies --   1515.3074              1522.5866              1567.3233
 Red. masses --      1.0487                 1.1128                 2.4668
 Frc consts  --      1.4187                 1.5200                 3.5703
 IR Inten    --      5.7435                12.2558                17.0655

                     67                     68                     69
                      A                      A                      A
 Frequencies --   1623.8271              1673.2870              1702.4519
 Red. masses --      5.3844                 5.6072                 5.5343
 Frc consts  --      8.3650                 9.2499                 9.4507
 IR Inten    --      9.9455                37.2715                46.1832

                     70                     71                     72
                      A                      A                      A
 Frequencies --   1766.6199              1798.2385              2301.3689
 Red. masses --      7.4981                11.9004                13.9890
 Frc consts  --     13.7876                22.6728                43.6525
 IR Inten    --    423.2088               230.8862               492.7996

                     73                     74                     75
                      A                      A                      A
 Frequencies --   3043.6772              3061.9464              3097.7106
 Red. masses --      1.0389                 1.0701                 1.0985
 Frc consts  --      5.6707                 5.9109                 6.2107
 IR Inten    --     34.8416                26.1782                19.4466

                     76                     77                     78
                      A                      A                      A
 Frequencies --   3128.8632              3179.1405              3179.7976
 Red. masses --      1.1015                 1.0881                 1.0952
 Frc consts  --      6.3537                 6.4794                 6.5243
 IR Inten    --     16.3481                18.3682                 1.5819

                     79                     80                     81
                      A                      A                      A
 Frequencies --   3181.2075              3197.6718              3200.0675
 Red. masses --      1.0874                 1.0944                 1.0931
 Frc consts  --      6.4839                 6.5929                 6.5950
 IR Inten    --     12.6891                16.7218                 0.3219

                     82                     83                     84
                      A                      A                      A
 Frequencies --   3208.2816              3213.2828              3598.4211
 Red. masses --      1.0920                 1.0851                 1.0759
 Frc consts  --      6.6222                 6.6013                 8.2081
 IR Inten    --     10.8910                 4.4129                37.4622

 - Thermochemistry -
 -------------------
 Temperature   298.150 Kelvin.  Pressure   1.00000 Atm.
 Atom     1 has atomic number  6 and mass  12.00000

 Molecular mass:   244.09603 amu.
 Principal axes and moments of inertia in atomic units:
                           1         2         3
     Eigenvalues --  2791.001939318.39242**********
           X            0.99983   0.01829   0.00366
           Y           -0.01831   0.99983   0.00299
           Z           -0.00361  -0.00305   0.99999
 This molecule is an asymmetric top.
 Rotational symmetry number  1.
 Warning -- assumption of classical behavior for rotation
           may cause significant error
 Rotational temperatures (Kelvin)      0.03103     0.00929     0.00743
 Rotational constants (GHZ):           0.64663     0.19368     0.15478
 Zero-point vibrational energy     607319.8 (Joules/Mol)
                                  145.15292 (Kcal/Mol)
 Warning -- explicit consideration of  26 degrees of freedom as
           vibrations may cause significant error
 Vibrational temperatures:     29.06    33.16    42.65    55.31    74.87
          (Kelvin)             94.06   132.16   151.45   193.82   216.07
                              252.07   297.60   325.18   418.71   436.22
                              509.20   548.84   594.79   601.44   706.85
                              723.82   745.25   778.78   826.52   844.45
                              878.88   948.04   967.59  1008.25  1061.96
                             1085.56  1135.68  1194.69  1225.50  1238.84
                             1261.08  1274.88  1305.22  1387.78  1399.31
                             1433.98  1468.38  1497.27  1501.98  1546.43
                             1641.20  1661.86  1686.41  1759.07  1794.43
                             1804.99  1818.50  1875.32  1882.98  1932.86
                             1955.74  1961.60  2005.54  2016.79  2075.49
                             2109.14  2142.80  2159.04  2180.19  2190.66
                             2255.03  2336.33  2407.49  2449.45  2541.77
                             2587.26  3311.16  4379.17  4405.46  4456.91
                             4501.74  4574.07  4575.02  4577.05  4600.74
                             4604.18  4616.00  4623.20  5177.33

 Zero-point correction=                           0.231316 (Hartree/Particle)
 Thermal correction to Energy=                    0.248722
 Thermal correction to Enthalpy=                  0.249666
 Thermal correction to Gibbs Free Energy=         0.181655
 Sum of electronic and zero-point Energies=           -833.724385
 Sum of electronic and thermal Energies=              -833.706980
 Sum of electronic and thermal Enthalpies=            -833.706035
 Sum of electronic and thermal Free Energies=         -833.774046

                     E (Thermal)             CV                S
                      KCal/Mol        Cal/Mol-Kelvin    Cal/Mol-Kelvin
 Total                  156.075             61.987            143.140
 Electronic               0.000              0.000              0.000
 Translational            0.889              2.981             42.378
 Rotational               0.889              2.981             34.072
 Vibrational            154.298             56.025             66.691
 Vibration     1          0.593              1.986              6.615
 Vibration     2          0.593              1.985              6.353
 Vibration     3          0.593              1.984              5.853
 Vibration     4          0.594              1.982              5.338
 Vibration     5          0.596              1.977              4.738
 Vibration     6          0.597              1.971              4.288
 Vibration     7          0.602              1.955              3.620
 Vibration     8          0.605              1.945              3.354
 Vibration     9          0.613              1.919              2.878
 Vibration    10          0.618              1.902              2.670
 Vibration    11          0.627              1.873              2.379
 Vibration    12          0.641              1.830              2.071
 Vibration    13          0.650              1.801              1.910
 Vibration    14          0.687              1.690              1.468
 Vibration    15          0.695              1.668              1.399
 Vibration    16          0.730              1.567              1.149
 Vibration    17          0.751              1.510              1.033
 Vibration    18          0.777              1.441              0.915
 Vibration    19          0.781              1.431              0.899
 Vibration    20          0.847              1.269              0.680
 Vibration    21          0.858              1.243              0.650
 Vibration    22          0.873              1.210              0.615
 Vibration    23          0.896              1.159              0.563
 Vibration    24          0.931              1.087              0.496
 Vibration    25          0.944              1.060              0.473
 Vibration    26          0.970              1.009              0.431

 Optimization completed.
    -- Stationary point found.
 Normal termination of Gaussian 16 at Fri Dec 11 21:16:09 2020.

 ----------------------------------------------------------------------
 # B3LYP/6-311++G(d,p) empiricaldispersion=gd3bj scf=xqc pop=npa geom=c
 heck
 ----------------------------------------------------------------------

 ---------------------------------------
 CID_150951943_JID_8757_Energie_neutraal
 ---------------------------------------
 Structure from the checkpoint file:  "JID_8757.chk"
 Charge =  0 Multiplicity = 1

 SCF Done:  E(RB3LYP) =  -834.189613213     A.U. after   18 cycles
 Normal termination of Gaussian 16 at Fri Dec 11 21:21:49 2020.

 ----------------------------------------------------------------------
 # B3LYP/6-311++G(d,p) empiricaldispersion=gd3bj scf=xqc pop=npa geom=c
 heck
 ----------------------------------------------------------------------

 -------------------------------------
 CID_150951943_JID_8757_Energie_kation
 -------------------------------------
 Structure from the checkpoint file:  "JID_8757.chk"
 Charge =  1 Multiplicity = 2

 SCF Done:  E(UB3LYP) =  -833.892780128     A.U. after   30 cycles
 Normal termination of Gaussian 16 at Fri Dec 11 21:35:22 2020.
 Gaussian 16:  ES64L-G16RevA.03 25-Dec-2016

 ----------------------------------------------------------------------
 # B3LYP/6-311++G(d,p) empiricaldispersion=gd3bj scf=xqc pop=npa geom=c
 heck
 ----------------------------------------------------------------------

 ------------------------------------
 CID_150951943_JID_8757_Energie_anion
 ------------------------------------
 Structure from the checkpoint file:  "JID_8757.chk"
 Charge = -1 Multiplicity = 2

                         Standard orientation:
 ---------------------------------------------------------------------
 Center     Atomic      Atomic             Coordinates (Angstroms)
 Number     Number       Type             X           Y           Z
 ---------------------------------------------------------------------
      1          6           0       -5.874738   -1.317941    0.017964
      2          6           0       -4.466379   -0.779923   -0.015456
      3          6           0       -4.230260    0.602394   -0.089646
      4          6           0       -2.940199    1.111194   -0.141886
      5          6           0       -1.827613    0.250706   -0.118913
      6          6           0       -2.063474   -1.131649   -0.049910
      7          6           0       -3.360332   -1.635416    0.005363
      8          6           0       -0.441998    0.718087   -0.151167
      9          6           0       -0.010411    1.987658   -0.037122
     10          6           0        1.394140    2.438333   -0.189013
     11          8           0        1.654977    3.510840   -0.723074
     12          7           0        2.428413    1.628397    0.257004
     13          6           0        2.378614    0.562582    1.240263
     14          6           0        2.669628   -0.788422    0.596001
     15          8           0        1.867822   -1.684614    0.443037
     16          7           0        4.025070   -0.843566    0.152304
     17          7           0        4.329023   -1.890474   -0.459700
     18          7           0        4.699541   -2.800052   -1.021255
     19          1           0       -6.493018   -0.774592    0.741711
     20          1           0       -6.360832   -1.215936   -0.960963
     21          1           0       -5.891230   -2.378583    0.286343
     22          1           0       -5.075806    1.285919   -0.111139
     23          1           0       -2.793243    2.184653   -0.212286
     24          1           0       -1.214396   -1.810060   -0.024345
     25          1           0       -3.516609   -2.709551    0.064822
     26          1           0        0.285890   -0.076503   -0.284200
     27          1           0       -0.707031    2.816335    0.049387
     28          1           0        3.335677    2.039231    0.073771
     29          1           0        3.122062    0.745434    2.025508
     30          1           0        1.389946    0.518082    1.694356
 ---------------------------------------------------------------------

 SCF Done:  E(UB3LYP) =  -834.217199029     A.U. after   33 cycles
 SCF Done:  E(UB3LYP) =  -834.217199035     a.u. after    2 cycles

 The electronic state is 2-A.
 Alpha  occ. eigenvalues --  -18.98606 -18.95526 -14.35930 -14.27233 -14.24964
 Alpha  occ. eigenvalues --  -14.21523 -10.15401 -10.14169 -10.10425 -10.07976
 Alpha  occ. eigenvalues --  -10.07085 -10.06649 -10.06345 -10.06248 -10.06074
 Alpha  occ. eigenvalues --  -10.05782 -10.04682 -10.04075  -1.03309  -0.93701
 Alpha  occ. eigenvalues --   -0.90951  -0.85869  -0.80126  -0.75267  -0.68942
 Alpha  occ. eigenvalues --   -0.64738  -0.63809  -0.63398  -0.58731  -0.54734
 Alpha  occ. eigenvalues --   -0.51489  -0.50135  -0.46731  -0.44457  -0.41055
 Alpha  occ. eigenvalues --   -0.40948  -0.39259  -0.38840  -0.37671  -0.37114
 Alpha  occ. eigenvalues --   -0.34983  -0.34888  -0.33803  -0.33158  -0.32559
 Alpha  occ. eigenvalues --   -0.31706  -0.31179  -0.29930  -0.29315  -0.28327
 Alpha  occ. eigenvalues --   -0.27551  -0.27324  -0.25996  -0.24916  -0.23712
 Alpha  occ. eigenvalues --   -0.22540  -0.22398  -0.18299  -0.16920  -0.16539
 Alpha  occ. eigenvalues --   -0.14980  -0.13953  -0.12446  -0.11158   0.02472
 Alpha virt. eigenvalues --    0.04907   0.06581   0.07445   0.08638   0.08816
 Alpha virt. eigenvalues --    0.08943   0.09572   0.09939   0.11236   0.11655
 Alpha virt. eigenvalues --    0.12171   0.12613   0.13007   0.13752   0.14061

  Beta  occ. eigenvalues --  -18.98361 -18.95361 -14.35631 -14.26884 -14.25111
  Beta  occ. eigenvalues --  -14.21509 -10.15125 -10.14098 -10.10450 -10.07990
  Beta  occ. eigenvalues --  -10.06909 -10.06697 -10.06371 -10.06209 -10.05980
  Beta  occ. eigenvalues --  -10.05714 -10.04518 -10.03951  -1.02798  -0.93252
  Beta  occ. eigenvalues --   -0.90694  -0.85666  -0.80014  -0.75094  -0.68644
  Beta  occ. eigenvalues --   -0.64460  -0.63690  -0.63090  -0.58580  -0.54443
  Beta  occ. eigenvalues --   -0.51133  -0.50052  -0.46579  -0.44267  -0.40835
  Beta  occ. eigenvalues --   -0.39838  -0.39076  -0.38507  -0.37241  -0.36924
  Beta  occ. eigenvalues --   -0.34843  -0.34311  -0.33516  -0.32971  -0.32267
  Beta  occ. eigenvalues --   -0.31572  -0.31112  -0.29828  -0.29054  -0.28139
  Beta  occ. eigenvalues --   -0.27066  -0.26269  -0.25570  -0.24737  -0.23585
  Beta  occ. eigenvalues --   -0.22441  -0.22276  -0.17465  -0.16482  -0.15941
  Beta  occ. eigenvalues --   -0.14647  -0.13795  -0.12102  -0.10235
  Beta virt. eigenvalues --    0.06541   0.06573   0.07778   0.08061   0.08605
  Beta virt. eigenvalues --    0.08935   0.09085   0.09569   0.10103   0.11219
  Beta virt. eigenvalues --    0.11645   0.12165   0.12751   0.13561   0.13805

 Mulliken charges and spin densities:
               1          2
     1  C   -0.563899  -0.013841
     2  C    0.728904   0.108550
     3  C   -0.558399  -0.023788
     4  C   -0.437629   0.103793
     5  C    0.911058  -0.014155
     6  C   -0.481201   0.072067
     7  C   -0.720977  -0.006927
     8  C    0.092601   0.033795
     9  C   -0.181202   0.151987
    10  C   -0.170709   0.073725
    11  O   -0.385613   0.055436
    12  N   -0.197432   0.011568
    13  C   -0.329494  -0.104612
    14  C   -0.209797   0.221507
    15  O   -0.322793   0.082212
    16  N    0.053081  -0.084698
    17  N    0.125366   0.080158
    18  N   -0.213051   0.216328
    19  H    0.124312   0.006295
    20  H    0.133033   0.012681
    21  H    0.132668   0.001229
    22  H    0.139389   0.002292
    23  H    0.075072  -0.005630
    24  H    0.171202  -0.002081
    25  H    0.114540   0.000526
    26  H    0.154008  -0.017500
    27  H    0.177265   0.000423
    28  H    0.290254   0.012056
    29  H    0.152045   0.020555
    30  H    0.197397   0.006050
 Sum of Mulliken charges =  -1.00000   1.00000

 Dipole moment (field-independent basis, Debye):
    X=             -4.2634    Y=             -1.1659    Z=              2.6194  Tot=              5.1378
 Quadrupole moment (field-independent basis, Debye-Ang):
   XX=           -150.7733   YY=           -147.1547   ZZ=           -115.3224
   XY=              5.2615   XZ=              7.6886   YZ=              3.8499

 Summary of Natural Population Analysis:

                                       Natural Population
                Natural  -----------------------------------------------
    Atom  No    Charge         Core      Valence    Rydberg      Total
 -----------------------------------------------------------------------
      C    1   -0.29245      0.99965     2.28826    0.00454     3.29245
      C    2    0.00588      0.99952     1.98645    0.00815     2.99412
      C    3   -0.11737      0.99953     2.10939    0.00845     3.11737
      C    4   -0.06771      0.99953     2.06011    0.00807     3.06771
      C    5   -0.03612      0.99951     2.02791    0.00871     3.03612
      C    6   -0.07066      0.99954     2.06267    0.00844     3.07066
      C    7   -0.11404      0.99953     2.10613    0.00838     3.11404
      C    8   -0.05289      0.99952     2.04512    0.00826     3.05289
      C    9   -0.12112      0.99950     2.11337    0.00826     3.12112
      C   10    0.33524      0.99965     1.64250    0.02260     2.66476
      O   11   -0.31432      0.99988     3.30817    0.00627     4.31432
      N   12   -0.32287      0.99967     2.81321    0.00999     3.82287
      C   13   -0.13048      0.99957     2.12081    0.01010     3.13048
      C   14    0.36401      0.99970     1.61342    0.02287     2.63599
      O   15   -0.28260      0.99987     3.27538    0.00735     4.28260
      N   16   -0.25059      0.99967     2.73634    0.01458     3.75059
      N   17    0.15764      0.99971     2.32559    0.01706     3.34236
      N   18    0.02262      0.99981     2.46518    0.01238     3.47738
      H   19    0.09889      0.00000     0.40016    0.00095     0.40111
      H   20    0.10037      0.00000     0.39864    0.00099     0.39963
      H   21    0.09776      0.00000     0.40135    0.00089     0.40224
      H   22    0.09214      0.00000     0.40684    0.00102     0.40786
      H   23    0.09644      0.00000     0.40215    0.00141     0.40356
      H   24    0.10516      0.00000     0.39348    0.00136     0.39484
      H   25    0.09328      0.00000     0.40570    0.00102     0.40672
      H   26    0.10388      0.00000     0.39401    0.00211     0.39612
      H   27    0.09569      0.00000     0.40292    0.00139     0.40431
      H   28    0.19167      0.00000     0.30610    0.00223     0.30833
      H   29    0.09912      0.00000     0.39979    0.00109     0.40088
      H   30    0.11343      0.00000     0.38476    0.00181     0.38657
 =======================================================================
   * Total *    0.00000     17.99337    45.79591    0.21073    64.00000

 Normal termination of Gaussian 16 at Fri Dec 11 22:04:52 2020.
