 Gaussian 16, Revision A.03,

 -----------------------------------------------------------
 # opt freq B3LYP/6-31G(d) empiricaldispersion=gd3bj scf=xqc
 -----------------------------------------------------------

 -------------------------------
 CID_81317477_JID_10108_neutraal
 -------------------------------
 Symbolic Z-matrix:
 Charge =  0 Multiplicity = 1

 SCF Done:  E(RB3LYP) =  -938.766656813     A.U. after   15 cycles
 SCF Done:  E(RB3LYP) =  -938.771541792     A.U. after   13 cycles
 SCF Done:  E(RB3LYP) =  -938.771256274     A.U. after   13 cycles
 SCF Done:  E(RB3LYP) =  -938.772044711     A.U. after   12 cycles
 SCF Done:  E(RB3LYP) =  -938.772912730     A.U. after   11 cycles
 SCF Done:  E(RB3LYP) =  -938.773238046     A.U. after   13 cycles
 SCF Done:  E(RB3LYP) =  -938.773284691     A.U. after   13 cycles
 SCF Done:  E(RB3LYP) =  -938.773623803     A.U. after   12 cycles
 SCF Done:  E(RB3LYP) =  -938.773787958     A.U. after   12 cycles
 SCF Done:  E(RB3LYP) =  -938.773898566     A.U. after   12 cycles
 SCF Done:  E(RB3LYP) =  -938.778574668     A.U. after    7 cycles
 SCF Done:  E(RB3LYP) =  -938.778574734     A.U. after    7 cycles
 SCF Done:  E(RB3LYP) =  -938.778574756     A.U. after    7 cycles
 SCF Done:  E(RB3LYP) =  -938.778574776     A.U. after    7 cycles
 SCF Done:  E(RB3LYP) =  -938.778574791     A.U. after    7 cycles
 Optimization completed.
    -- Stationary point found.
 Normal termination of Gaussian 16 at Mon Dec 14 13:51:20 2020.

 --------------------------------------------------------------------
 #N Geom=AllCheck Guess=TCheck SCRF=Check GenChk RB3LYP/6-31G(d) Freq
 --------------------------------------------------------------------

 Structure from the checkpoint file:  "JID_10108.chk"
 -------------------------------
 CID_81317477_JID_10108_neutraal
 -------------------------------
 Charge =  0 Multiplicity = 1

 SCF Done:  E(RB3LYP) =  -938.778574791     A.U. after    1 cycles

  Exact polarizability: 211.280   3.574 159.895  -0.214 -14.062 136.765
 Approx polarizability: 285.896  -6.690 244.043  -5.612 -30.390 222.330

                      1                      2                      3
                      A                      A                      A
 Frequencies --     22.9068                25.5402                50.9576
 Red. masses --      6.2622                10.6936                 4.8860
 Frc consts  --      0.0019                 0.0041                 0.0075
 IR Inten    --      0.6146                 1.3224                 0.2762

                      4                      5                      6
                      A                      A                      A
 Frequencies --     56.3162                61.3359                80.2262
 Red. masses --      6.9560                 4.2215                 5.1166
 Frc consts  --      0.0130                 0.0094                 0.0194
 IR Inten    --      0.2171                 1.0289                 1.2056

                      7                      8                      9
                      A                      A                      A
 Frequencies --     87.5757                93.8354               155.7479
 Red. masses --      4.9446                 4.1555                 4.5914
 Frc consts  --      0.0223                 0.0216                 0.0656
 IR Inten    --      0.0388                 0.1017                 3.2894

                     10                     11                     12
                      A                      A                      A
 Frequencies --    160.7894               173.5972               206.9489
 Red. masses --      3.6926                 4.2057                 5.0056
 Frc consts  --      0.0562                 0.0747                 0.1263
 IR Inten    --      0.8101                 1.3856                 0.5857

                     13                     14                     15
                      A                      A                      A
 Frequencies --    245.5448               282.3130               299.8114
 Red. masses --      1.9862                 3.8856                 4.7044
 Frc consts  --      0.0706                 0.1825                 0.2491
 IR Inten    --      1.6587                 4.3182                 3.1274

                     16                     17                     18
                      A                      A                      A
 Frequencies --    320.4192               324.9372               400.2728
 Red. masses --      3.5578                 4.6052                 2.4243
 Frc consts  --      0.2152                 0.2865                 0.2288
 IR Inten    --      0.8524                 2.8316                 7.3296

                     19                     20                     21
                      A                      A                      A
 Frequencies --    411.7381               441.1545               458.2935
 Red. masses --      2.3449                 2.2052                 3.5433
 Frc consts  --      0.2342                 0.2529                 0.4385
 IR Inten    --      1.4011                 1.0302                 0.3193

                     22                     23                     24
                      A                      A                      A
 Frequencies --    462.2524               506.2436               520.2361
 Red. masses --      3.4149                 3.5254                 3.2828
 Frc consts  --      0.4299                 0.5323                 0.5235
 IR Inten    --      1.9338                18.1327                 0.8188

                     25                     26                     27
                      A                      A                      A
 Frequencies --    535.6315               547.8759               593.3902
 Red. masses --      3.7800                 2.2316                 3.5195
 Frc consts  --      0.6390                 0.3947                 0.7302
 IR Inten    --      2.1852                11.7603                38.8783

                     28                     29                     30
                      A                      A                      A
 Frequencies --    614.8799               635.7530               637.2353
 Red. masses --      2.0557                 2.6018                 1.7980
 Frc consts  --      0.4579                 0.6196                 0.4302
 IR Inten    --     67.4743                19.6032                71.4568

                     31                     32                     33
                      A                      A                      A
 Frequencies --    661.3533               727.7068               744.2342
 Red. masses --      2.4769                 3.4745                 4.6903
 Frc consts  --      0.6383                 1.0841                 1.5306
 IR Inten    --     29.8456                27.5421                31.2640

                     34                     35                     36
                      A                      A                      A
 Frequencies --    751.1874               774.1211               810.1621
 Red. masses --      3.7542                 1.3326                 2.8395
 Frc consts  --      1.2481                 0.4705                 1.0981
 IR Inten    --      3.0745                30.9725                 2.8910

                     37                     38                     39
                      A                      A                      A
 Frequencies --    832.0707               870.4475               875.7212
 Red. masses --      2.7700                 3.0469                 1.5580
 Frc consts  --      1.1299                 1.3602                 0.7040
 IR Inten    --      3.5383                 3.3326                12.0415

                     40                     41                     42
                      A                      A                      A
 Frequencies --    878.6483               879.7860               906.0011
 Red. masses --      2.0042                 3.4550                 2.2368
 Frc consts  --      0.9117                 1.5756                 1.0818
 IR Inten    --      3.7577                 7.0588                 6.1961

                     43                     44                     45
                      A                      A                      A
 Frequencies --    929.5386               941.0304               955.0087
 Red. masses --      2.5821                 2.3869                 1.4368
 Frc consts  --      1.3145                 1.2453                 0.7721
 IR Inten    --      5.2743                24.5330                 2.8791

                     46                     47                     48
                      A                      A                      A
 Frequencies --    966.4229               989.4962               991.4338
 Red. masses --      2.0420                 2.1388                 1.2779
 Frc consts  --      1.1237                 1.2338                 0.7400
 IR Inten    --      9.9196                 0.6594                 0.0295

                     49                     50                     51
                      A                      A                      A
 Frequencies --   1006.4612              1032.7035              1051.7291
 Red. masses --      1.5365                 1.9652                 1.8934
 Frc consts  --      0.9170                 1.2348                 1.2340
 IR Inten    --     24.5288                10.5812                 5.8697

                     52                     53                     54
                      A                      A                      A
 Frequencies --   1082.1638              1108.9926              1109.8427
 Red. masses --      2.2330                 3.5039                 2.0734
 Frc consts  --      1.5408                 2.5390                 1.5047
 IR Inten    --      3.9769                57.8903                31.9674

                     55                     56                     57
                      A                      A                      A
 Frequencies --   1142.1446              1145.8561              1162.3341
 Red. masses --      3.8059                 4.3950                 1.7293
 Frc consts  --      2.9251                 3.4000                 1.3765
 IR Inten    --      3.4596                91.0520                84.4440

                     58                     59                     60
                      A                      A                      A
 Frequencies --   1184.2857              1199.1644              1209.7582
 Red. masses --      2.3656                 1.1019                 2.2463
 Frc consts  --      1.9548                 0.9336                 1.9369
 IR Inten    --      5.0383                 0.5846                 0.1054

                     61                     62                     63
                      A                      A                      A
 Frequencies --   1215.8170              1237.4956              1244.3930
 Red. masses --      1.2730                 1.6615                 1.3721
 Frc consts  --      1.1087                 1.4991                 1.2518
 IR Inten    --     12.1670                58.5279                63.5440

                     64                     65                     66
                      A                      A                      A
 Frequencies --   1253.8913              1260.6307              1316.5255
 Red. masses --      1.4780                 1.7077                 1.3690
 Frc consts  --      1.3691                 1.5990                 1.3980
 IR Inten    --      1.2918                15.9845                 9.6932

                     67                     68                     69
                      A                      A                      A
 Frequencies --   1319.2800              1325.7788              1339.0891
 Red. masses --      1.2119                 1.4458                 1.3537
 Frc consts  --      1.2428                 1.4973                 1.4302
 IR Inten    --     32.8459                 3.3150                 1.7985

                     70                     71                     72
                      A                      A                      A
 Frequencies --   1343.6759              1357.8537              1362.2360
 Red. masses --      1.3378                 1.2697                 3.3620
 Frc consts  --      1.4230                 1.3793                 3.6759
 IR Inten    --      0.1262                 5.5160                 8.5252

                     73                     74                     75
                      A                      A                      A
 Frequencies --   1366.4691              1378.7679              1392.6962
 Red. masses --      2.0210                 2.4271                 1.4035
 Frc consts  --      2.2234                 2.7184                 1.6039
 IR Inten    --    110.3951               139.9713                17.3261

                     76                     77                     78
                      A                      A                      A
 Frequencies --   1403.9180              1406.9541              1418.9056
 Red. masses --      1.3009                 1.6339                 1.3649
 Frc consts  --      1.5107                 1.9056                 1.6191
 IR Inten    --     22.1325                32.5376                 6.6822

                     79                     80                     81
                      A                      A                      A
 Frequencies --   1443.4573              1487.6745              1502.0349
 Red. masses --      1.3088                 1.5718                 2.2985
 Frc consts  --      1.6067                 2.0496                 3.0554
 IR Inten    --      7.5791                70.5881                 5.6609

                     82                     83                     84
                      A                      A                      A
 Frequencies --   1508.4097              1517.9179              1521.1419
 Red. masses --      1.0921                 1.0918                 1.0954
 Frc consts  --      1.4641                 1.4822                 1.4933
 IR Inten    --      4.3691                 8.9597                 0.7028

                     85                     86                     87
                      A                      A                      A
 Frequencies --   1526.6640              1539.2468              1543.2867
 Red. masses --      1.0911                 1.0992                 2.2669
 Frc consts  --      1.4983                 1.5344                 3.1812
 IR Inten    --      0.3379                 2.5669                16.1317

                     88                     89                     90
                      A                      A                      A
 Frequencies --   1559.5725              1642.5497              1666.7445
 Red. masses --      1.1282                 6.0486                 5.8045
 Frc consts  --      1.6167                 9.6148                 9.5006
 IR Inten    --      3.9898                 1.3223                 0.2665

                     91                     92                     93
                      A                      A                      A
 Frequencies --   1772.8312              1856.4573              2967.3229
 Red. masses --      7.7206                 9.6065                 1.0724
 Frc consts  --     14.2968                19.5067                 5.5631
 IR Inten    --    382.7841               327.2924                54.3668

                     94                     95                     96
                      A                      A                      A
 Frequencies --   3028.5940              3032.4500              3048.8918
 Red. masses --      1.0731                 1.0655                 1.0601
 Frc consts  --      5.7991                 5.7731                 5.8061
 IR Inten    --     40.6791                41.8146                26.6630

                     97                     98                     99
                      A                      A                      A
 Frequencies --   3063.1873              3084.9158              3089.7792
 Red. masses --      1.0610                 1.0896                 1.1004
 Frc consts  --      5.8655                 6.1097                 6.1897
 IR Inten    --     25.3934                 4.2219                24.8268

                    100                    101                    102
                      A                      A                      A
 Frequencies --   3106.1318              3108.9191              3111.1540
 Red. masses --      1.0587                 1.0987                 1.0938
 Frc consts  --      6.0184                 6.2565                 6.2380
 IR Inten    --      6.3943                30.8145                43.8161

                    103                    104                    105
                      A                      A                      A
 Frequencies --   3114.9850              3151.1504              3157.8252
 Red. masses --      1.0992                 1.0893                 1.1055
 Frc consts  --      6.2839                 6.3730                 6.4952
 IR Inten    --     58.0782                 3.1195                 2.0890

                    106                    107                    108
                      A                      A                      A
 Frequencies --   3180.9327              3188.4736              3200.4945
 Red. masses --      1.0871                 1.0883                 1.0921
 Frc consts  --      6.4810                 6.5188                 6.5907
 IR Inten    --      8.1886                 1.4648                19.5147

                    109                    110                    111
                      A                      A                      A
 Frequencies --   3214.2100              3572.0620              3682.2394
 Red. masses --      1.0976                 1.0755                 1.0641
 Frc consts  --      6.6808                 8.0853                 8.5004
 IR Inten    --     23.9880                18.6363                55.2885

 - Thermochemistry -
 -------------------
 Temperature   298.150 Kelvin.  Pressure   1.00000 Atm.
 Atom     1 has atomic number  6 and mass  12.00000

 Molecular mass:   277.13141 amu.
 Principal axes and moments of inertia in atomic units:
                           1         2         3
     Eigenvalues --  3595.194178237.952289941.59495
           X            0.99989   0.00978   0.01145
           Y           -0.00954   0.99974  -0.02094
           Z           -0.01166   0.02083   0.99972
 This molecule is an asymmetric top.
 Rotational symmetry number  1.
 Warning -- assumption of classical behavior for rotation
           may cause significant error
 Rotational temperatures (Kelvin)      0.02409     0.01051     0.00871
 Rotational constants (GHZ):           0.50199     0.21908     0.18153
 Zero-point vibrational energy     864120.4 (Joules/Mol)
                                  206.52974 (Kcal/Mol)
 Warning -- explicit consideration of  28 degrees of freedom as
           vibrations may cause significant error
 Vibrational temperatures:     32.96    36.75    73.32    81.03    88.25
          (Kelvin)            115.43   126.00   135.01   224.09   231.34
                              249.77   297.75   353.28   406.19   431.36
                              461.01   467.51   575.90   592.40   634.72
                              659.38   665.08   728.37   748.50   770.65
                              788.27   853.76   884.68   914.71   916.84
                              951.54  1047.01  1070.79  1080.79  1113.79
                             1165.64  1197.16  1252.38  1259.97  1264.18
                             1265.82  1303.53  1337.40  1353.93  1374.04
                             1390.47  1423.66  1426.45  1448.07  1485.83
                             1513.20  1556.99  1595.59  1596.82  1643.29
                             1648.63  1672.34  1703.92  1725.33  1740.57
                             1749.29  1780.48  1790.40  1804.07  1813.77
                             1894.19  1898.15  1907.50  1926.65  1933.25
                             1953.65  1959.95  1966.04  1983.74  2003.78
                             2019.92  2024.29  2041.49  2076.81  2140.43
                             2161.09  2170.27  2183.95  2188.58  2196.53
                             2214.63  2220.45  2243.88  2363.26  2398.07
                             2550.71  2671.03  4269.32  4357.47  4363.02
                             4386.68  4407.24  4438.51  4445.50  4469.03
                             4473.04  4476.26  4481.77  4533.80  4543.41
                             4576.65  4587.50  4604.80  4624.53  5139.40
                             5297.92

 Zero-point correction=                           0.329126 (Hartree/Particle)
 Thermal correction to Energy=                    0.347563
 Thermal correction to Enthalpy=                  0.348507
 Thermal correction to Gibbs Free Energy=         0.280138
 Sum of electronic and zero-point Energies=           -938.449449
 Sum of electronic and thermal Energies=              -938.431012
 Sum of electronic and thermal Enthalpies=            -938.430068
 Sum of electronic and thermal Free Energies=         -938.498436

                     E (Thermal)             CV                S
                      KCal/Mol        Cal/Mol-Kelvin    Cal/Mol-Kelvin
 Total                  218.099             70.088            143.894
 Electronic               0.000              0.000              0.000
 Translational            0.889              2.981             42.756
 Rotational               0.889              2.981             34.042
 Vibrational            216.322             64.126             67.095
 Vibration     1          0.593              1.985              6.365
 Vibration     2          0.593              1.985              6.149
 Vibration     3          0.595              1.977              4.780
 Vibration     4          0.596              1.975              4.582
 Vibration     5          0.597              1.973              4.414
 Vibration     6          0.600              1.963              3.885
 Vibration     7          0.601              1.958              3.714
 Vibration     8          0.603              1.954              3.578
 Vibration     9          0.620              1.896              2.601
 Vibration    10          0.622              1.890              2.540
 Vibration    11          0.627              1.875              2.396
 Vibration    12          0.641              1.830              2.070
 Vibration    13          0.660              1.770              1.762
 Vibration    14          0.681              1.706              1.520
 Vibration    15          0.692              1.674              1.418
 Vibration    16          0.706              1.634              1.308
 Vibration    17          0.709              1.626              1.285
 Vibration    18          0.766              1.470              0.962
 Vibration    19          0.776              1.445              0.920
 Vibration    20          0.801              1.380              0.823
 Vibration    21          0.816              1.343              0.771
 Vibration    22          0.820              1.334              0.760
 Vibration    23          0.861              1.236              0.643
 Vibration    24          0.875              1.205              0.609
 Vibration    25          0.891              1.171              0.575
 Vibration    26          0.903              1.144              0.549
 Vibration    27          0.951              1.046              0.461
 Vibration    28          0.974              1.000              0.425

                           ! Non-Optimized Parameters !
 Normal termination of Gaussian 16 at Mon Dec 14 14:11:49 2020.

 ----------------------------------------------------------------------
 # B3LYP/6-311++G(d,p) empiricaldispersion=gd3bj scf=xqc pop=npa geom=c
 heck
 ----------------------------------------------------------------------

 ---------------------------------------
 CID_81317477_JID_10108_Energie_neutraal
 ---------------------------------------
 Structure from the checkpoint file:  "JID_10108.chk"
 Charge =  0 Multiplicity = 1

 SCF Done:  E(RB3LYP) =  -939.054092731     A.U. after   15 cycles
 Normal termination of Gaussian 16 at Mon Dec 14 14:19:44 2020.

 ----------------------------------------------------------------------
 # B3LYP/6-311++G(d,p) empiricaldispersion=gd3bj scf=xqc pop=npa geom=c
 heck
 ----------------------------------------------------------------------

 -------------------------------------
 CID_81317477_JID_10108_Energie_kation
 -------------------------------------
 Structure from the checkpoint file:  "JID_10108.chk"
 Charge =  1 Multiplicity = 2

 SCF Done:  E(UB3LYP) =  -938.744576330     A.U. after   29 cycles
 Normal termination of Gaussian 16 at Mon Dec 14 14:40:12 2020.
 Gaussian 16:  ES64L-G16RevA.03 25-Dec-2016

 ----------------------------------------------------------------------
 # B3LYP/6-311++G(d,p) empiricaldispersion=gd3bj scf=xqc pop=npa geom=c
 heck
 ----------------------------------------------------------------------

 ------------------------------------
 CID_81317477_JID_10108_Energie_anion
 ------------------------------------
 Structure from the checkpoint file:  "JID_10108.chk"
 Charge = -1 Multiplicity = 2

                         Standard orientation:
 ---------------------------------------------------------------------
 Center     Atomic      Atomic             Coordinates (Angstroms)
 Number     Number       Type             X           Y           Z
 ---------------------------------------------------------------------
      1          6           0       -4.080474    0.216323   -1.424482
      2          6           0       -2.919649    1.105156   -0.956223
      3          6           0       -2.613400    0.802852    0.524555
      4          6           0       -2.409413   -0.711092    0.729542
      5          8           0       -3.542596   -1.441002    0.283821
      6          6           0       -3.783396   -1.248940   -1.104302
      7          6           0       -1.513297    1.647820    1.165433
      8          8           0       -1.764269    2.357804    2.132780
      9          7           0       -0.215940    1.571499    0.704598
     10          6           0        0.319309    1.055957   -0.556542
     11          6           0        1.821699    0.894708   -0.461576
     12          6           0        2.644085    1.778443   -1.167597
     13          6           0        4.033737    1.676750   -1.113483
     14          6           0        4.619169    0.677505   -0.338729
     15          6           0        3.809781   -0.204652    0.375728
     16          6           0        2.415866   -0.106012    0.330259
     17          6           0        1.592017   -1.116556    1.110855
     18          6           0        1.438810   -2.402512    0.323396
     19          8           0        2.039596   -3.431664    0.522816
     20          8           0        0.544440   -2.267225   -0.694427
     21          1           0       -5.004097    0.508510   -0.909738
     22          1           0       -4.250351    0.336090   -2.501716
     23          1           0       -2.046623    0.903222   -1.586214
     24          1           0       -3.165068    2.166203   -1.079817
     25          1           0       -3.501946    1.070871    1.104268
     26          1           0       -1.513504   -1.072863    0.204450
     27          1           0       -2.299281   -0.937405    1.794060
     28          1           0       -4.630545   -1.893602   -1.355367
     29          1           0       -2.908136   -1.590350   -1.686016
     30          1           0        0.385117    2.227550    1.191558
     31          1           0       -0.143883    0.095691   -0.783719
     32          1           0        0.089768    1.734042   -1.389726
     33          1           0        2.183167    2.556147   -1.771608
     34          1           0        4.651841    2.373824   -1.671555
     35          1           0        5.699933    0.583738   -0.287293
     36          1           0        4.261194   -0.989148    0.977405
     37          1           0        2.099802   -1.376243    2.041754
     38          1           0        0.608784   -0.709411    1.355506
     39          1           0        0.528970   -3.125156   -1.159338
 ---------------------------------------------------------------------

 SCF Done:  E(UB3LYP) =  -939.049977668     A.U. after   33 cycles
 SCF Done:  E(UB3LYP) =  -939.049977668     a.u. after    1 cycles

 The electronic state is 2-A.
 Alpha  occ. eigenvalues --  -19.07492 -19.03644 -19.01478 -18.99601 -14.24226
 Alpha  occ. eigenvalues --  -10.20152 -10.18141 -10.12827 -10.12585 -10.11725
 Alpha  occ. eigenvalues --  -10.09308 -10.08833 -10.08586 -10.08138 -10.08131
 Alpha  occ. eigenvalues --  -10.08080 -10.07635 -10.07393 -10.07315 -10.06822
 Alpha  occ. eigenvalues --   -1.01265  -0.95192  -0.94650  -0.92358  -0.82898
 Alpha  occ. eigenvalues --   -0.76337  -0.72097  -0.69218  -0.68364  -0.67036
 Alpha  occ. eigenvalues --   -0.62259  -0.59383  -0.57036  -0.56088  -0.52378
 Alpha  occ. eigenvalues --   -0.50564  -0.49173  -0.48697  -0.48270  -0.42042
 Alpha  occ. eigenvalues --   -0.41812  -0.40802  -0.39556  -0.39147  -0.38419
 Alpha  occ. eigenvalues --   -0.37866  -0.37759  -0.36262  -0.36091  -0.34780
 Alpha  occ. eigenvalues --   -0.34194  -0.33699  -0.32623  -0.31928  -0.30841
 Alpha  occ. eigenvalues --   -0.30686  -0.30221  -0.30031  -0.29926  -0.28893
 Alpha  occ. eigenvalues --   -0.26550  -0.26422  -0.25632  -0.25054  -0.24739
 Alpha  occ. eigenvalues --   -0.24137  -0.23296  -0.21819  -0.19184  -0.17706
 Alpha  occ. eigenvalues --   -0.16500  -0.16391  -0.15470  -0.14828   0.03982
 Alpha virt. eigenvalues --    0.05600   0.06646   0.06799   0.07463   0.07989
 Alpha virt. eigenvalues --    0.08186   0.08440   0.09134   0.09442   0.09798
 Alpha virt. eigenvalues --    0.10179   0.10329   0.10757   0.11123   0.11653

  Beta  occ. eigenvalues --  -19.07454 -19.03639 -19.01392 -18.99600 -14.24198
  Beta  occ. eigenvalues --  -10.20012 -10.18136 -10.12815 -10.12566 -10.11722
  Beta  occ. eigenvalues --  -10.09306 -10.08855 -10.08573 -10.08119 -10.08038
  Beta  occ. eigenvalues --  -10.07917 -10.07659 -10.07398 -10.07269 -10.06675
  Beta  occ. eigenvalues --   -1.01130  -0.95181  -0.94643  -0.92224  -0.82849
  Beta  occ. eigenvalues --   -0.76145  -0.72073  -0.69000  -0.68329  -0.66902
  Beta  occ. eigenvalues --   -0.62086  -0.59263  -0.57000  -0.56053  -0.52171
  Beta  occ. eigenvalues --   -0.50506  -0.49121  -0.48608  -0.48090  -0.41952
  Beta  occ. eigenvalues --   -0.41736  -0.40685  -0.39498  -0.39077  -0.38319
  Beta  occ. eigenvalues --   -0.37732  -0.37659  -0.36214  -0.35904  -0.34628
  Beta  occ. eigenvalues --   -0.34104  -0.33664  -0.32561  -0.31876  -0.30744
  Beta  occ. eigenvalues --   -0.30567  -0.30102  -0.29994  -0.29847  -0.28859
  Beta  occ. eigenvalues --   -0.26495  -0.26071  -0.25589  -0.25009  -0.24649
  Beta  occ. eigenvalues --   -0.24062  -0.22958  -0.21787  -0.18999  -0.17675
  Beta  occ. eigenvalues --   -0.16469  -0.16188  -0.15202  -0.14134
  Beta virt. eigenvalues --    0.06199   0.06718   0.07223   0.07341   0.07818
  Beta virt. eigenvalues --    0.08179   0.08393   0.08690   0.09306   0.09713
  Beta virt. eigenvalues --    0.10120   0.10364   0.10514   0.11155   0.11340

 Mulliken charges and spin densities:
               1          2
     1  C    0.052988  -0.453832
     2  C   -0.111955   0.058080
     3  C    0.048341   0.112310
     4  C   -0.652404   0.046496
     5  O   -0.081957   0.016532
     6  C    0.263342  -0.577231
     7  C    0.013334  -0.198657
     8  O   -0.304860  -0.005517
     9  N   -0.135595  -0.040631
    10  C   -0.172622  -0.286163
    11  C   -0.137208   0.421993
    12  C   -0.401521   0.131110
    13  C    0.184664  -0.497053
    14  C   -0.265455  -0.111783
    15  C   -0.320227   0.192818
    16  C    0.406789   0.196291
    17  C    0.222756  -0.692108
    18  C   -0.094362   0.014473
    19  O   -0.297472   0.038304
    20  O   -0.218013   0.023303
    21  H    0.231532  -0.090370
    22  H   -0.589147   0.766670
    23  H    0.154465  -0.020110
    24  H   -0.105979   0.295473
    25  H    0.185488   0.057039
    26  H    0.609779  -0.290986
    27  H    0.154834   0.042316
    28  H   -0.213508   0.407039
    29  H   -0.045901   0.150110
    30  H    0.293154   0.006406
    31  H    0.238097  -0.078376
    32  H   -0.069330   0.263164
    33  H   -0.227061   0.372292
    34  H    0.000022   0.131431
    35  H    0.041887   0.091610
    36  H    0.079952   0.088737
    37  H    0.029396   0.212916
    38  H    0.064714   0.052840
    39  H    0.169044   0.153066
 Sum of Mulliken charges =  -1.00000   1.00000

 Dipole moment (field-independent basis, Debye):
    X=              1.2244    Y=              0.1270    Z=              0.6451  Tot=              1.3898
 Quadrupole moment (field-independent basis, Debye-Ang):
   XX=           -189.8232   YY=           -167.9718   ZZ=           -159.2131
   XY=              3.5602   XZ=             -5.3788   YZ=             -1.0879

 Summary of Natural Population Analysis:

                                       Natural Population
                Natural  -----------------------------------------------
    Atom  No    Charge         Core      Valence    Rydberg      Total
 -----------------------------------------------------------------------
      C    1   -0.20296      0.99963     2.19450    0.00884     3.20296
      C    2   -0.19086      0.99961     2.18213    0.00912     3.19086
      C    3   -0.16329      0.99955     2.15344    0.01031     3.16329
      C    4   -0.01052      0.99955     1.99980    0.01117     3.01052
      O    5   -0.29841      0.99989     3.28952    0.00900     4.29841
      C    6   -0.01135      0.99958     1.99783    0.01394     3.01135
      C    7    0.34895      0.99963     1.62852    0.02290     2.65105
      O    8   -0.32402      0.99988     3.31861    0.00553     4.32402
      N    9   -0.31770      0.99967     2.80916    0.00887     3.81770
      C   10   -0.10321      0.99957     2.09307    0.01057     3.10321
      C   11   -0.01232      0.99945     2.00287    0.01000     3.01232
      C   12   -0.10348      0.99952     2.09416    0.00980     3.10348
      C   13   -0.08061      0.99957     2.07152    0.00952     3.08061
      C   14   -0.09387      0.99957     2.08444    0.00986     3.09387
      C   15   -0.09934      0.99952     2.09087    0.00896     3.09934
      C   16    0.01507      0.99945     1.97509    0.01039     2.98493
      C   17   -0.24962      0.99955     2.24052    0.00954     3.24962
      C   18    0.42710      0.99972     1.54889    0.02429     2.57290
      O   19   -0.30389      0.99986     3.29794    0.00608     4.30389
      O   20   -0.35208      0.99987     3.34544    0.00677     4.35208
      H   21    0.09535      0.00000     0.40349    0.00116     0.40465
      H   22    0.10441      0.00000     0.39386    0.00172     0.39559
      H   23    0.09884      0.00000     0.39919    0.00197     0.40116
      H   24    0.10261      0.00000     0.39626    0.00113     0.39739
      H   25    0.11115      0.00000     0.38698    0.00187     0.38885
      H   26    0.08790      0.00000     0.41012    0.00199     0.41210
      H   27    0.09307      0.00000     0.40587    0.00107     0.40693
      H   28    0.09144      0.00000     0.40735    0.00121     0.40856
      H   29    0.07903      0.00000     0.41931    0.00166     0.42097
      H   30    0.19488      0.00000     0.30289    0.00222     0.30512
      H   31    0.11019      0.00000     0.38710    0.00271     0.38981
      H   32    0.09375      0.00000     0.40441    0.00184     0.40625
      H   33    0.09866      0.00000     0.40025    0.00108     0.40134
      H   34    0.09594      0.00000     0.40326    0.00080     0.40406
      H   35    0.09640      0.00000     0.40283    0.00078     0.40360
      H   36    0.10049      0.00000     0.39856    0.00095     0.39951
      H   37    0.11441      0.00000     0.38438    0.00121     0.38559
      H   38    0.11801      0.00000     0.38040    0.00159     0.38199
      H   39    0.23988      0.00000     0.25681    0.00332     0.26012
 =======================================================================
   * Total *   -0.00000     19.99264    53.76163    0.24573    74.00000

 Normal termination of Gaussian 16 at Mon Dec 14 15:04:11 2020.
