 Gaussian 16, Revision A.03,

 -----------------------------------------------------------
 # opt freq B3LYP/6-31G(d) empiricaldispersion=gd3bj scf=xqc
 -----------------------------------------------------------

 ------------------------------
 CID_63974543_JID_5192_neutraal
 ------------------------------
 Symbolic Z-matrix:
 Charge =  0 Multiplicity = 1

 SCF Done:  E(RB3LYP) =  -646.649368452     A.U. after   14 cycles
 SCF Done:  E(RB3LYP) =  -646.653822003     A.U. after   12 cycles
 SCF Done:  E(RB3LYP) =  -646.654662702     A.U. after   12 cycles
 SCF Done:  E(RB3LYP) =  -646.655553382     A.U. after   12 cycles
 SCF Done:  E(RB3LYP) =  -646.656093258     A.U. after   12 cycles
 SCF Done:  E(RB3LYP) =  -646.656405721     A.U. after   12 cycles
 SCF Done:  E(RB3LYP) =  -646.656513815     A.U. after   11 cycles
 SCF Done:  E(RB3LYP) =  -646.656567230     A.U. after   11 cycles
 SCF Done:  E(RB3LYP) =  -646.656584775     A.U. after   11 cycles
 SCF Done:  E(RB3LYP) =  -646.656596412     A.U. after   11 cycles
 SCF Done:  E(RB3LYP) =  -646.656856561     A.U. after   13 cycles
 SCF Done:  E(RB3LYP) =  -646.656867996     A.U. after   10 cycles
 SCF Done:  E(RB3LYP) =  -646.656868374     A.U. after    9 cycles
 SCF Done:  E(RB3LYP) =  -646.656868584     A.U. after    8 cycles
 SCF Done:  E(RB3LYP) =  -646.656868611     A.U. after    6 cycles
 Optimization completed.
    -- Stationary point found.
 Normal termination of Gaussian 16 at Thu Dec 10 14:56:59 2020.

 --------------------------------------------------------------------
 #N Geom=AllCheck Guess=TCheck SCRF=Check GenChk RB3LYP/6-31G(d) Freq
 --------------------------------------------------------------------

 Structure from the checkpoint file:  "JID_5192.chk"
 ------------------------------
 CID_63974543_JID_5192_neutraal
 ------------------------------
 Charge =  0 Multiplicity = 1

 SCF Done:  E(RB3LYP) =  -646.656868611     A.U. after    1 cycles

  Exact polarizability: 164.534 -13.321 131.094   6.815  -0.559 101.603
 Approx polarizability: 227.270 -28.803 220.572  17.484  -2.757 166.736

                      1                      2                      3
                      A                      A                      A
 Frequencies --     24.6980                45.2853                61.6939
 Red. masses --      3.8271                 3.6669                 2.5274
 Frc consts  --      0.0014                 0.0044                 0.0057
 IR Inten    --      2.0256                 1.6058                 0.6445

                      4                      5                      6
                      A                      A                      A
 Frequencies --     66.7873                85.3146               163.0084
 Red. masses --      1.2927                 1.0723                 3.9490
 Frc consts  --      0.0034                 0.0046                 0.0618
 IR Inten    --      0.8532                 0.4575                 2.0175

                      7                      8                      9
                      A                      A                      A
 Frequencies --    192.7508               194.3576               202.8033
 Red. masses --      2.8452                 3.2143                 3.5569
 Frc consts  --      0.0623                 0.0715                 0.0862
 IR Inten    --      8.4731                 0.1164                 0.7823

                     10                     11                     12
                      A                      A                      A
 Frequencies --    214.9243               286.9607               309.1554
 Red. masses --      3.9492                 3.8594                 1.5857
 Frc consts  --      0.1075                 0.1872                 0.0893
 IR Inten    --     11.3493                13.9825                40.7102

                     13                     14                     15
                      A                      A                      A
 Frequencies --    353.1685               370.2666               416.2122
 Red. masses --      2.6554                 2.8831                 3.3073
 Frc consts  --      0.1951                 0.2329                 0.3376
 IR Inten    --      4.0026                 5.4560                 0.7182

                     16                     17                     18
                      A                      A                      A
 Frequencies --    443.0379               479.5139               557.9829
 Red. masses --      3.6982                 4.8916                 4.8545
 Frc consts  --      0.4277                 0.6627                 0.8905
 IR Inten    --      0.8275                 2.9543                 0.7267

                     19                     20                     21
                      A                      A                      A
 Frequencies --    582.5200               634.5716               646.5222
 Red. masses --      4.1105                 4.4357                 4.9545
 Frc consts  --      0.8218                 1.0524                 1.2202
 IR Inten    --      4.0192                 0.7003                 8.8877

                     22                     23                     24
                      A                      A                      A
 Frequencies --    699.9455               718.5428               730.6511
 Red. masses --      5.0871                 1.5339                 3.1543
 Frc consts  --      1.4684                 0.4666                 0.9922
 IR Inten    --      2.8604                28.0772                 4.5047

                     25                     26                     27
                      A                      A                      A
 Frequencies --    742.0007               770.6547               782.1238
 Red. masses --      4.2315                 2.7017                 1.6656
 Frc consts  --      1.3726                 0.9454                 0.6003
 IR Inten    --      6.6056                11.5798                23.5776

                     28                     29                     30
                      A                      A                      A
 Frequencies --    830.0142               840.1079               867.7459
 Red. masses --      2.2111                 1.3017                 1.7110
 Frc consts  --      0.8975                 0.5413                 0.7591
 IR Inten    --     68.3406                10.7436               190.4309

                     31                     32                     33
                      A                      A                      A
 Frequencies --    918.8287               936.4121               942.8146
 Red. masses --      1.3917                 5.7614                 2.7605
 Frc consts  --      0.6923                 2.9765                 1.4457
 IR Inten    --      1.0434                 3.9869                 0.6172

                     34                     35                     36
                      A                      A                      A
 Frequencies --   1002.5420              1014.1681              1043.1832
 Red. masses --      1.2958                 4.7325                 1.9009
 Frc consts  --      0.7674                 2.8679                 1.2188
 IR Inten    --      0.2528                 3.7144                 1.7028

                     37                     38                     39
                      A                      A                      A
 Frequencies --   1068.5797              1074.8853              1111.6366
 Red. masses --      1.8722                 1.5702                 1.3162
 Frc consts  --      1.2595                 1.0689                 0.9583
 IR Inten    --      0.0507                 6.5096                 7.1853

                     40                     41                     42
                      A                      A                      A
 Frequencies --   1114.9280              1138.6749              1154.9049
 Red. masses --      2.0133                 2.0009                 1.3499
 Frc consts  --      1.4745                 1.5285                 1.0608
 IR Inten    --     14.7062                 3.5230                 3.1846

                     43                     44                     45
                      A                      A                      A
 Frequencies --   1169.9045              1190.9164              1205.4861
 Red. masses --      2.1389                 1.2374                 1.5149
 Frc consts  --      1.7248                 1.0340                 1.2971
 IR Inten    --      8.5086                 1.0544                 5.4020

                     46                     47                     48
                      A                      A                      A
 Frequencies --   1234.4522              1258.0078              1286.9044
 Red. masses --      2.1548                 2.1785                 3.3168
 Frc consts  --      1.9347                 2.0313                 3.2364
 IR Inten    --      5.2312                18.2192                 2.6421

                     49                     50                     51
                      A                      A                      A
 Frequencies --   1316.6527              1332.5372              1335.0192
 Red. masses --      2.6444                 2.0848                 2.5247
 Frc consts  --      2.7010                 2.1811                 2.6512
 IR Inten    --     33.4038                 2.7614                 8.0451

                     52                     53                     54
                      A                      A                      A
 Frequencies --   1399.9815              1404.6148              1438.3020
 Red. masses --      2.8480                 1.6144                 1.2798
 Frc consts  --      3.2888                 1.8766                 1.5599
 IR Inten    --      1.2068                12.3589                 1.5577

                     55                     56                     57
                      A                      A                      A
 Frequencies --   1453.9999              1474.7674              1481.8790
 Red. masses --      2.4434                 2.6911                 1.8902
 Frc consts  --      3.0435                 3.4484                 2.4455
 IR Inten    --     17.0583                 0.7670                 4.2239

                     58                     59                     60
                      A                      A                      A
 Frequencies --   1500.3179              1506.9350              1517.4321
 Red. masses --      2.2836                 1.0475                 1.0541
 Frc consts  --      3.0286                 1.4015                 1.4300
 IR Inten    --     59.8816                 5.3072                16.0530

                     61                     62                     63
                      A                      A                      A
 Frequencies --   1525.0749              1530.1901              1538.5750
 Red. masses --      1.2061                 1.1916                 2.8630
 Frc consts  --      1.6528                 1.6439                 3.9931
 IR Inten    --     25.3522                13.4563                24.1531

                     64                     65                     66
                      A                      A                      A
 Frequencies --   1566.7802              1638.5887              1652.7712
 Red. masses --      3.6291                 6.4374                 5.2072
 Frc consts  --      5.2489                10.1836                 8.3808
 IR Inten    --      9.1243                61.8778                46.9768

                     67                     68                     69
                      A                      A                      A
 Frequencies --   1666.6110              3050.8211              3055.1972
 Red. masses --      1.1018                 1.0841                 1.0364
 Frc consts  --      1.8030                 5.9449                 5.6999
 IR Inten    --     55.9212                13.2916                18.7568

                     70                     71                     72
                      A                      A                      A
 Frequencies --   3072.3961              3112.9794              3139.2788
 Red. masses --      1.0377                 1.1008                 1.1028
 Frc consts  --      5.7713                 6.2850                 6.4031
 IR Inten    --     33.0953                13.7258                32.7032

                     73                     74                     75
                      A                      A                      A
 Frequencies --   3139.4817              3186.0871              3192.9183
 Red. masses --      1.1027                 1.1011                 1.0872
 Frc consts  --      6.4033                 6.5853                 6.5303
 IR Inten    --      7.7130                 4.2716                 6.8513

                     76                     77                     78
                      A                      A                      A
 Frequencies --   3209.0711              3218.1140              3256.5782
 Red. masses --      1.0922                 1.0967                 1.0908
 Frc consts  --      6.6269                 6.6918                 6.8159
 IR Inten    --     17.3513                 7.6625                 8.8153

                     79                     80                     81
                      A                      A                      A
 Frequencies --   3282.4768              3491.7979              3596.3385
 Red. masses --      1.1044                 1.0489                 1.0944
 Frc consts  --      7.0108                 7.5346                 8.3398
 IR Inten    --      7.6622                17.3506                11.8269

 - Thermochemistry -
 -------------------
 Temperature   298.150 Kelvin.  Pressure   1.00000 Atm.
 Atom     1 has atomic number  6 and mass  12.00000

 Molecular mass:   202.12185 amu.
 Principal axes and moments of inertia in atomic units:
                           1         2         3
     Eigenvalues --  1611.426494393.325194672.10080
           X            0.99998  -0.00556   0.00297
           Y            0.00565   0.99953  -0.03005
           Z           -0.00280   0.03007   0.99954
 This molecule is an asymmetric top.
 Rotational symmetry number  1.
 Warning -- assumption of classical behavior for rotation
           may cause significant error
 Rotational temperatures (Kelvin)      0.05375     0.01971     0.01854
 Rotational constants (GHZ):           1.11996     0.41079     0.38628
 Zero-point vibrational energy     636802.8 (Joules/Mol)
                                  152.19953 (Kcal/Mol)
 Warning -- explicit consideration of  19 degrees of freedom as
           vibrations may cause significant error
 Vibrational temperatures:     35.53    65.16    88.76    96.09   122.75
          (Kelvin)            234.53   277.33   279.64   291.79   309.23
                              412.87   444.81   508.13   532.73   598.84
                              637.43   689.91   802.81   838.12   913.01
                              930.20  1007.07  1033.82  1051.24  1067.57
                             1108.80  1125.30  1194.21  1208.73  1248.49
                             1321.99  1347.29  1356.50  1442.43  1459.16
                             1500.91  1537.45  1546.52  1599.40  1604.13
                             1638.30  1661.65  1683.23  1713.46  1734.43
                             1776.10  1809.99  1851.57  1894.37  1917.22
                             1920.79  2014.26  2020.93  2069.40  2091.98
                             2121.86  2132.09  2158.62  2168.14  2183.25
                             2194.24  2201.60  2213.67  2254.25  2357.56
                             2377.97  2397.88  4389.45  4395.75  4420.49
                             4478.88  4516.72  4517.01  4584.07  4593.90
                             4617.14  4630.15  4685.49  4722.75  5023.92
                             5174.33

 Zero-point correction=                           0.242545 (Hartree/Particle)
 Thermal correction to Energy=                    0.256696
 Thermal correction to Enthalpy=                  0.257640
 Thermal correction to Gibbs Free Energy=         0.200050
 Sum of electronic and zero-point Energies=           -646.414323
 Sum of electronic and thermal Energies=              -646.400173
 Sum of electronic and thermal Enthalpies=            -646.399229
 Sum of electronic and thermal Free Energies=         -646.456819

                     E (Thermal)             CV                S
                      KCal/Mol        Cal/Mol-Kelvin    Cal/Mol-Kelvin
 Total                  161.079             52.764            121.209
 Electronic               0.000              0.000              0.000
 Translational            0.889              2.981             41.816
 Rotational               0.889              2.981             31.870
 Vibrational            159.302             46.803             47.524
 Vibration     1          0.593              1.985              6.215
 Vibration     2          0.595              1.979              5.013
 Vibration     3          0.597              1.973              4.402
 Vibration     4          0.598              1.970              4.246
 Vibration     5          0.601              1.959              3.765
 Vibration     6          0.623              1.888              2.515
 Vibration     7          0.635              1.850              2.201
 Vibration     8          0.635              1.848              2.186
 Vibration     9          0.639              1.836              2.108
 Vibration    10          0.645              1.818              2.001
 Vibration    11          0.684              1.698              1.492
 Vibration    12          0.699              1.656              1.367
 Vibration    13          0.729              1.569              1.152
 Vibration    14          0.742              1.533              1.079
 Vibration    15          0.779              1.435              0.905
 Vibration    16          0.803              1.376              0.817
 Vibration    17          0.836              1.295              0.711
 Vibration    18          0.914              1.122              0.528
 Vibration    19          0.939              1.069              0.481

                           ! Non-Optimized Parameters !
 Normal termination of Gaussian 16 at Thu Dec 10 15:06:21 2020.

 ----------------------------------------------------------------------
 # B3LYP/6-311++G(d,p) empiricaldispersion=gd3bj scf=xqc pop=npa geom=c
 heck
 ----------------------------------------------------------------------

 --------------------------------------
 CID_63974543_JID_5192_Energie_neutraal
 --------------------------------------
 Structure from the checkpoint file:  "JID_5192.chk"
 Charge =  0 Multiplicity = 1

 SCF Done:  E(RB3LYP) =  -646.834536073     A.U. after   16 cycles
 Normal termination of Gaussian 16 at Thu Dec 10 15:10:47 2020.

 ----------------------------------------------------------------------
 # B3LYP/6-311++G(d,p) empiricaldispersion=gd3bj scf=xqc pop=npa geom=c
 heck
 ----------------------------------------------------------------------

 ------------------------------------
 CID_63974543_JID_5192_Energie_kation
 ------------------------------------
 Structure from the checkpoint file:  "JID_5192.chk"
 Charge =  1 Multiplicity = 2

 SCF Done:  E(UB3LYP) =  -646.543557210     A.U. after   26 cycles
 Normal termination of Gaussian 16 at Thu Dec 10 15:22:36 2020.
 Gaussian 16:  ES64L-G16RevA.03 25-Dec-2016

 ----------------------------------------------------------------------
 # B3LYP/6-311++G(d,p) empiricaldispersion=gd3bj scf=xqc pop=npa geom=c
 heck
 ----------------------------------------------------------------------

 -----------------------------------
 CID_63974543_JID_5192_Energie_anion
 -----------------------------------
 Structure from the checkpoint file:  "JID_5192.chk"
 Charge = -1 Multiplicity = 2

                         Standard orientation:
 ---------------------------------------------------------------------
 Center     Atomic      Atomic             Coordinates (Angstroms)
 Number     Number       Type             X           Y           Z
 ---------------------------------------------------------------------
      1          6           0       -3.663886    1.422264   -0.424898
      2          6           0       -2.719914    0.264034   -0.234261
      3          7           0       -1.585749    0.526758    0.441609
      4          6           0       -0.709558   -0.457604    0.652229
      5          6           0       -0.912009   -1.762235    0.186647
      6          6           0       -2.078939   -2.037425   -0.513665
      7          6           0       -3.001149   -1.010735   -0.727779
      8          6           0        0.582954   -0.105706    1.388078
      9          6           0        1.746589   -0.149382    0.424299
     10          7           0        2.718004   -1.045165    0.497699
     11          6           0        3.555798   -0.778451   -0.561043
     12          6           0        3.086873    0.289990   -1.282147
     13          7           0        1.927564    0.694936   -0.647142
     14          6           0        1.035461    1.741241   -1.120850
     15          7           0        0.421800    1.132702    2.148791
     16          1           0       -3.993616    1.808933    0.545953
     17          1           0       -3.160024    2.245892   -0.943325
     18          1           0       -4.546272    1.133771   -1.003022
     19          1           0       -0.159246   -2.522808    0.368155
     20          1           0       -2.273594   -3.037972   -0.889697
     21          1           0       -3.924259   -1.194113   -1.268738
     22          1           0        0.798133   -0.929357    2.080112
     23          1           0        4.450975   -1.360442   -0.733437
     24          1           0        3.455996    0.803729   -2.157722
     25          1           0        1.615478    2.468567   -1.693825
     26          1           0        0.243354    1.329868   -1.754487
     27          1           0        0.570848    2.240260   -0.271383
     28          1           0        1.299851    1.637983    2.213447
     29          1           0       -0.282271    1.715127    1.701619
 ---------------------------------------------------------------------

 SCF Done:  E(UB3LYP) =  -646.825294300     A.U. after   33 cycles
 SCF Done:  E(UB3LYP) =  -646.825294300     a.u. after    1 cycles

 The electronic state is 2-A.
 Alpha  occ. eigenvalues --  -14.26701 -14.18920 -14.18698 -14.18626 -10.12081
 Alpha  occ. eigenvalues --  -10.10744 -10.10289 -10.10137 -10.10110 -10.09476
 Alpha  occ. eigenvalues --  -10.08215 -10.07040 -10.06479 -10.06463 -10.06032
 Alpha  occ. eigenvalues --   -0.91548  -0.83804  -0.78336  -0.78054  -0.69080
 Alpha  occ. eigenvalues --   -0.67964  -0.65365  -0.61719  -0.59810  -0.56523
 Alpha  occ. eigenvalues --   -0.50596  -0.49981  -0.49576  -0.45112  -0.42192
 Alpha  occ. eigenvalues --   -0.40395  -0.38537  -0.37786  -0.36535  -0.34521
 Alpha  occ. eigenvalues --   -0.34250  -0.33369  -0.32680  -0.31790  -0.31091
 Alpha  occ. eigenvalues --   -0.30254  -0.29301  -0.29017  -0.28420  -0.26990
 Alpha  occ. eigenvalues --   -0.26266  -0.24608  -0.17964  -0.17449  -0.17055
 Alpha  occ. eigenvalues --   -0.16058  -0.15022  -0.13488  -0.12159   0.04464
 Alpha virt. eigenvalues --    0.06431   0.06756   0.07674   0.08480   0.08597
 Alpha virt. eigenvalues --    0.08867   0.09638   0.10394   0.10829   0.11066
 Alpha virt. eigenvalues --    0.11636   0.12332   0.12856   0.13000   0.14231

  Beta  occ. eigenvalues --  -14.26681 -14.18909 -14.18611 -14.18494 -10.12072
  Beta  occ. eigenvalues --  -10.10747 -10.10242 -10.10094 -10.10058 -10.09459
  Beta  occ. eigenvalues --  -10.08217 -10.06858 -10.06483 -10.06453 -10.06014
  Beta  occ. eigenvalues --   -0.91519  -0.83547  -0.78296  -0.78002  -0.68818
  Beta  occ. eigenvalues --   -0.67823  -0.65317  -0.61645  -0.59718  -0.56465
  Beta  occ. eigenvalues --   -0.50535  -0.49735  -0.49484  -0.45051  -0.42131
  Beta  occ. eigenvalues --   -0.40335  -0.38445  -0.37721  -0.36470  -0.34432
  Beta  occ. eigenvalues --   -0.34202  -0.33275  -0.32498  -0.31698  -0.31042
  Beta  occ. eigenvalues --   -0.30202  -0.29247  -0.28960  -0.28356  -0.26896
  Beta  occ. eigenvalues --   -0.25860  -0.24532  -0.17443  -0.17072  -0.16924
  Beta  occ. eigenvalues --   -0.15894  -0.14759  -0.13278  -0.12093
  Beta virt. eigenvalues --    0.06878   0.07501   0.07952   0.08180   0.08699
  Beta virt. eigenvalues --    0.08878   0.09163   0.09964   0.10662   0.10972
  Beta virt. eigenvalues --    0.11347   0.11900   0.12753   0.12902   0.13211

 Mulliken charges and spin densities:
               1          2
     1  C    2.026985  -2.460587
     2  C   -0.853589   0.782616
     3  N   -0.018524   0.253287
     4  C   -0.089753   0.189112
     5  C   -0.117321   0.135961
     6  C    0.018910  -0.799146
     7  C   -0.562826   0.702425
     8  C   -0.011795  -0.502435
     9  C   -0.740114   0.144853
    10  N   -0.049299   0.030854
    11  C    0.290143  -0.364146
    12  C   -0.035117   0.042593
    13  N   -0.073501   0.146816
    14  C    0.591427  -0.980079
    15  N   -0.207707  -0.050373
    16  H    0.076254   0.073131
    17  H   -0.236371   0.396689
    18  H   -0.214592   0.359526
    19  H    0.152071   0.009225
    20  H   -0.012832   0.153711
    21  H   -0.455247   0.611122
    22  H    0.251613   0.019956
    23  H    0.103269   0.041911
    24  H   -0.451168   0.612525
    25  H   -0.879644   1.045072
    26  H    0.245056  -0.030056
    27  H   -0.130203   0.321343
    28  H    0.133516   0.085331
    29  H    0.250360   0.028762
 Sum of Mulliken charges =  -1.00000   1.00000

 Dipole moment (field-independent basis, Debye):
    X=              0.9564    Y=             -3.6269    Z=              1.8792  Tot=              4.1953
 Quadrupole moment (field-independent basis, Debye-Ang):
   XX=           -148.6560   YY=           -129.1106   ZZ=           -125.4577
   XY=             -2.4567   XZ=             -1.0884   YZ=              9.5636

 Summary of Natural Population Analysis:

                                       Natural Population
                Natural  -----------------------------------------------
    Atom  No    Charge         Core      Valence    Rydberg      Total
 -----------------------------------------------------------------------
      C    1   -0.29695      0.99963     2.29129    0.00603     3.29695
      C    2    0.11795      0.99955     1.86946    0.01304     2.88205
      N    3   -0.24114      0.99962     2.72801    0.01351     3.74114
      C    4    0.11548      0.99954     1.86803    0.01695     2.88452
      C    5   -0.12821      0.99950     2.11951    0.00920     3.12821
      C    6   -0.04941      0.99957     2.03948    0.01036     3.04941
      C    7   -0.12972      0.99951     2.12125    0.00896     3.12972
      C    8   -0.01883      0.99953     2.00827    0.01103     3.01883
      C    9    0.18442      0.99959     1.79317    0.02282     2.81558
      N   10   -0.26234      0.99970     2.75352    0.00912     3.76234
      C   11   -0.04203      0.99958     2.02809    0.01436     3.04203
      C   12   -0.03417      0.99955     2.02260    0.01202     3.03417
      N   13   -0.20526      0.99961     2.69387    0.01178     3.70526
      C   14   -0.17562      0.99963     2.16671    0.00928     3.17562
      N   15   -0.41971      0.99978     2.91239    0.00754     3.91971
      H   16    0.10426      0.00000     0.39472    0.00102     0.39574
      H   17    0.10930      0.00000     0.38903    0.00167     0.39070
      H   18    0.09855      0.00000     0.40043    0.00102     0.40145
      H   19    0.10529      0.00000     0.39363    0.00108     0.39471
      H   20    0.09581      0.00000     0.40347    0.00072     0.40419
      H   21    0.10043      0.00000     0.39853    0.00104     0.39957
      H   22    0.10314      0.00000     0.39465    0.00221     0.39686
      H   23    0.09339      0.00000     0.40574    0.00087     0.40661
      H   24    0.10341      0.00000     0.39552    0.00107     0.39659
      H   25    0.10256      0.00000     0.39381    0.00363     0.39744
      H   26    0.10153      0.00000     0.39709    0.00138     0.39847
      H   27    0.10698      0.00000     0.39078    0.00224     0.39302
      H   28    0.17306      0.00000     0.32494    0.00201     0.32694
      H   29    0.18816      0.00000     0.30864    0.00320     0.31184
 =======================================================================
   * Total *    0.00033     14.99389    38.80661    0.19917    53.99967

 Normal termination of Gaussian 16 at Thu Dec 10 15:37:10 2020.
