 Gaussian 16, Revision A.03,

 -----------------------------------------------------------
 # opt freq B3LYP/6-31G(d) empiricaldispersion=gd3bj scf=xqc
 -----------------------------------------------------------

 -------------------------------
 CID_126997461_JID_4822_neutraal
 -------------------------------
 Symbolic Z-matrix:
 Charge =  0 Multiplicity = 1

 SCF Done:  E(RB3LYP) =  -935.310982399     A.U. after   15 cycles
 SCF Done:  E(RB3LYP) =  -935.317529349     A.U. after   13 cycles
 SCF Done:  E(RB3LYP) =  -935.318732513     A.U. after   13 cycles
 SCF Done:  E(RB3LYP) =  -935.319076337     A.U. after   12 cycles
 SCF Done:  E(RB3LYP) =  -935.319117369     A.U. after   11 cycles
 SCF Done:  E(RB3LYP) =  -935.319130337     A.U. after   10 cycles
 SCF Done:  E(RB3LYP) =  -935.319136957     A.U. after    9 cycles
 SCF Done:  E(RB3LYP) =  -935.319138738     A.U. after    9 cycles
 SCF Done:  E(RB3LYP) =  -935.319139802     A.U. after    8 cycles
 SCF Done:  E(RB3LYP) =  -935.319140047     A.U. after    8 cycles
 Optimization completed.
    -- Stationary point found.
 Normal termination of Gaussian 16 at Thu Dec 10 10:36:53 2020.

 --------------------------------------------------------------------
 #N Geom=AllCheck Guess=TCheck SCRF=Check GenChk RB3LYP/6-31G(d) Freq
 --------------------------------------------------------------------

 Structure from the checkpoint file:  "JID_4822.chk"
 -------------------------------
 CID_126997461_JID_4822_neutraal
 -------------------------------
 Charge =  0 Multiplicity = 1

 SCF Done:  E(RB3LYP) =  -935.319140047     A.U. after    1 cycles

  Exact polarizability: 217.206  17.759 149.122 -16.442  -5.080  92.507
 Approx polarizability: 302.021  43.062 271.692 -37.835 -19.525 144.270

                      1                      2                      3
                      A                      A                      A
 Frequencies --     42.1717                57.7912                93.8967
 Red. masses --      4.3872                 4.0259                 4.8818
 Frc consts  --      0.0046                 0.0079                 0.0254
 IR Inten    --      0.8185                 0.3134                 0.5600

                      4                      5                      6
                      A                      A                      A
 Frequencies --    141.5040               159.5413               191.4768
 Red. masses --      3.3068                 3.7912                 2.5833
 Frc consts  --      0.0390                 0.0569                 0.0558
 IR Inten    --      0.4581                 2.0481                 0.4793

                      7                      8                      9
                      A                      A                      A
 Frequencies --    224.5001               273.7362               301.2892
 Red. masses --      3.9661                 4.0584                 3.7529
 Frc consts  --      0.1178                 0.1792                 0.2007
 IR Inten    --      0.3084                 1.5531                 4.7364

                     10                     11                     12
                      A                      A                      A
 Frequencies --    326.1198               346.3623               393.2636
 Red. masses --      2.6535                 1.9627                 4.0680
 Frc consts  --      0.1663                 0.1387                 0.3707
 IR Inten    --      0.1947                 1.0135                 0.3731

                     13                     14                     15
                      A                      A                      A
 Frequencies --    447.6596               453.2577               480.6412
 Red. masses --      3.5605                 4.4043                 4.4955
 Frc consts  --      0.4204                 0.5331                 0.6119
 IR Inten    --      2.1596                 3.8754                 5.0021

                     16                     17                     18
                      A                      A                      A
 Frequencies --    502.7872               557.8315               616.5619
 Red. masses --      1.9810                 3.7816                 4.1226
 Frc consts  --      0.2951                 0.6933                 0.9234
 IR Inten    --      0.5512                 0.7028                 0.4887

                     19                     20                     21
                      A                      A                      A
 Frequencies --    660.6313               709.6066               725.1495
 Red. masses --      4.0869                 3.8531                 2.8158
 Frc consts  --      1.0509                 1.1431                 0.8724
 IR Inten    --      6.6198                 6.0693                11.5096

                     22                     23                     24
                      A                      A                      A
 Frequencies --    757.6404               769.1042               832.0190
 Red. masses --      1.2210                 3.5144                 1.9181
 Frc consts  --      0.4129                 1.2248                 0.7823
 IR Inten    --     76.1916                 2.8551                 5.3039

                     25                     26                     27
                      A                      A                      A
 Frequencies --    843.3190               872.9859               884.1925
 Red. masses --      1.9828                 2.0799                 1.4198
 Frc consts  --      0.8308                 0.9339                 0.6540
 IR Inten    --      1.7346                 4.8266                13.6142

                     28                     29                     30
                      A                      A                      A
 Frequencies --    910.2913               919.7300               939.7519
 Red. masses --      1.6022                 1.9999                 1.4301
 Frc consts  --      0.7822                 0.9968                 0.7441
 IR Inten    --      4.1425                 3.2711                 2.1733

                     31                     32                     33
                      A                      A                      A
 Frequencies --    965.2781               988.9837              1013.6072
 Red. masses --      2.2443                 2.1829                 2.1558
 Frc consts  --      1.2321                 1.2579                 1.3049
 IR Inten    --      4.4466                 8.6122                 2.3818

                     34                     35                     36
                      A                      A                      A
 Frequencies --   1032.0111              1066.5686              1088.3844
 Red. masses --      5.3066                 2.2214                 2.0559
 Frc consts  --      3.3300                 1.4889                 1.4349
 IR Inten    --     42.8356                 3.6817                 1.6862

                     37                     38                     39
                      A                      A                      A
 Frequencies --   1107.7032              1108.7665              1134.5536
 Red. masses --      3.0734                 2.0005                 2.3486
 Frc consts  --      2.2218                 1.4490                 1.7812
 IR Inten    --     76.0761                17.2308                 1.1286

                     40                     41                     42
                      A                      A                      A
 Frequencies --   1163.7148              1192.6187              1246.6050
 Red. masses --      1.7852                 1.6164                 1.2865
 Frc consts  --      1.4244                 1.3545                 1.1780
 IR Inten    --     53.4504                54.8443                18.0886

                     43                     44                     45
                      A                      A                      A
 Frequencies --   1259.7225              1298.1176              1307.5017
 Red. masses --      1.2935                 2.6079                 1.7358
 Frc consts  --      1.2094                 2.5892                 1.7483
 IR Inten    --      2.8126                 0.9327                26.5392

                     46                     47                     48
                      A                      A                      A
 Frequencies --   1310.5426              1328.6963              1361.6707
 Red. masses --      1.2333                 1.4345                 1.5698
 Frc consts  --      1.2480                 1.4921                 1.7149
 IR Inten    --      3.3735                31.0161                 4.9798

                     49                     50                     51
                      A                      A                      A
 Frequencies --   1370.7644              1381.6510              1391.4145
 Red. masses --      1.4521                 1.3903                 1.3870
 Frc consts  --      1.6076                 1.5637                 1.5821
 IR Inten    --     15.3059                 0.6616                 1.1468

                     52                     53                     54
                      A                      A                      A
 Frequencies --   1407.7987              1415.0504              1419.9011
 Red. masses --      1.4934                 1.4458                 1.5817
 Frc consts  --      1.7439                 1.7056                 1.8788
 IR Inten    --     15.5588                 5.5124                 2.3075

                     55                     56                     57
                      A                      A                      A
 Frequencies --   1437.8390              1478.5204              1510.6345
 Red. masses --      2.2474                 2.3533                 1.0961
 Frc consts  --      2.7375                 3.0310                 1.4738
 IR Inten    --      5.1754                21.7527                 3.4397

                     58                     59                     60
                      A                      A                      A
 Frequencies --   1512.3176              1513.3456              1521.2601
 Red. masses --      1.0914                 1.0996                 1.0939
 Frc consts  --      1.4707                 1.4838                 1.4915
 IR Inten    --      2.0543                 1.4688                10.5712

                     61                     62                     63
                      A                      A                      A
 Frequencies --   1527.5567              1597.0192              1645.7255
 Red. masses --      1.0914                 2.6379                 5.9751
 Frc consts  --      1.5005                 3.9639                 9.5347
 IR Inten    --      2.6762               212.1651               125.2995

                     64                     65                     66
                      A                      A                      A
 Frequencies --   1711.9558              3008.9930              3018.8332
 Red. masses --      6.9162                 1.0705                 1.0667
 Frc consts  --     11.9428                 5.7108                 5.7277
 IR Inten    --      7.7502                20.2756                22.3001

                     67                     68                     69
                      A                      A                      A
 Frequencies --   3023.8850              3038.1149              3039.4661
 Red. masses --      1.0693                 1.0637                 1.0600
 Frc consts  --      5.7610                 5.7845                 5.7696
 IR Inten    --     22.6556                17.1983                27.6224

                     70                     71                     72
                      A                      A                      A
 Frequencies --   3067.9127              3077.5993              3083.1019
 Red. masses --      1.0932                 1.1048                 1.1043
 Frc consts  --      6.0625                 6.1653                 6.1844
 IR Inten    --     69.2315                15.3367                78.8684

                     73                     74                     75
                      A                      A                      A
 Frequencies --   3091.2413              3097.7641              3172.0205
 Red. masses --      1.0912                 1.0927                 1.0895
 Frc consts  --      6.1437                 6.1778                 6.4585
 IR Inten    --     44.3729                23.7553                13.4849

                     76                     77                     78
                      A                      A                      A
 Frequencies --   3223.1941              3243.4508              3584.1823
 Red. masses --      1.0909                 1.0917                 1.0792
 Frc consts  --      6.6777                 6.7668                 8.1686
 IR Inten    --      4.6690                 0.6445                67.7997

 - Thermochemistry -
 -------------------
 Temperature   298.150 Kelvin.  Pressure   1.00000 Atm.
 Atom     1 has atomic number  6 and mass  12.00000

 Molecular mass:   206.08777 amu.
 Principal axes and moments of inertia in atomic units:
                           1         2         3
     Eigenvalues --  1414.019216040.588456767.01099
           X            0.99994  -0.00964   0.00488
           Y            0.00949   0.99951   0.02972
           Z           -0.00516  -0.02967   0.99955
 This molecule is an asymmetric top.
 Rotational symmetry number  1.
 Warning -- assumption of classical behavior for rotation
           may cause significant error
 Rotational temperatures (Kelvin)      0.06125     0.01434     0.01280
 Rotational constants (GHZ):           1.27632     0.29877     0.26670
 Zero-point vibrational energy     622192.0 (Joules/Mol)
                                  148.70745 (Kcal/Mol)
 Warning -- explicit consideration of  18 degrees of freedom as
           vibrations may cause significant error
 Vibrational temperatures:     60.68    83.15   135.10   203.59   229.54
          (Kelvin)            275.49   323.01   393.85   433.49   469.21
                              498.34   565.82   644.08   652.14   691.54
                              723.40   802.60   887.10   950.50  1020.97
                             1043.33  1090.08  1106.57  1197.09  1213.35
                             1256.03  1272.16  1309.71  1323.29  1352.09
                             1388.82  1422.93  1458.35  1484.83  1534.55
                             1565.94  1593.74  1595.27  1632.37  1674.33
                             1715.91  1793.59  1812.46  1867.70  1881.20
                             1885.58  1911.70  1959.14  1972.22  1987.89
                             2001.94  2025.51  2035.94  2042.92  2068.73
                             2127.26  2173.47  2175.89  2177.37  2188.75
                             2197.81  2297.75  2367.83  2463.12  4329.27
                             4343.43  4350.70  4371.17  4373.11  4414.04
                             4427.98  4435.90  4447.61  4456.99  4563.83
                             4637.46  4666.60  5156.84

 Zero-point correction=                           0.236980 (Hartree/Particle)
 Thermal correction to Energy=                    0.249276
 Thermal correction to Enthalpy=                  0.250220
 Thermal correction to Gibbs Free Energy=         0.197481
 Sum of electronic and zero-point Energies=           -935.082160
 Sum of electronic and thermal Energies=              -935.069864
 Sum of electronic and thermal Enthalpies=            -935.068920
 Sum of electronic and thermal Free Energies=         -935.121659

                     E (Thermal)             CV                S
                      KCal/Mol        Cal/Mol-Kelvin    Cal/Mol-Kelvin
 Total                  156.423             48.051            110.999
 Electronic               0.000              0.000              0.000
 Translational            0.889              2.981             41.874
 Rotational               0.889              2.981             32.425
 Vibrational            154.646             42.090             36.701
 Vibration     1          0.595              1.980              5.154
 Vibration     2          0.596              1.974              4.531
 Vibration     3          0.603              1.954              3.577
 Vibration     4          0.615              1.912              2.783
 Vibration     5          0.621              1.892              2.555
 Vibration     6          0.634              1.852              2.213
 Vibration     7          0.649              1.804              1.922
 Vibration     8          0.676              1.722              1.572
 Vibration     9          0.693              1.671              1.410
 Vibration    10          0.710              1.623              1.279
 Vibration    11          0.724              1.583              1.183
 Vibration    12          0.760              1.485              0.988
 Vibration    13          0.807              1.366              0.803
 Vibration    14          0.812              1.354              0.786
 Vibration    15          0.837              1.293              0.708
 Vibration    16          0.858              1.244              0.651
 Vibration    17          0.913              1.123              0.528
 Vibration    18          0.976              0.997              0.422

 Optimization completed.
    -- Stationary point found.
 Normal termination of Gaussian 16 at Thu Dec 10 10:45:04 2020.

 ----------------------------------------------------------------------
 # B3LYP/6-311++G(d,p) empiricaldispersion=gd3bj scf=xqc pop=npa geom=c
 heck
 ----------------------------------------------------------------------

 ---------------------------------------
 CID_126997461_JID_4822_Energie_neutraal
 ---------------------------------------
 Structure from the checkpoint file:  "JID_4822.chk"
 Charge =  0 Multiplicity = 1

 SCF Done:  E(RB3LYP) =  -935.484770946     A.U. after   16 cycles
 Normal termination of Gaussian 16 at Thu Dec 10 10:49:29 2020.

 ----------------------------------------------------------------------
 # B3LYP/6-311++G(d,p) empiricaldispersion=gd3bj scf=xqc pop=npa geom=c
 heck
 ----------------------------------------------------------------------

 -------------------------------------
 CID_126997461_JID_4822_Energie_kation
 -------------------------------------
 Structure from the checkpoint file:  "JID_4822.chk"
 Charge =  1 Multiplicity = 2

 SCF Done:  E(UB3LYP) =  -935.193194142     A.U. after   33 cycles
 SCF Done:  E(UB3LYP) =  -935.193194265     a.u. after    2 cycles
 Normal termination of Gaussian 16 at Thu Dec 10 11:12:35 2020.
 Gaussian 16:  ES64L-G16RevA.03 25-Dec-2016

 ----------------------------------------------------------------------
 # B3LYP/6-311++G(d,p) empiricaldispersion=gd3bj scf=xqc pop=npa geom=c
 heck
 ----------------------------------------------------------------------

 ------------------------------------
 CID_126997461_JID_4822_Energie_anion
 ------------------------------------
 Structure from the checkpoint file:  "JID_4822.chk"
 Charge = -1 Multiplicity = 2

                         Standard orientation:
 ---------------------------------------------------------------------
 Center     Atomic      Atomic             Coordinates (Angstroms)
 Number     Number       Type             X           Y           Z
 ---------------------------------------------------------------------
      1          6           0        4.020102    0.010923    0.811220
      2          6           0        3.692173   -1.316588    0.117757
      3          6           0        2.904862   -1.171325   -1.200409
      4          6           0        1.449365   -0.827797   -1.020520
      5          6           0        0.980506    0.276273   -0.411895
      6          6           0        1.897647    1.344715    0.159274
      7          6           0        2.817080    0.834383    1.286962
      8          6           0       -0.478583    0.468627   -0.281245
      9          6           0       -1.333516   -0.553993    0.050016
     10          6           0       -2.749219   -0.349606    0.139788
     11         16           0       -3.891341   -1.514621    0.515698
     12          7           0       -3.129368    0.953805   -0.112883
     13          7           0       -2.350963    1.996023   -0.428837
     14          6           0       -1.069085    1.761276   -0.506318
     15          1           0        4.618892    0.628495    0.125029
     16          1           0        4.664525   -0.195422    1.675397
     17          1           0        4.635327   -1.833352   -0.100638
     18          1           0        3.130113   -1.965977    0.801552
     19          1           0        2.978012   -2.105318   -1.767018
     20          1           0        3.394706   -0.401621   -1.817625
     21          1           0        0.727127   -1.531490   -1.429602
     22          1           0        1.296164    2.169078    0.554220
     23          1           0        2.520309    1.771990   -0.640532
     24          1           0        2.219326    0.249548    1.998182
     25          1           0        3.195289    1.704722    1.837850
     26          1           0       -0.962500   -1.546903    0.272767
     27          1           0       -4.120444    1.163165   -0.057244
     28          1           0       -0.461057    2.616896   -0.779250
 ---------------------------------------------------------------------

 SCF Done:  E(UB3LYP) =  -935.515699511     A.U. after   24 cycles

 The electronic state is 2-A.
 Alpha  occ. eigenvalues --  -88.63370 -14.22978 -14.19728 -10.09278 -10.07454
 Alpha  occ. eigenvalues --  -10.07003 -10.06998 -10.06492 -10.06422 -10.06197
 Alpha  occ. eigenvalues --  -10.04728 -10.03272 -10.03013 -10.01609  -7.72151
 Alpha  occ. eigenvalues --   -5.68547  -5.67970  -5.67731  -0.89253  -0.72915
 Alpha  occ. eigenvalues --   -0.71226  -0.68693  -0.65774  -0.64227  -0.57414
 Alpha  occ. eigenvalues --   -0.54456  -0.53843  -0.50851  -0.47633  -0.46370
 Alpha  occ. eigenvalues --   -0.41616  -0.39490  -0.37878  -0.37339  -0.35379
 Alpha  occ. eigenvalues --   -0.32967  -0.32803  -0.30911  -0.30751  -0.29940
 Alpha  occ. eigenvalues --   -0.28198  -0.26251  -0.26068  -0.25008  -0.23520
 Alpha  occ. eigenvalues --   -0.23358  -0.22651  -0.21435  -0.19859  -0.17961
 Alpha  occ. eigenvalues --   -0.17743  -0.14824  -0.11384  -0.06287  -0.06138
 Alpha  occ. eigenvalues --    0.02754
 Alpha virt. eigenvalues --    0.06609   0.08131   0.08558   0.09520   0.10621
 Alpha virt. eigenvalues --    0.10703   0.11401   0.11577   0.11935   0.11988
 Alpha virt. eigenvalues --    0.13140   0.13437   0.14067   0.14783   0.14850

  Beta  occ. eigenvalues --  -88.63354 -14.22550 -14.19240 -10.09219 -10.07454
  Beta  occ. eigenvalues --  -10.07002 -10.06974 -10.06636 -10.06444 -10.06181
  Beta  occ. eigenvalues --  -10.04786 -10.02911 -10.02732 -10.01330  -7.72137
  Beta  occ. eigenvalues --   -5.68542  -5.67914  -5.67724  -0.88456  -0.72754
  Beta  occ. eigenvalues --   -0.70674  -0.68216  -0.65660  -0.63869  -0.57123
  Beta  occ. eigenvalues --   -0.54163  -0.53684  -0.50420  -0.47399  -0.46262
  Beta  occ. eigenvalues --   -0.41271  -0.39239  -0.37758  -0.37148  -0.35207
  Beta  occ. eigenvalues --   -0.32875  -0.32677  -0.30779  -0.30371  -0.28435
  Beta  occ. eigenvalues --   -0.27968  -0.26051  -0.25957  -0.24833  -0.23414
  Beta  occ. eigenvalues --   -0.23245  -0.22588  -0.21333  -0.19674  -0.16738
  Beta  occ. eigenvalues --   -0.15798  -0.14180  -0.10123  -0.06055  -0.05264
  Beta virt. eigenvalues --    0.06552   0.07966   0.08496   0.09177   0.09581
  Beta virt. eigenvalues --    0.10625   0.11013   0.11571   0.11798   0.11980
  Beta virt. eigenvalues --    0.12076   0.13402   0.13694   0.14161   0.14768

 Mulliken charges and spin densities:
               1          2
     1  C   -0.386862  -0.013494
     2  C   -0.213663  -0.011778
     3  C   -0.400899   0.028627
     4  C   -0.477872   0.194809
     5  C    0.566981  -0.053324
     6  C   -0.481287  -0.026748
     7  C   -0.383675  -0.003037
     8  C    0.469412   0.243865
     9  C    0.192184   0.219713
    10  C   -0.167279   0.067041
    11  S   -1.101937   0.034823
    12  N    0.065006   0.152407
    13  N   -0.222098   0.244279
    14  C   -0.507035  -0.124314
    15  H    0.126737   0.000711
    16  H    0.131195   0.000191
    17  H    0.100886   0.026115
    18  H    0.114796   0.014254
    19  H    0.147782  -0.001695
    20  H    0.108313   0.016886
    21  H    0.180573  -0.013562
    22  H    0.143923   0.011440
    23  H    0.122341   0.011738
    24  H    0.145047   0.002782
    25  H    0.120401  -0.001166
    26  H    0.141622  -0.014451
    27  H    0.288989  -0.009543
    28  H    0.176420   0.003431
 Sum of Mulliken charges =  -1.00000   1.00000

 Dipole moment (field-independent basis, Debye):
    X=             10.1829    Y=              2.5454    Z=             -0.3062  Tot=             10.5006
 Quadrupole moment (field-independent basis, Debye-Ang):
   XX=           -150.3283   YY=           -112.4948   ZZ=           -103.4896
   XY=            -10.4915   XZ=              4.7538   YZ=              3.3354

 Summary of Natural Population Analysis:

                                       Natural Population
                Natural  -----------------------------------------------
    Atom  No    Charge         Core      Valence    Rydberg      Total
 -----------------------------------------------------------------------
      C    1   -0.18705      0.99963     2.18023    0.00720     3.18705
      C    2   -0.18162      0.99963     2.17499    0.00700     3.18162
      C    3   -0.20962      0.99963     2.20174    0.00826     3.20962
      C    4   -0.03292      0.99948     2.02478    0.00866     3.03292
      C    5   -0.03216      0.99946     2.02206    0.01064     3.03216
      C    6   -0.19919      0.99960     2.19151    0.00807     3.19919
      C    7   -0.18533      0.99963     2.17821    0.00749     3.18533
      C    8    0.03220      0.99946     1.95863    0.00970     2.96780
      C    9   -0.05535      0.99945     2.04598    0.00991     3.05535
      C   10    0.03570      0.99957     1.94869    0.01604     2.96430
      S   11   -0.18290      4.99959     3.16612    0.01718     8.18290
      N   12   -0.11982      0.99964     2.60286    0.01733     3.61982
      N   13   -0.05799      0.99970     2.54461    0.01368     3.55799
      C   14   -0.03059      0.99960     2.01613    0.01487     3.03059
      H   15    0.08775      0.00000     0.41081    0.00144     0.41225
      H   16    0.09180      0.00000     0.40688    0.00132     0.40820
      H   17    0.08858      0.00000     0.40953    0.00189     0.41142
      H   18    0.09506      0.00000     0.40372    0.00122     0.40494
      H   19    0.09625      0.00000     0.40263    0.00113     0.40375
      H   20    0.09562      0.00000     0.40291    0.00147     0.40438
      H   21    0.09481      0.00000     0.40409    0.00110     0.40519
      H   22    0.10288      0.00000     0.39582    0.00130     0.39712
      H   23    0.09384      0.00000     0.40472    0.00144     0.40616
      H   24    0.09758      0.00000     0.40119    0.00123     0.40242
      H   25    0.09012      0.00000     0.40867    0.00121     0.40988
      H   26    0.09979      0.00000     0.39831    0.00190     0.40021
      H   27    0.18597      0.00000     0.31191    0.00213     0.31403
      H   28    0.08659      0.00000     0.41214    0.00127     0.41341
 =======================================================================
   * Total *    0.00000     17.99406    36.82987    0.17607    55.00000

 Normal termination of Gaussian 16 at Thu Dec 10 11:19:19 2020.
