 Gaussian 16, Revision A.03,

 -----------------------------------------------------------
 # opt freq B3LYP/6-31G(d) empiricaldispersion=gd3bj scf=xqc
 -----------------------------------------------------------

 ------------------------------
 CID_80238409_JID_6538_neutraal
 ------------------------------
 Symbolic Z-matrix:
 Charge =  0 Multiplicity = 1

 SCF Done:  E(RB3LYP) =  -705.747482284     A.U. after   14 cycles
 SCF Done:  E(RB3LYP) =  -705.753326299     A.U. after   12 cycles
 SCF Done:  E(RB3LYP) =  -705.754264113     A.U. after   12 cycles
 SCF Done:  E(RB3LYP) =  -705.754639997     A.U. after   12 cycles
 SCF Done:  E(RB3LYP) =  -705.754816679     A.U. after   11 cycles
 SCF Done:  E(RB3LYP) =  -705.754877652     A.U. after   10 cycles
 SCF Done:  E(RB3LYP) =  -705.754888056     A.U. after   10 cycles
 SCF Done:  E(RB3LYP) =  -705.754893313     A.U. after    8 cycles
 SCF Done:  E(RB3LYP) =  -705.754894023     A.U. after    8 cycles
 SCF Done:  E(RB3LYP) =  -705.754894190     A.U. after    7 cycles
 SCF Done:  E(RB3LYP) =  -705.754906857     A.U. after    9 cycles
 SCF Done:  E(RB3LYP) =  -705.754908235     A.U. after   10 cycles
 SCF Done:  E(RB3LYP) =  -705.754907767     A.U. after    9 cycles
 SCF Done:  E(RB3LYP) =  -705.754908976     A.U. after    9 cycles
 SCF Done:  E(RB3LYP) =  -705.754909020     A.U. after    7 cycles
 Optimization completed.
    -- Stationary point found.
 Normal termination of Gaussian 16 at Thu Dec 10 23:33:24 2020.

 --------------------------------------------------------------------
 #N Geom=AllCheck Guess=TCheck SCRF=Check GenChk RB3LYP/6-31G(d) Freq
 --------------------------------------------------------------------

 Structure from the checkpoint file:  "JID_6538.chk"
 ------------------------------
 CID_80238409_JID_6538_neutraal
 ------------------------------
 Charge =  0 Multiplicity = 1

 SCF Done:  E(RB3LYP) =  -705.754909020     A.U. after    1 cycles

  Exact polarizability: 167.371  -5.066 176.548  -5.360  -0.324  85.307
 Approx polarizability: 233.790 -15.406 265.662 -12.329  -1.107 131.732

                      1                      2                      3
                      A                      A                      A
 Frequencies --     39.1023                43.8773                51.1858
 Red. masses --      4.0620                 3.0004                 1.1578
 Frc consts  --      0.0037                 0.0034                 0.0018
 IR Inten    --      0.1508                 0.1712                 0.2279

                      4                      5                      6
                      A                      A                      A
 Frequencies --     72.3470                82.4407               107.7691
 Red. masses --      3.2658                 3.2604                 4.6854
 Frc consts  --      0.0101                 0.0131                 0.0321
 IR Inten    --      0.3566                 0.1387                 3.6951

                      7                      8                      9
                      A                      A                      A
 Frequencies --    124.7045               136.6261               186.1856
 Red. masses --      4.6245                 3.1944                 3.0886
 Frc consts  --      0.0424                 0.0351                 0.0631
 IR Inten    --      3.4255                 1.0731                 1.1794

                     10                     11                     12
                      A                      A                      A
 Frequencies --    214.8370               246.3775               290.8956
 Red. masses --      3.5584                 2.6629                 4.3062
 Frc consts  --      0.0968                 0.0952                 0.2147
 IR Inten    --      2.2054                 1.3201                 0.2399

                     13                     14                     15
                      A                      A                      A
 Frequencies --    336.6128               384.4441               397.6641
 Red. masses --      3.9908                 3.7922                 5.6301
 Frc consts  --      0.2664                 0.3302                 0.5246
 IR Inten    --      1.2372                 4.6917                 2.5783

                     16                     17                     18
                      A                      A                      A
 Frequencies --    430.5565               463.4514               533.8266
 Red. masses --      2.4006                 3.5960                 3.5489
 Frc consts  --      0.2622                 0.4551                 0.5959
 IR Inten    --      2.4745                 1.0498                 1.3294

                     19                     20                     21
                      A                      A                      A
 Frequencies --    618.5797               622.8217               650.7240
 Red. masses --      4.4391                 4.6744                 4.1056
 Frc consts  --      1.0008                 1.0683                 1.0243
 IR Inten    --      7.6454                 2.6620                 1.8630

                     22                     23                     24
                      A                      A                      A
 Frequencies --    680.3656               730.9259               736.8896
 Red. masses --      3.7036                 1.5031                 1.8787
 Frc consts  --      1.0101                 0.4731                 0.6011
 IR Inten    --      1.9126                31.4117                18.7398

                     25                     26                     27
                      A                      A                      A
 Frequencies --    760.1904               771.2946               788.5106
 Red. masses --      1.6804                 1.3807                 1.7481
 Frc consts  --      0.5722                 0.4840                 0.6404
 IR Inten    --     68.0332                 6.1191                 4.3701

                     28                     29                     30
                      A                      A                      A
 Frequencies --    803.7904               821.0401               833.2875
 Red. masses --      2.0263                 1.6749                 1.3284
 Frc consts  --      0.7713                 0.6652                 0.5435
 IR Inten    --      7.3946                 6.0930                26.2223

                     31                     32                     33
                      A                      A                      A
 Frequencies --    856.7771               869.3609               897.4138
 Red. masses --      1.3619                 1.8061                 5.7390
 Frc consts  --      0.5890                 0.8043                 2.7231
 IR Inten    --      8.7304                10.3080                29.6384

                     34                     35                     36
                      A                      A                      A
 Frequencies --    947.0214               965.8923               994.4321
 Red. masses --      5.0785                 3.3877                 1.7946
 Frc consts  --      2.6835                 1.8621                 1.0456
 IR Inten    --     26.1396                 9.4753                 4.4218

                     37                     38                     39
                      A                      A                      A
 Frequencies --   1000.8405              1039.4540              1041.5338
 Red. masses --      1.7297                 2.8066                 2.3418
 Frc consts  --      1.0208                 1.7867                 1.4967
 IR Inten    --     21.7766                 4.5627                25.3071

                     40                     41                     42
                      A                      A                      A
 Frequencies --   1050.8645              1081.4724              1086.7652
 Red. masses --      1.4287                 1.4031                 1.5401
 Frc consts  --      0.9296                 0.9669                 1.0717
 IR Inten    --      5.3584                 1.7699                 4.4082

                     43                     44                     45
                      A                      A                      A
 Frequencies --   1096.0410              1106.9353              1132.1639
 Red. masses --      2.5799                 4.1424                 2.5912
 Frc consts  --      1.8260                 2.9905                 1.9569
 IR Inten    --     32.8420                24.6882                 3.1852

                     46                     47                     48
                      A                      A                      A
 Frequencies --   1137.0625              1160.1961              1191.4820
 Red. masses --      1.2209                 1.3170                 1.6372
 Frc consts  --      0.9300                 1.0444                 1.3694
 IR Inten    --      5.6278                 7.9473                10.0101

                     49                     50                     51
                      A                      A                      A
 Frequencies --   1201.2233              1205.0781              1211.6776
 Red. masses --      3.3038                 1.3906                 1.9121
 Frc consts  --      2.8087                 1.1898                 1.6540
 IR Inten    --     48.2182                 3.8119                27.6357

                     52                     53                     54
                      A                      A                      A
 Frequencies --   1251.5993              1260.4784              1273.6505
 Red. masses --      1.7600                 1.2898                 1.9423
 Frc consts  --      1.6244                 1.2074                 1.8564
 IR Inten    --     16.3309                14.1694                12.1905

                     55                     56                     57
                      A                      A                      A
 Frequencies --   1312.1688              1348.4231              1362.7525
 Red. masses --      2.2966                 2.6913                 1.6601
 Frc consts  --      2.3298                 2.8831                 1.8165
 IR Inten    --     17.6438                26.5050                24.1732

                     58                     59                     60
                      A                      A                      A
 Frequencies --   1383.9836              1416.0396              1431.0834
 Red. masses --      3.6594                 2.3092                 1.9686
 Frc consts  --      4.1298                 2.7281                 2.3754
 IR Inten    --     13.5370                 2.7361                 2.9727

                     61                     62                     63
                      A                      A                      A
 Frequencies --   1472.5348              1487.6950              1492.4167
 Red. masses --      1.5938                 1.1745                 2.3850
 Frc consts  --      2.0362                 1.5315                 3.1299
 IR Inten    --     30.1874                 8.4551                11.4113

                     64                     65                     66
                      A                      A                      A
 Frequencies --   1493.8725              1505.3332              1506.9777
 Red. masses --      2.8362                 1.0609                 1.2204
 Frc consts  --      3.7292                 1.4164                 1.6329
 IR Inten    --      4.6442                13.0978                30.8456

                     67                     68                     69
                      A                      A                      A
 Frequencies --   1535.0687              1536.9675              1549.6630
 Red. masses --      1.4342                 1.0977                 1.2113
 Frc consts  --      1.9911                 1.5277                 1.7139
 IR Inten    --     24.4432                 2.6496                 7.9621

                     70                     71                     72
                      A                      A                      A
 Frequencies --   1572.2068              1607.4048              1658.9714
 Red. masses --      5.1627                 6.0397                 7.2259
 Frc consts  --      7.5188                 9.1942                11.7172
 IR Inten    --     23.2382                15.4815                19.1896

                     73                     74                     75
                      A                      A                      A
 Frequencies --   2969.3517              3041.6550              3065.7202
 Red. masses --      1.0707                 1.0901                 1.0352
 Frc consts  --      5.5621                 5.9420                 5.7324
 IR Inten    --     59.1913                22.9294                65.6045

                     76                     77                     78
                      A                      A                      A
 Frequencies --   3135.2442              3138.7343              3142.9617
 Red. masses --      1.1018                 1.0513                 1.0668
 Frc consts  --      6.3809                 6.1022                 6.2088
 IR Inten    --     16.0762                20.0858                17.3806

                     79                     80                     81
                      A                      A                      A
 Frequencies --   3145.7146              3164.6396              3214.5190
 Red. masses --      1.0811                 1.1054                 1.1189
 Frc consts  --      6.3029                 6.5228                 6.8122
 IR Inten    --      8.6321                 9.3932                 1.0583

                     82                     83                     84
                      A                      A                      A
 Frequencies --   3228.9398              3263.7943              3280.6409
 Red. masses --      1.1154                 1.0975                 1.0897
 Frc consts  --      6.8519                 6.8884                 6.9097
 IR Inten    --     30.9227                 2.5094                 0.1834

                     85                     86                     87
                      A                      A                      A
 Frequencies --   3297.8211              3304.7688              3496.8316
 Red. masses --      1.0987                 1.1077                 1.0744
 Frc consts  --      7.0399                 7.1275                 7.7401
 IR Inten    --     13.9972                 9.2439                 0.1608

 - Thermochemistry -
 -------------------
 Temperature   298.150 Kelvin.  Pressure   1.00000 Atm.
 Atom     1 has atomic number  6 and mass  12.00000

 Molecular mass:   217.12151 amu.
 Principal axes and moments of inertia in atomic units:
                           1         2         3
     Eigenvalues --  3118.214804646.707497474.10177
           X            0.99966  -0.02591  -0.00105
           Y            0.02592   0.99966   0.00247
           Z            0.00099  -0.00250   1.00000
 This molecule is an asymmetric top.
 Rotational symmetry number  1.
 Warning -- assumption of classical behavior for rotation
           may cause significant error
 Rotational temperatures (Kelvin)      0.02778     0.01864     0.01159
 Rotational constants (GHZ):           0.57877     0.38839     0.24147
 Zero-point vibrational energy     679393.0 (Joules/Mol)
                                  162.37882 (Kcal/Mol)
 Warning -- explicit consideration of  19 degrees of freedom as
           vibrations may cause significant error
 Vibrational temperatures:     56.26    63.13    73.64   104.09   118.61
          (Kelvin)            155.06   179.42   196.57   267.88   309.10
                              354.48   418.53   484.31   553.13   572.15
                              619.47   666.80   768.06   890.00   896.10
                              936.25   978.89  1051.64  1060.22  1093.74
                             1109.72  1134.49  1156.48  1181.29  1198.91
                             1232.71  1250.82  1291.18  1362.55  1389.70
                             1430.77  1439.99  1495.54  1498.53  1511.96
                             1556.00  1563.61  1576.96  1592.63  1628.93
                             1635.98  1669.26  1714.28  1728.29  1733.84
                             1743.33  1800.77  1813.55  1832.50  1887.92
                             1940.08  1960.70  1991.24  2037.37  2059.01
                             2118.65  2140.46  2147.25  2149.35  2165.84
                             2168.20  2208.62  2211.35  2229.62  2262.05
                             2312.70  2386.89  4272.23  4376.26  4410.89
                             4510.92  4515.94  4522.02  4525.98  4553.21
                             4624.98  4645.72  4695.87  4720.11  4744.83
                             4754.83  5031.16

 Zero-point correction=                           0.258767 (Hartree/Particle)
 Thermal correction to Energy=                    0.273599
 Thermal correction to Enthalpy=                  0.274543
 Thermal correction to Gibbs Free Energy=         0.214863
 Sum of electronic and zero-point Energies=           -705.496142
 Sum of electronic and thermal Energies=              -705.481310
 Sum of electronic and thermal Enthalpies=            -705.480366
 Sum of electronic and thermal Free Energies=         -705.540046

                     E (Thermal)             CV                S
                      KCal/Mol        Cal/Mol-Kelvin    Cal/Mol-Kelvin
 Total                  171.686             55.412            125.607
 Electronic               0.000              0.000              0.000
 Translational            0.889              2.981             42.029
 Rotational               0.889              2.981             33.048
 Vibrational            169.908             49.450             50.529
 Vibration     1          0.594              1.981              5.304
 Vibration     2          0.595              1.980              5.076
 Vibration     3          0.595              1.977              4.771
 Vibration     4          0.598              1.967              4.088
 Vibration     5          0.600              1.961              3.832
 Vibration     6          0.606              1.943              3.309
 Vibration     7          0.610              1.928              3.026
 Vibration     8          0.614              1.917              2.851
 Vibration     9          0.632              1.859              2.265
 Vibration    10          0.645              1.818              2.002
 Vibration    11          0.661              1.769              1.756
 Vibration    12          0.687              1.691              1.469
 Vibration    13          0.717              1.602              1.228
 Vibration    14          0.753              1.503              1.022
 Vibration    15          0.764              1.475              0.971
 Vibration    16          0.792              1.404              0.857
 Vibration    17          0.821              1.331              0.756
 Vibration    18          0.889              1.175              0.579
 Vibration    19          0.978              0.993              0.419

                           ! Non-Optimized Parameters !
 Normal termination of Gaussian 16 at Thu Dec 10 23:42:25 2020.

 ----------------------------------------------------------------------
 # B3LYP/6-311++G(d,p) empiricaldispersion=gd3bj scf=xqc pop=npa geom=c
 heck
 ----------------------------------------------------------------------

 --------------------------------------
 CID_80238409_JID_6538_Energie_neutraal
 --------------------------------------
 Structure from the checkpoint file:  "JID_6538.chk"
 Charge =  0 Multiplicity = 1

 SCF Done:  E(RB3LYP) =  -705.946273875     A.U. after   15 cycles
 Normal termination of Gaussian 16 at Thu Dec 10 23:46:13 2020.

 ----------------------------------------------------------------------
 # B3LYP/6-311++G(d,p) empiricaldispersion=gd3bj scf=xqc pop=npa geom=c
 heck
 ----------------------------------------------------------------------

 ------------------------------------
 CID_80238409_JID_6538_Energie_kation
 ------------------------------------
 Structure from the checkpoint file:  "JID_6538.chk"
 Charge =  1 Multiplicity = 2

 SCF Done:  E(UB3LYP) =  -705.671969911     A.U. after   24 cycles
 Normal termination of Gaussian 16 at Thu Dec 10 23:54:07 2020.
 Gaussian 16:  ES64L-G16RevA.03 25-Dec-2016

 ----------------------------------------------------------------------
 # B3LYP/6-311++G(d,p) empiricaldispersion=gd3bj scf=xqc pop=npa geom=c
 heck
 ----------------------------------------------------------------------

 -----------------------------------
 CID_80238409_JID_6538_Energie_anion
 -----------------------------------
 Structure from the checkpoint file:  "JID_6538.chk"
 Charge = -1 Multiplicity = 2

                         Standard orientation:
 ---------------------------------------------------------------------
 Center     Atomic      Atomic             Coordinates (Angstroms)
 Number     Number       Type             X           Y           Z
 ---------------------------------------------------------------------
      1          6           0       -2.698657    3.446702    0.395559
      2          7           0       -1.837173    2.324581    0.091653
      3          6           0       -0.534586    2.344625   -0.293220
      4          6           0       -0.118209    1.030421   -0.405634
      5          6           0       -1.269452    0.266990   -0.044843
      6          7           0       -2.303365    1.066436    0.253343
      7          6           0       -1.431843   -1.179594   -0.013217
      8          6           0       -0.454520   -2.134822    0.068394
      9          8           0       -1.006594   -3.382051    0.065759
     10          6           0       -2.362539   -3.218680   -0.016246
     11          6           0       -2.680836   -1.900014   -0.063812
     12          6           0        1.224821    0.551433   -0.856969
     13          7           0        1.979930   -0.084620    0.232778
     14          6           0        3.339887   -0.395120   -0.126683
     15          6           0        4.402750    0.676614   -0.283220
     16          6           0        4.427894   -0.276160    0.895793
     17          1           0       -3.663939    3.304749   -0.096093
     18          1           0       -2.859309    3.532824    1.475422
     19          1           0       -2.232150    4.361946    0.024786
     20          1           0       -0.010402    3.272790   -0.474960
     21          1           0        0.616126   -2.064319    0.183631
     22          1           0       -2.942059   -4.128794   -0.032162
     23          1           0       -3.664589   -1.460062   -0.132294
     24          1           0        1.105265   -0.202302   -1.647600
     25          1           0        1.781138    1.392799   -1.305663
     26          1           0        1.955197    0.518167    1.052943
     27          1           0        3.402862   -1.238287   -0.813184
     28          1           0        5.156782    0.566135   -1.057968
     29          1           0        4.109608    1.705278   -0.087008
     30          1           0        4.160647    0.122006    1.872249
     31          1           0        5.193560   -1.045665    0.932010
 ---------------------------------------------------------------------

 SCF Done:  E(UB3LYP) =  -705.933906195     A.U. after   33 cycles
 SCF Done:  E(UB3LYP) =  -705.933906195     a.u. after    1 cycles

 The electronic state is 2-A.
 Alpha  occ. eigenvalues --  -19.10436 -14.29391 -14.23002 -14.21381 -10.13844
 Alpha  occ. eigenvalues --  -10.12785 -10.11579 -10.10964 -10.10797 -10.10695
 Alpha  occ. eigenvalues --  -10.10523 -10.09225 -10.08712 -10.08680 -10.07976
 Alpha  occ. eigenvalues --  -10.07634  -1.02649  -0.95406  -0.83379  -0.76136
 Alpha  occ. eigenvalues --   -0.74571  -0.71253  -0.69496  -0.66426  -0.61917
 Alpha  occ. eigenvalues --   -0.58041  -0.52417  -0.51755  -0.50645  -0.50372
 Alpha  occ. eigenvalues --   -0.47675  -0.46970  -0.44326  -0.41159  -0.40924
 Alpha  occ. eigenvalues --   -0.39714  -0.38068  -0.36766  -0.36590  -0.35616
 Alpha  occ. eigenvalues --   -0.34201  -0.33482  -0.32474  -0.32068  -0.31091
 Alpha  occ. eigenvalues --   -0.29808  -0.29380  -0.28205  -0.28138  -0.27467
 Alpha  occ. eigenvalues --   -0.23159  -0.21613  -0.21368  -0.19822  -0.16535
 Alpha  occ. eigenvalues --   -0.15159  -0.13685  -0.12603   0.04279
 Alpha virt. eigenvalues --    0.05951   0.06683   0.07178   0.07453   0.08001
 Alpha virt. eigenvalues --    0.08588   0.08691   0.09172   0.09900   0.10590
 Alpha virt. eigenvalues --    0.10987   0.11190   0.11568   0.11830   0.12116

  Beta  occ. eigenvalues --  -19.10436 -14.29390 -14.22993 -14.21373 -10.13844
  Beta  occ. eigenvalues --  -10.12784 -10.11574 -10.10904 -10.10788 -10.10662
  Beta  occ. eigenvalues --  -10.10521 -10.09225 -10.08710 -10.08666 -10.07947
  Beta  occ. eigenvalues --  -10.07635  -1.02648  -0.95396  -0.83362  -0.76123
  Beta  occ. eigenvalues --   -0.74553  -0.71243  -0.69474  -0.66421  -0.61872
  Beta  occ. eigenvalues --   -0.58009  -0.52386  -0.51702  -0.50614  -0.50341
  Beta  occ. eigenvalues --   -0.47670  -0.46923  -0.44292  -0.41122  -0.40897
  Beta  occ. eigenvalues --   -0.39662  -0.38039  -0.36762  -0.36569  -0.35581
  Beta  occ. eigenvalues --   -0.34169  -0.33460  -0.32458  -0.32044  -0.31050
  Beta  occ. eigenvalues --   -0.29781  -0.29354  -0.28188  -0.28113  -0.27444
  Beta  occ. eigenvalues --   -0.23137  -0.21604  -0.21346  -0.19804  -0.16529
  Beta  occ. eigenvalues --   -0.15144  -0.13668  -0.12597
  Beta virt. eigenvalues --    0.06311   0.06678   0.07226   0.07410   0.08126
  Beta virt. eigenvalues --    0.08206   0.08706   0.09101   0.09572   0.10346
  Beta virt. eigenvalues --    0.10812   0.11347   0.11508   0.11769   0.12211

 Mulliken charges and spin densities:
               1          2
     1  C    1.562283  -1.859537
     2  N    0.146241  -0.015394
     3  C   -0.083831   0.117699
     4  C    0.783881   0.411257
     5  C    0.141590  -0.953934
     6  N   -0.486776   0.398861
     7  C    0.400169  -0.415572
     8  C   -0.893818   0.243146
     9  O   -0.006334   0.003025
    10  C   -0.243008  -0.113432
    11  C    0.264105   0.204364
    12  C   -0.049877  -1.352802
    13  N   -0.005768  -0.038717
    14  C   -0.967839   0.925260
    15  C    0.747985  -1.154545
    16  C    0.097728  -0.462283
    17  H   -0.280543   0.446840
    18  H   -0.357021   0.535078
    19  H   -0.753485   0.915560
    20  H   -1.510024   1.726613
    21  H    0.220458   0.091626
    22  H    0.140824   0.027888
    23  H    0.110042   0.081385
    24  H    0.095220   0.040914
    25  H    0.056745   0.088184
    26  H    0.327921  -0.124113
    27  H    0.039418   0.158966
    28  H   -0.238071   0.380220
    29  H   -0.128121   0.288227
    30  H   -0.119284   0.262246
    31  H   -0.010811   0.142973
 Sum of Mulliken charges =  -1.00000   1.00000

 Dipole moment (field-independent basis, Debye):
    X=             -1.0052    Y=            -10.8846    Z=             -0.2580  Tot=             10.9340
 Quadrupole moment (field-independent basis, Debye-Ang):
   XX=           -165.0507   YY=           -179.1109   ZZ=           -122.3724
   XY=             11.3507   XZ=              3.5265   YZ=              1.5850

 Summary of Natural Population Analysis:

                                       Natural Population
                Natural  -----------------------------------------------
    Atom  No    Charge         Core      Valence    Rydberg      Total
 -----------------------------------------------------------------------
      C    1   -0.17119      0.99963     2.16285    0.00871     3.17119
      N    2   -0.09991      0.99967     2.58770    0.01254     3.59991
      C    3    0.00742      0.99948     1.98067    0.01242     2.99258
      C    4   -0.06977      0.99949     2.05974    0.01054     3.06977
      C    5    0.06665      0.99951     1.91935    0.01449     2.93335
      N    6   -0.15373      0.99970     2.64333    0.01070     3.65373
      C    7   -0.07504      0.99951     2.06633    0.00920     3.07504
      C    8    0.06602      0.99947     1.92091    0.01360     2.93398
      O    9   -0.23402      0.99987     3.22663    0.00751     4.23402
      C   10    0.05089      0.99953     1.93529    0.01429     2.94911
      C   11   -0.13587      0.99954     2.12821    0.00813     3.13587
      C   12   -0.09623      0.99959     2.08491    0.01172     3.09623
      N   13   -0.33860      0.99973     2.82672    0.01216     3.83860
      C   14   -0.01505      0.99958     2.00307    0.01240     3.01505
      C   15   -0.21158      0.99963     2.20199    0.00996     3.21158
      C   16   -0.20229      0.99963     2.19423    0.00843     3.20229
      H   17    0.10263      0.00000     0.39574    0.00164     0.39737
      H   18    0.10032      0.00000     0.39802    0.00166     0.39968
      H   19    0.10734      0.00000     0.38780    0.00485     0.39266
      H   20    0.11202      0.00000     0.38395    0.00404     0.38798
      H   21    0.11137      0.00000     0.38698    0.00165     0.38863
      H   22    0.09245      0.00000     0.40661    0.00093     0.40755
      H   23    0.11516      0.00000     0.38401    0.00083     0.38484
      H   24    0.09502      0.00000     0.40359    0.00140     0.40498
      H   25    0.09285      0.00000     0.40542    0.00173     0.40715
      H   26    0.17558      0.00000     0.32122    0.00320     0.32442
      H   27    0.09480      0.00000     0.40402    0.00117     0.40520
      H   28    0.10222      0.00000     0.39658    0.00120     0.39778
      H   29    0.10629      0.00000     0.39206    0.00165     0.39371
      H   30    0.10211      0.00000     0.39692    0.00097     0.39789
      H   31    0.10213      0.00000     0.39704    0.00083     0.39787
 =======================================================================
   * Total *    0.00000     15.99356    41.80189    0.20455    58.00000

 Normal termination of Gaussian 16 at Fri Dec 11 00:05:35 2020.
