 Gaussian 16, Revision A.03,

 -----------------------------------------------------------
 # opt freq B3LYP/6-31G(d) empiricaldispersion=gd3bj scf=xqc
 -----------------------------------------------------------

 ------------------------------
 CID_82442399_JID_7470_neutraal
 ------------------------------
 Symbolic Z-matrix:
 Charge =  0 Multiplicity = 1

 SCF Done:  E(RB3LYP) =  -748.764124203     A.U. after   16 cycles
 SCF Done:  E(RB3LYP) =  -748.772371105     A.U. after   13 cycles
 SCF Done:  E(RB3LYP) =  -748.774020380     A.U. after   13 cycles
 SCF Done:  E(RB3LYP) =  -748.774434042     A.U. after   12 cycles
 SCF Done:  E(RB3LYP) =  -748.774468479     A.U. after   12 cycles
 SCF Done:  E(RB3LYP) =  -748.774509418     A.U. after   10 cycles
 SCF Done:  E(RB3LYP) =  -748.774518832     A.U. after   10 cycles
 SCF Done:  E(RB3LYP) =  -748.774521515     A.U. after   10 cycles
 SCF Done:  E(RB3LYP) =  -748.774522873     A.U. after    9 cycles
 SCF Done:  E(RB3LYP) =  -748.774523965     A.U. after    9 cycles
 SCF Done:  E(RB3LYP) =  -748.774524604     A.U. after    9 cycles
 SCF Done:  E(RB3LYP) =  -748.774524808     A.U. after    9 cycles
 SCF Done:  E(RB3LYP) =  -748.774524863     A.U. after    7 cycles
 SCF Done:  E(RB3LYP) =  -748.774524868     A.U. after    7 cycles
 Optimization completed.
    -- Stationary point found.
 Normal termination of Gaussian 16 at Fri Dec 11 12:11:36 2020.

 --------------------------------------------------------------------
 #N Geom=AllCheck Guess=TCheck SCRF=Check GenChk RB3LYP/6-31G(d) Freq
 --------------------------------------------------------------------

 Structure from the checkpoint file:  "JID_7470.chk"
 ------------------------------
 CID_82442399_JID_7470_neutraal
 ------------------------------
 Charge =  0 Multiplicity = 1

 SCF Done:  E(RB3LYP) =  -748.774524868     A.U. after    1 cycles

  Exact polarizability: 208.226   3.755 158.325  -2.962  10.995 116.648
 Approx polarizability: 288.685   7.914 225.799 -10.002  27.385 186.418

                      1                      2                      3
                      A                      A                      A
 Frequencies --     12.0371                25.7800                40.3063
 Red. masses --      3.6074                 2.9796                 3.2300
 Frc consts  --      0.0003                 0.0012                 0.0031
 IR Inten    --      0.2475                 0.0371                 0.1451

                      4                      5                      6
                      A                      A                      A
 Frequencies --     57.5495                62.5930                87.1460
 Red. masses --      3.3469                 4.4029                 3.7607
 Frc consts  --      0.0065                 0.0102                 0.0168
 IR Inten    --      0.0771                 0.6532                 3.4218

                      7                      8                      9
                      A                      A                      A
 Frequencies --    104.5769               123.5771               151.5985
 Red. masses --      2.5948                 3.3606                 2.5270
 Frc consts  --      0.0167                 0.0302                 0.0342
 IR Inten    --      1.3519                 0.1374                 1.7717

                     10                     11                     12
                      A                      A                      A
 Frequencies --    167.3862               218.3533               223.7464
 Red. masses --      3.8771                 1.3025                 1.5894
 Frc consts  --      0.0640                 0.0366                 0.0469
 IR Inten    --      2.3185                 0.4507                 0.8222

                     13                     14                     15
                      A                      A                      A
 Frequencies --    235.5191               269.3595               280.8410
 Red. masses --      1.2186                 2.3064                 1.9341
 Frc consts  --      0.0398                 0.0986                 0.0899
 IR Inten    --      0.6392                 0.2549                 2.4044

                     16                     17                     18
                      A                      A                      A
 Frequencies --    289.8327               310.4291               351.9542
 Red. masses --      1.7036                 2.7536                 2.7064
 Frc consts  --      0.0843                 0.1563                 0.1975
 IR Inten    --      1.1266                 1.0004                 0.4448

                     19                     20                     21
                      A                      A                      A
 Frequencies --    357.0994               372.3144               380.8608
 Red. masses --      2.7273                 2.3538                 3.0429
 Frc consts  --      0.2049                 0.1922                 0.2601
 IR Inten    --      4.8034                 1.4647                 3.9902

                     22                     23                     24
                      A                      A                      A
 Frequencies --    428.1025               439.5319               463.7101
 Red. masses --      1.8539                 2.8600                 4.6360
 Frc consts  --      0.2002                 0.3255                 0.5873
 IR Inten    --      0.9843                 2.2495                14.2930

                     25                     26                     27
                      A                      A                      A
 Frequencies --    505.9525               535.3373               564.5045
 Red. masses --      3.7327                 2.9253                 3.5246
 Frc consts  --      0.5630                 0.4939                 0.6617
 IR Inten    --      2.2032                 3.7858                 3.1202

                     28                     29                     30
                      A                      A                      A
 Frequencies --    617.0146               641.2414               713.3527
 Red. masses --      5.2115                 3.7730                 3.1038
 Frc consts  --      1.1690                 0.9141                 0.9306
 IR Inten    --      6.0738                 2.9416                 9.1321

                     31                     32                     33
                      A                      A                      A
 Frequencies --    743.4771               767.8699               778.5499
 Red. masses --      2.2282                 1.4998                 2.2433
 Frc consts  --      0.7257                 0.5210                 0.8011
 IR Inten    --     18.7913                50.9374                14.7784

                     34                     35                     36
                      A                      A                      A
 Frequencies --    811.7958               826.4612               844.8231
 Red. masses --      2.8913                 3.2021                 1.9217
 Frc consts  --      1.1226                 1.2886                 0.8081
 IR Inten    --      8.9354                 2.1451                47.1424

                     37                     38                     39
                      A                      A                      A
 Frequencies --    860.5435               885.4304               892.8486
 Red. masses --      1.7840                 1.7914                 1.5630
 Frc consts  --      0.7784                 0.8274                 0.7341
 IR Inten    --     32.3528                 3.8588                 1.7390

                     40                     41                     42
                      A                      A                      A
 Frequencies --    938.5712               942.4924               951.9174
 Red. masses --      2.1734                 1.2580                 1.8440
 Frc consts  --      1.1280                 0.6584                 0.9845
 IR Inten    --     17.7907                 0.9198                 2.2321

                     43                     44                     45
                      A                      A                      A
 Frequencies --    959.5865               979.2620               988.2599
 Red. masses --      2.1943                 1.4333                 1.6617
 Frc consts  --      1.1905                 0.8098                 0.9562
 IR Inten    --     12.7998                 0.3907                 5.4585

                     46                     47                     48
                      A                      A                      A
 Frequencies --   1006.7859              1020.3656              1059.1800
 Red. masses --      1.2979                 2.0710                 1.7325
 Frc consts  --      0.7751                 1.2704                 1.1451
 IR Inten    --      0.1595                 7.1503                11.2586

                     49                     50                     51
                      A                      A                      A
 Frequencies --   1070.4813              1105.9653              1137.9474
 Red. masses --      2.1751                 1.7982                 1.8939
 Frc consts  --      1.4686                 1.2959                 1.4449
 IR Inten    --     13.8643                13.5472                 2.9735

                     52                     53                     54
                      A                      A                      A
 Frequencies --   1142.3098              1157.4940              1169.7415
 Red. masses --      2.6729                 1.7098                 2.6485
 Frc consts  --      2.0550                 1.3497                 2.1351
 IR Inten    --     33.5915                46.7009                26.9566

                     55                     56                     57
                      A                      A                      A
 Frequencies --   1182.5942              1184.8107              1207.4850
 Red. masses --      1.7870                 1.7358                 1.9727
 Frc consts  --      1.4725                 1.4357                 1.6946
 IR Inten    --      8.2815                 6.4489                11.8758

                     58                     59                     60
                      A                      A                      A
 Frequencies --   1208.8213              1246.0214              1279.0538
 Red. masses --      1.9826                 1.4674                 1.3821
 Frc consts  --      1.7069                 1.3423                 1.3322
 IR Inten    --      9.6435                 2.5449                 0.3367

                     61                     62                     63
                      A                      A                      A
 Frequencies --   1295.1895              1321.0552              1327.2365
 Red. masses --      2.0457                 1.8427                 1.3511
 Frc consts  --      2.0219                 1.8948                 1.4023
 IR Inten    --      1.1214                 7.4312                 2.8374

                     64                     65                     66
                      A                      A                      A
 Frequencies --   1343.8657              1350.8599              1367.9089
 Red. masses --      1.5705                 1.3622                 1.7374
 Frc consts  --      1.6711                 1.4645                 1.9154
 IR Inten    --     22.7033                 1.0107                44.3074

                     67                     68                     69
                      A                      A                      A
 Frequencies --   1386.7153              1388.9240              1409.0747
 Red. masses --      1.3562                 1.3983                 1.3176
 Frc consts  --      1.5366                 1.5893                 1.5413
 IR Inten    --      9.5505                 3.6786                21.0508

                     70                     71                     72
                      A                      A                      A
 Frequencies --   1410.7651              1413.4665              1420.1224
 Red. masses --      1.3909                 1.4439                 1.3474
 Frc consts  --      1.6310                 1.6996                 1.6010
 IR Inten    --      6.8250                 1.6244                 4.8376

                     73                     74                     75
                      A                      A                      A
 Frequencies --   1431.1978              1441.6753              1450.6215
 Red. masses --      1.2900                 1.2693                 1.2394
 Frc consts  --      1.5568                 1.5544                 1.5366
 IR Inten    --      3.5268                 9.2548                 5.6434

                     76                     77                     78
                      A                      A                      A
 Frequencies --   1463.5196              1495.7005              1502.7384
 Red. masses --      2.6690                 1.0940                 1.0843
 Frc consts  --      3.3681                 1.4419                 1.4426
 IR Inten    --      0.1525                 8.0029                 2.8049

                     79                     80                     81
                      A                      A                      A
 Frequencies --   1515.2598              1516.6114              1520.5244
 Red. masses --      1.0914                 1.1303                 1.0890
 Frc consts  --      1.4764                 1.5317                 1.4834
 IR Inten    --      3.6092                21.5751                 4.0686

                     82                     83                     84
                      A                      A                      A
 Frequencies --   1521.7598              1526.1268              1531.9874
 Red. masses --      1.0792                 1.0669                 1.0633
 Frc consts  --      1.4724                 1.4641                 1.4704
 IR Inten    --      4.9295                11.9231                 6.4900

                     85                     86                     87
                      A                      A                      A
 Frequencies --   1533.5634              1537.3060              1542.5779
 Red. masses --      1.0741                 1.0585                 1.0515
 Frc consts  --      1.4883                 1.4738                 1.4741
 IR Inten    --      3.5798                 3.3749                 9.4110

                     88                     89                     90
                      A                      A                      A
 Frequencies --   1548.5401              1581.4269              1666.6015
 Red. masses --      1.0538                 7.0946                 7.0053
 Frc consts  --      1.4888                10.4539                11.4642
 IR Inten    --      2.8654                14.9127                36.7716

                     91                     92                     93
                      A                      A                      A
 Frequencies --   1767.0861              3003.7401              3025.1886
 Red. masses --     10.0225                 1.0622                 1.0772
 Frc consts  --     18.4392                 5.6463                 5.8085
 IR Inten    --    373.1867                25.1327                11.3683

                     94                     95                     96
                      A                      A                      A
 Frequencies --   3027.5680              3035.9178              3040.6612
 Red. masses --      1.0608                 1.0368                 1.0645
 Frc consts  --      5.7288                 5.6300                 5.7989
 IR Inten    --     40.0755                34.5164                17.8279

                     97                     98                     99
                      A                      A                      A
 Frequencies --   3041.2531              3042.0040              3043.9783
 Red. masses --      1.0409                 1.0621                 1.0422
 Frc consts  --      5.6721                 5.7910                 5.6895
 IR Inten    --     34.7972                23.8463                32.2164

                    100                    101                    102
                      A                      A                      A
 Frequencies --   3045.3014              3070.1428              3073.1904
 Red. masses --      1.0991                 1.1050                 1.0989
 Frc consts  --      6.0054                 6.1368                 6.1149
 IR Inten    --     26.8260                30.5366                46.1019

                    103                    104                    105
                      A                      A                      A
 Frequencies --   3099.1725              3102.8211              3104.3280
 Red. masses --      1.1007                 1.0889                 1.1007
 Frc consts  --      6.2288                 6.1769                 6.2494
 IR Inten    --     22.4050                25.7921                68.9455

                    106                    107                    108
                      A                      A                      A
 Frequencies --   3105.1588              3111.2331              3112.4609
 Red. masses --      1.0920                 1.1024                 1.0753
 Frc consts  --      6.2038                 6.2873                 6.1374
 IR Inten    --     17.0509                12.0345                34.6577

                    109                    110                    111
                      A                      A                      A
 Frequencies --   3114.6112              3129.2265              3165.5075
 Red. masses --      1.1010                 1.1005                 1.1073
 Frc consts  --      6.2929                 6.3490                 6.5373
 IR Inten    --     63.3917                33.4633                 6.6447

                    112                    113                    114
                      A                      A                      A
 Frequencies --   3213.6419              3234.0343              3495.9242
 Red. masses --      1.0888                 1.0965                 1.0737
 Frc consts  --      6.6249                 6.7568                 7.7317
 IR Inten    --      3.5784                 4.2763                 0.1852

 - Thermochemistry -
 -------------------
 Temperature   298.150 Kelvin.  Pressure   1.00000 Atm.
 Atom     1 has atomic number  6 and mass  12.00000

 Molecular mass:   237.18411 amu.
 Principal axes and moments of inertia in atomic units:
                           1         2         3
     Eigenvalues --  2435.636547683.514989494.46795
           X            0.99992   0.01261  -0.00066
           Y           -0.01261   0.99992  -0.00166
           Z            0.00064   0.00167   1.00000
 This molecule is an asymmetric top.
 Rotational symmetry number  1.
 Warning -- assumption of classical behavior for rotation
           may cause significant error
 Rotational temperatures (Kelvin)      0.03556     0.01127     0.00912
 Rotational constants (GHZ):           0.74097     0.23488     0.19008
 Zero-point vibrational energy     935178.5 (Joules/Mol)
                                  223.51301 (Kcal/Mol)
 Warning -- explicit consideration of  28 degrees of freedom as
           vibrations may cause significant error
 Vibrational temperatures:     17.32    37.09    57.99    82.80    90.06
          (Kelvin)            125.38   150.46   177.80   218.12   240.83
                              314.16   321.92   338.86   387.55   404.07
                              417.00   446.64   506.38   513.79   535.68
                              547.97   615.94   632.39   667.18   727.95
                              770.23   812.20   887.75   922.60  1026.36
                             1069.70  1104.79  1120.16  1167.99  1189.09
                             1215.51  1238.13  1273.94  1284.61  1350.39
                             1356.04  1369.60  1380.63  1408.94  1421.89
                             1448.54  1468.08  1523.92  1540.18  1591.24
                             1637.25  1643.53  1665.38  1683.00  1701.49
                             1704.68  1737.30  1739.22  1792.75  1840.27
                             1863.49  1900.70  1909.60  1933.52  1943.59
                             1968.12  1995.17  1998.35  2027.34  2029.78
                             2033.66  2043.24  2059.17  2074.25  2087.12
                             2105.68  2151.98  2162.11  2180.12  2182.07
                             2187.70  2189.47  2195.76  2204.19  2206.46
                             2211.84  2219.43  2228.00  2275.32  2397.87
                             2542.44  4321.71  4352.57  4356.00  4368.01
                             4374.83  4375.68  4376.77  4379.61  4381.51
                             4417.25  4421.64  4459.02  4464.27  4466.44
                             4467.63  4476.37  4478.14  4481.23  4502.26
                             4554.46  4623.71  4653.05  5029.86

 Zero-point correction=                           0.356191 (Hartree/Particle)
 Thermal correction to Energy=                    0.374663
 Thermal correction to Enthalpy=                  0.375607
 Thermal correction to Gibbs Free Energy=         0.307162
 Sum of electronic and zero-point Energies=           -748.418334
 Sum of electronic and thermal Energies=              -748.399862
 Sum of electronic and thermal Enthalpies=            -748.398918
 Sum of electronic and thermal Free Energies=         -748.467362

                     E (Thermal)             CV                S
                      KCal/Mol        Cal/Mol-Kelvin    Cal/Mol-Kelvin
 Total                  235.105             68.791            144.054
 Electronic               0.000              0.000              0.000
 Translational            0.889              2.981             42.292
 Rotational               0.889              2.981             33.540
 Vibrational            233.327             62.830             68.221
 Vibration     1          0.593              1.987              7.643
 Vibration     2          0.593              1.985              6.130
 Vibration     3          0.594              1.981              5.244
 Vibration     4          0.596              1.974              4.540
 Vibration     5          0.597              1.972              4.374
 Vibration     6          0.601              1.958              3.723
 Vibration     7          0.605              1.946              3.367
 Vibration     8          0.610              1.929              3.044
 Vibration     9          0.619              1.901              2.652
 Vibration    10          0.624              1.883              2.465
 Vibration    11          0.646              1.813              1.973
 Vibration    12          0.649              1.805              1.929
 Vibration    13          0.655              1.786              1.836
 Vibration    14          0.674              1.730              1.600
 Vibration    15          0.681              1.709              1.529
 Vibration    16          0.686              1.693              1.475
 Vibration    17          0.699              1.654              1.360
 Vibration    18          0.729              1.571              1.157
 Vibration    19          0.732              1.561              1.135
 Vibration    20          0.744              1.529              1.070
 Vibration    21          0.751              1.511              1.036
 Vibration    22          0.790              1.409              0.865
 Vibration    23          0.800              1.384              0.828
 Vibration    24          0.821              1.331              0.755
 Vibration    25          0.861              1.237              0.643
 Vibration    26          0.890              1.172              0.575
 Vibration    27          0.920              1.108              0.515
 Vibration    28          0.977              0.996              0.421

 Optimization completed.
    -- Stationary point found.
 Normal termination of Gaussian 16 at Fri Dec 11 12:26:39 2020.

 ----------------------------------------------------------------------
 # B3LYP/6-311++G(d,p) empiricaldispersion=gd3bj scf=xqc pop=npa geom=c
 heck
 ----------------------------------------------------------------------

 --------------------------------------
 CID_82442399_JID_7470_Energie_neutraal
 --------------------------------------
 Structure from the checkpoint file:  "JID_7470.chk"
 Charge =  0 Multiplicity = 1

 SCF Done:  E(RB3LYP) =  -748.984071985     A.U. after   16 cycles
 Normal termination of Gaussian 16 at Fri Dec 11 12:35:44 2020.

 ----------------------------------------------------------------------
 # B3LYP/6-311++G(d,p) empiricaldispersion=gd3bj scf=xqc pop=npa geom=c
 heck
 ----------------------------------------------------------------------

 ------------------------------------
 CID_82442399_JID_7470_Energie_kation
 ------------------------------------
 Structure from the checkpoint file:  "JID_7470.chk"
 Charge =  1 Multiplicity = 2

 SCF Done:  E(UB3LYP) =  -748.685605431     A.U. after   25 cycles
 Normal termination of Gaussian 16 at Fri Dec 11 12:58:02 2020.
 Gaussian 16:  ES64L-G16RevA.03 25-Dec-2016

 ----------------------------------------------------------------------
 # B3LYP/6-311++G(d,p) empiricaldispersion=gd3bj scf=xqc pop=npa geom=c
 heck
 ----------------------------------------------------------------------

 -----------------------------------
 CID_82442399_JID_7470_Energie_anion
 -----------------------------------
 Structure from the checkpoint file:  "JID_7470.chk"
 Charge = -1 Multiplicity = 2

                         Standard orientation:
 ---------------------------------------------------------------------
 Center     Atomic      Atomic             Coordinates (Angstroms)
 Number     Number       Type             X           Y           Z
 ---------------------------------------------------------------------
      1          6           0        1.169909    3.106429   -0.044341
      2          6           0        2.134947    2.298978   -0.917746
      3          6           0        3.366585    1.763766   -0.174591
      4          6           0        3.052515    0.815120    0.990106
      5          7           0        2.231737   -0.326371    0.570709
      6          6           0        2.858702   -1.381890   -0.119513
      7          8           0        4.072485   -1.372420   -0.315338
      8          6           0        1.934275   -2.415420   -0.553113
      9          6           0        0.603516   -2.301867   -0.312170
     10          6           0        0.117589   -1.163329    0.405357
     11          7           0        0.915582   -0.212271    0.818727
     12          6           0       -1.352018   -0.981245    0.677805
     13          7           0       -2.087503   -0.996256   -0.585334
     14          6           0       -3.540589   -0.915229   -0.446685
     15          6           0       -4.116006    0.324613    0.271374
     16          6           0       -3.634251    1.626951   -0.377219
     17          6           0       -5.646536    0.245941    0.289389
     18          1           0        0.707540    2.475914    0.721413
     19          1           0        0.364758    3.540208   -0.648620
     20          1           0        1.688130    3.932202    0.459461
     21          1           0        1.595125    1.459249   -1.374806
     22          1           0        2.484945    2.922192   -1.750629
     23          1           0        4.021680    1.235166   -0.874524
     24          1           0        3.946249    2.602579    0.234918
     25          1           0        3.980945    0.414494    1.402164
     26          1           0        2.490174    1.314367    1.780120
     27          1           0        2.367811   -3.253346   -1.087935
     28          1           0       -0.110818   -3.042172   -0.658200
     29          1           0       -1.729264   -1.817718    1.283466
     30          1           0       -1.472298   -0.066193    1.277639
     31          1           0       -1.753102   -0.232564   -1.170093
     32          1           0       -3.965932   -0.966846   -1.458279
     33          1           0       -3.873443   -1.820326    0.079858
     34          1           0       -3.765724    0.312465    1.313409
     35          1           0       -3.935991    1.672450   -1.432170
     36          1           0       -4.062299    2.499729    0.128016
     37          1           0       -2.543347    1.726667   -0.334062
     38          1           0       -5.993732   -0.679562    0.764039
     39          1           0       -6.081590    1.088696    0.838050
     40          1           0       -6.050235    0.269081   -0.731154
 ---------------------------------------------------------------------

 SCF Done:  E(UB3LYP) =  -748.990569040     A.U. after   33 cycles
 SCF Done:  E(UB3LYP) =  -748.990569040     a.u. after    1 cycles

 The electronic state is 2-A.
 Alpha  occ. eigenvalues --  -18.93726 -14.23110 -14.19120 -14.18811 -10.12022
 Alpha  occ. eigenvalues --  -10.09331 -10.08086 -10.07988 -10.07942 -10.07157
 Alpha  occ. eigenvalues --  -10.06985 -10.06205 -10.06086 -10.05575 -10.05492
 Alpha  occ. eigenvalues --  -10.02742 -10.01612  -0.90879  -0.86101  -0.80353
 Alpha  occ. eigenvalues --   -0.72510  -0.70295  -0.67788  -0.64920  -0.61888
 Alpha  occ. eigenvalues --   -0.59837  -0.58997  -0.54861  -0.53700  -0.49624
 Alpha  occ. eigenvalues --   -0.49269  -0.46979  -0.45659  -0.40187  -0.38824
 Alpha  occ. eigenvalues --   -0.37105  -0.35923  -0.35860  -0.35391  -0.34351
 Alpha  occ. eigenvalues --   -0.33440  -0.32229  -0.31304  -0.30467  -0.30091
 Alpha  occ. eigenvalues --   -0.29619  -0.28783  -0.28114  -0.27634  -0.27341
 Alpha  occ. eigenvalues --   -0.26655  -0.25733  -0.24959  -0.24748  -0.23963
 Alpha  occ. eigenvalues --   -0.23621  -0.23025  -0.22545  -0.22192  -0.21320
 Alpha  occ. eigenvalues --   -0.16256  -0.15847  -0.12131  -0.10623  -0.09259
 Alpha  occ. eigenvalues --    0.04267
 Alpha virt. eigenvalues --    0.05600   0.07328   0.08109   0.08216   0.08785
 Alpha virt. eigenvalues --    0.09573   0.09936   0.10584   0.10894   0.10984
 Alpha virt. eigenvalues --    0.11375   0.11784   0.11923   0.13025   0.13132

  Beta  occ. eigenvalues --  -18.93695 -14.22800 -14.19111 -14.18279 -10.12045
  Beta  occ. eigenvalues --  -10.09324 -10.08082 -10.08005 -10.07938 -10.07131
  Beta  occ. eigenvalues --  -10.06975 -10.06251 -10.06087 -10.05555 -10.05488
  Beta  occ. eigenvalues --  -10.02500 -10.01280  -0.90471  -0.85729  -0.80334
  Beta  occ. eigenvalues --   -0.72190  -0.70247  -0.67678  -0.64198  -0.61817
  Beta  occ. eigenvalues --   -0.59804  -0.58876  -0.54765  -0.53600  -0.49213
  Beta  occ. eigenvalues --   -0.48930  -0.46920  -0.45508  -0.40126  -0.38620
  Beta  occ. eigenvalues --   -0.36866  -0.35883  -0.35718  -0.35352  -0.34274
  Beta  occ. eigenvalues --   -0.33370  -0.32028  -0.30857  -0.30277  -0.29973
  Beta  occ. eigenvalues --   -0.29576  -0.28717  -0.28036  -0.27533  -0.27276
  Beta  occ. eigenvalues --   -0.26357  -0.25611  -0.24879  -0.24613  -0.23896
  Beta  occ. eigenvalues --   -0.23591  -0.22835  -0.22453  -0.22054  -0.20464
  Beta  occ. eigenvalues --   -0.15715  -0.14037  -0.11971  -0.10353  -0.07807
  Beta virt. eigenvalues --    0.06042   0.07293   0.08102   0.08346   0.08800
  Beta virt. eigenvalues --    0.09394   0.09933   0.10367   0.10793   0.10877
  Beta virt. eigenvalues --    0.10955   0.11411   0.11848   0.11894   0.12975

 Mulliken charges and spin densities:
               1          2
     1  C   -0.581152  -0.009385
     2  C   -0.060781  -0.007320
     3  C   -0.293100  -0.054450
     4  C   -0.217167   0.013782
     5  N    0.320999   0.071288
     6  C   -0.160063  -0.009003
     7  O   -0.387843   0.010172
     8  C   -0.270283   0.280218
     9  C    0.046386   0.149408
    10  C    0.116620  -0.059084
    11  N   -0.161961   0.282313
    12  C   -1.255332   0.030458
    13  N    0.081658   0.032568
    14  C   -0.124918  -0.424687
    15  C   -0.352792   0.872425
    16  C   -0.404877  -0.231627
    17  C    0.424813  -1.028772
    18  H    0.162249   0.003370
    19  H    0.085824   0.019064
    20  H    0.112100   0.000466
    21  H    0.148830   0.000010
    22  H    0.136958   0.000860
    23  H    0.194654  -0.000783
    24  H    0.065799   0.033567
    25  H    0.184154   0.009970
    26  H    0.136193   0.021125
    27  H    0.147551  -0.020172
    28  H    0.136545  -0.008435
    29  H    0.118852   0.024644
    30  H    0.131701   0.024881
    31  H    0.213246   0.005900
    32  H    0.135526   0.023415
    33  H    0.112319   0.024231
    34  H    0.158173  -0.018988
    35  H    0.065941   0.070551
    36  H   -0.024556   0.152744
    37  H    0.215824  -0.037421
    38  H   -0.094269   0.220356
    39  H   -0.230112   0.372685
    40  H   -0.033709   0.159655
 Sum of Mulliken charges =  -1.00000   1.00000

 Dipole moment (field-independent basis, Debye):
    X=             -1.9685    Y=              3.3251    Z=              0.0295  Tot=              3.8642
 Quadrupole moment (field-independent basis, Debye-Ang):
   XX=           -198.3661   YY=           -133.7309   ZZ=           -119.4461
   XY=             17.8385   XZ=              5.2449   YZ=             -2.8627

 Summary of Natural Population Analysis:

                                       Natural Population
                Natural  -----------------------------------------------
    Atom  No    Charge         Core      Valence    Rydberg      Total
 -----------------------------------------------------------------------
      C    1   -0.29126      0.99967     2.28715    0.00444     3.29126
      C    2   -0.19189      0.99964     2.18568    0.00657     3.19189
      C    3   -0.19159      0.99962     2.18546    0.00651     3.19159
      C    4   -0.08689      0.99962     2.07708    0.01019     3.08689
      N    5   -0.10096      0.99965     2.58639    0.01493     3.60096
      C    6    0.30022      0.99960     1.67720    0.02298     2.69978
      O    7   -0.35228      0.99988     3.34597    0.00643     4.35228
      C    8   -0.07392      0.99953     2.06500    0.00939     3.07392
      C    9   -0.05981      0.99952     2.05204    0.00825     3.05981
      C   10    0.05715      0.99958     1.92877    0.01450     2.94285
      N   11   -0.06679      0.99965     2.55370    0.01344     3.56679
      C   12   -0.09635      0.99959     2.08608    0.01067     3.09635
      N   13   -0.33444      0.99975     2.82377    0.01092     3.83444
      C   14   -0.08238      0.99961     2.07179    0.01097     3.08238
      C   15   -0.12652      0.99962     2.11845    0.00846     3.12652
      C   16   -0.29117      0.99965     2.28444    0.00707     3.29117
      C   17   -0.28515      0.99965     2.27938    0.00611     3.28515
      H   18    0.11014      0.00000     0.38893    0.00094     0.38986
      H   19    0.09282      0.00000     0.40568    0.00150     0.40718
      H   20    0.08764      0.00000     0.41143    0.00093     0.41236
      H   21    0.10191      0.00000     0.39701    0.00108     0.39809
      H   22    0.08816      0.00000     0.41068    0.00116     0.41184
      H   23    0.10775      0.00000     0.39101    0.00125     0.39225
      H   24    0.08693      0.00000     0.41137    0.00170     0.41307
      H   25    0.10536      0.00000     0.39354    0.00111     0.39464
      H   26    0.09850      0.00000     0.40062    0.00088     0.40150
      H   27    0.09242      0.00000     0.40582    0.00175     0.40758
      H   28    0.09627      0.00000     0.40257    0.00116     0.40373
      H   29    0.08880      0.00000     0.40998    0.00122     0.41120
      H   30    0.08566      0.00000     0.41198    0.00236     0.41434
      H   31    0.17045      0.00000     0.32685    0.00271     0.32955
      H   32    0.08926      0.00000     0.40970    0.00104     0.41074
      H   33    0.08986      0.00000     0.40902    0.00112     0.41014
      H   34    0.09307      0.00000     0.40486    0.00207     0.40693
      H   35    0.09419      0.00000     0.40498    0.00084     0.40581
      H   36    0.09933      0.00000     0.39993    0.00074     0.40067
      H   37    0.10285      0.00000     0.39607    0.00108     0.39715
      H   38    0.09812      0.00000     0.40100    0.00088     0.40188
      H   39    0.09967      0.00000     0.39927    0.00106     0.40033
      H   40    0.09488      0.00000     0.40413    0.00099     0.40512
 =======================================================================
   * Total *   -0.00000     16.99384    47.80478    0.20137    65.00000

 Normal termination of Gaussian 16 at Fri Dec 11 13:25:44 2020.
