 Gaussian 16, Revision A.03,

 -----------------------------------------------------------
 # opt freq B3LYP/6-31G(d) empiricaldispersion=gd3bj scf=xqc
 -----------------------------------------------------------

 ------------------------------
 CID_61565595_JID_1817_neutraal
 ------------------------------
 Symbolic Z-matrix:
 Charge =  0 Multiplicity = 1

 SCF Done:  E(RB3LYP) =  -879.137114341     A.U. after   14 cycles
 SCF Done:  E(RB3LYP) =  -879.140774279     A.U. after   12 cycles
 SCF Done:  E(RB3LYP) =  -879.141187692     A.U. after   11 cycles
 SCF Done:  E(RB3LYP) =  -879.141271703     A.U. after   11 cycles
 SCF Done:  E(RB3LYP) =  -879.141437101     A.U. after   10 cycles
 SCF Done:  E(RB3LYP) =  -879.141474629     A.U. after   11 cycles
 SCF Done:  E(RB3LYP) =  -879.141500118     A.U. after    9 cycles
 SCF Done:  E(RB3LYP) =  -879.141511161     A.U. after   10 cycles
 SCF Done:  E(RB3LYP) =  -879.141512855     A.U. after    8 cycles
 SCF Done:  E(RB3LYP) =  -879.141514163     A.U. after    8 cycles
 SCF Done:  E(RB3LYP) =  -879.141515242     A.U. after    8 cycles
 SCF Done:  E(RB3LYP) =  -879.141516028     A.U. after    8 cycles
 SCF Done:  E(RB3LYP) =  -879.141516203     A.U. after    8 cycles
 Optimization completed.
    -- Stationary point found.
 Normal termination of Gaussian 16 at Tue Dec  8 21:17:06 2020.

 --------------------------------------------------------------------
 #N Geom=AllCheck Guess=TCheck SCRF=Check GenChk RB3LYP/6-31G(d) Freq
 --------------------------------------------------------------------

 Structure from the checkpoint file:  "JID_1817.chk"
 ------------------------------
 CID_61565595_JID_1817_neutraal
 ------------------------------
 Charge =  0 Multiplicity = 1

 SCF Done:  E(RB3LYP) =  -879.141516203     A.U. after    1 cycles

  Exact polarizability: 128.432   1.946  96.649   0.673   0.485  84.452
 Approx polarizability: 169.383   4.831 141.624  -4.168   0.521 136.921

                      1                      2                      3
                      A                      A                      A
 Frequencies --     41.4644                75.5486                78.3625
 Red. masses --      3.9447                 5.7443                 4.2340
 Frc consts  --      0.0040                 0.0193                 0.0153
 IR Inten    --      3.6261                 6.1274                 4.7984

                      4                      5                      6
                      A                      A                      A
 Frequencies --    157.9198               188.1603               196.6025
 Red. masses --      3.3751                 3.8630                 2.3396
 Frc consts  --      0.0496                 0.0806                 0.0533
 IR Inten    --      0.7981                 6.2437                 7.0025

                      7                      8                      9
                      A                      A                      A
 Frequencies --    243.6439               254.1483               268.8156
 Red. masses --      1.7768                 2.6962                 2.3600
 Frc consts  --      0.0621                 0.1026                 0.1005
 IR Inten    --     33.3929                50.2103                31.7896

                     10                     11                     12
                      A                      A                      A
 Frequencies --    305.0707               326.8957               364.8096
 Red. masses --      4.0528                 2.2006                 2.4022
 Frc consts  --      0.2222                 0.1386                 0.1884
 IR Inten    --     16.0686                17.7765                 8.2641

                     13                     14                     15
                      A                      A                      A
 Frequencies --    401.4177               437.8483               456.3827
 Red. masses --      2.3923                 2.7997                 1.9907
 Frc consts  --      0.2271                 0.3162                 0.2443
 IR Inten    --      4.3694                 2.9838                 0.1277

                     16                     17                     18
                      A                      A                      A
 Frequencies --    526.3300               572.0129               635.3729
 Red. masses --      2.8905                 2.5683                 2.1692
 Frc consts  --      0.4718                 0.4951                 0.5160
 IR Inten    --      1.1452                 2.4172                38.6797

                     19                     20                     21
                      A                      A                      A
 Frequencies --    649.4920               685.2608               811.4088
 Red. masses --      2.0268                 3.0476                 1.6577
 Frc consts  --      0.5037                 0.8432                 0.6430
 IR Inten    --     34.0433                26.1008                 5.5945

                     22                     23                     24
                      A                      A                      A
 Frequencies --    826.4640               855.4906               882.7766
 Red. masses --      2.0408                 1.8503                 2.6006
 Frc consts  --      0.8213                 0.7979                 1.1941
 IR Inten    --      1.3643                12.2559                19.9820

                     25                     26                     27
                      A                      A                      A
 Frequencies --    916.9896               955.5163              1004.6461
 Red. masses --      1.3863                 1.8149                 2.0153
 Frc consts  --      0.6868                 0.9763                 1.1985
 IR Inten    --      1.2724                 5.8825                 2.4266

                     28                     29                     30
                      A                      A                      A
 Frequencies --   1026.5998              1053.7694              1065.8487
 Red. masses --      2.1889                 2.1576                 1.8330
 Frc consts  --      1.3592                 1.4116                 1.2269
 IR Inten    --      8.5416                27.3261                35.7105

                     31                     32                     33
                      A                      A                      A
 Frequencies --   1069.3755              1087.1071              1087.9678
 Red. masses --      1.5788                 4.9464                 3.7445
 Frc consts  --      1.0638                 3.4442                 2.6114
 IR Inten    --     18.2610                54.7125               115.1830

                     34                     35                     36
                      A                      A                      A
 Frequencies --   1130.6538              1139.2737              1173.5648
 Red. masses --      1.7718                 1.7315                 2.4955
 Frc consts  --      1.3345                 1.3241                 2.0250
 IR Inten    --      2.2897                 1.2021                73.3195

                     37                     38                     39
                      A                      A                      A
 Frequencies --   1204.9503              1219.4372              1233.2225
 Red. masses --      1.4135                 1.3706                 1.4166
 Frc consts  --      1.2092                 1.2009                 1.2694
 IR Inten    --     15.6134                 1.0209                22.2817

                     40                     41                     42
                      A                      A                      A
 Frequencies --   1267.8227              1293.5874              1304.2362
 Red. masses --      1.2975                 1.3094                 1.3415
 Frc consts  --      1.2288                 1.2910                 1.3445
 IR Inten    --      1.4805                 0.6336                 5.9188

                     43                     44                     45
                      A                      A                      A
 Frequencies --   1340.2125              1350.7244              1365.8258
 Red. masses --      1.3121                 1.2446                 1.2721
 Frc consts  --      1.3885                 1.3379                 1.3982
 IR Inten    --      1.4395                 0.6375                 0.8331

                     46                     47                     48
                      A                      A                      A
 Frequencies --   1389.6217              1400.4862              1409.4607
 Red. masses --      1.3786                 1.2254                 1.2366
 Frc consts  --      1.5685                 1.4161                 1.4474
 IR Inten    --      2.7544                11.0417                20.0310

                     49                     50                     51
                      A                      A                      A
 Frequencies --   1423.6736              1436.3552              1490.9462
 Red. masses --      1.4449                 1.2978                 1.0899
 Frc consts  --      1.7255                 1.5775                 1.4275
 IR Inten    --      3.2204                38.4765                 2.7760

                     52                     53                     54
                      A                      A                      A
 Frequencies --   1496.0758              1505.4860              1506.7172
 Red. masses --      1.1026                 1.0944                 1.0856
 Frc consts  --      1.4540                 1.4615                 1.4520
 IR Inten    --      4.3415                11.8881                 2.4393

                     55                     56                     57
                      A                      A                      A
 Frequencies --   1518.0131              1521.2055              1539.0015
 Red. masses --      1.1791                 1.1526                 1.0906
 Frc consts  --      1.6009                 1.5715                 1.5219
 IR Inten    --     22.1615                11.9306                 4.3490

                     58                     59                     60
                      A                      A                      A
 Frequencies --   2993.8850              3019.5200              3031.7213
 Red. masses --      1.0720                 1.0702                 1.0758
 Frc consts  --      5.6615                 5.7492                 5.8261
 IR Inten    --     54.5342                12.3654                 2.0108

                     61                     62                     63
                      A                      A                      A
 Frequencies --   3040.1936              3046.0108              3063.3259
 Red. masses --      1.0645                 1.0725                 1.0613
 Frc consts  --      5.7970                 5.8630                 5.8677
 IR Inten    --     33.3468                43.3009                 7.7996

                     64                     65                     66
                      A                      A                      A
 Frequencies --   3065.1666              3091.7102              3093.3626
 Red. masses --      1.0611                 1.0937                 1.0986
 Frc consts  --      5.8739                 6.1593                 6.1936
 IR Inten    --     15.2371                32.5543                33.2413

                     67                     68                     69
                      A                      A                      A
 Frequencies --   3103.2659              3104.6042              3125.8184
 Red. masses --      1.0962                 1.0952                 1.1042
 Frc consts  --      6.2197                 6.2196                 6.3568
 IR Inten    --     22.8010                57.2938                 9.8021

                     70                     71                     72
                      A                      A                      A
 Frequencies --   3127.1642              3519.5552              3738.8457
 Red. masses --      1.1052                 1.0741                 1.0651
 Frc consts  --      6.3676                 7.8395                 8.7726
 IR Inten    --      9.8636                 0.0640                12.3072

 - Thermochemistry -
 -------------------
 Temperature   298.150 Kelvin.  Pressure   1.00000 Atm.
 Atom     1 has atomic number  6 and mass  12.00000

 Molecular mass:   177.08235 amu.
 Principal axes and moments of inertia in atomic units:
                           1         2         3
     Eigenvalues --   817.021924080.108284591.48227
           X            0.99999  -0.00414   0.00351
           Y            0.00415   0.99999  -0.00305
           Z           -0.00350   0.00306   0.99999
 This molecule is an asymmetric top.
 Rotational symmetry number  1.
 Warning -- assumption of classical behavior for rotation
           may cause significant error
 Rotational temperatures (Kelvin)      0.10601     0.02123     0.01886
 Rotational constants (GHZ):           2.20893     0.44233     0.39306
 Zero-point vibrational energy     594150.6 (Joules/Mol)
                                  142.00540 (Kcal/Mol)
 Warning -- explicit consideration of  17 degrees of freedom as
           vibrations may cause significant error
 Vibrational temperatures:     59.66   108.70   112.75   227.21   270.72
          (Kelvin)            282.87   350.55   365.66   386.77   438.93
                              470.33   524.88   577.55   629.97   656.63
                              757.27   823.00   914.16   934.47   985.94
                             1167.44  1189.10  1230.86  1270.12  1319.34
                             1374.77  1445.46  1477.05  1516.14  1533.52
                             1538.59  1564.10  1565.34  1626.76  1639.16
                             1688.50  1733.65  1754.50  1774.33  1824.11
                             1861.18  1876.51  1928.27  1943.39  1965.12
                             1999.36  2014.99  2027.90  2048.35  2066.59
                             2145.14  2152.52  2166.06  2167.83  2184.08
                             2188.68  2214.28  4307.53  4344.42  4361.97
                             4374.16  4382.53  4407.44  4410.09  4448.28
                             4450.66  4464.91  4466.83  4497.36  4499.29
                             5063.85  5379.36

 Zero-point correction=                           0.226300 (Hartree/Particle)
 Thermal correction to Energy=                    0.238330
 Thermal correction to Enthalpy=                  0.239275
 Thermal correction to Gibbs Free Energy=         0.187824
 Sum of electronic and zero-point Energies=           -878.915216
 Sum of electronic and thermal Energies=              -878.903186
 Sum of electronic and thermal Enthalpies=            -878.902242
 Sum of electronic and thermal Free Energies=         -878.953692

                     E (Thermal)             CV                S
                      KCal/Mol        Cal/Mol-Kelvin    Cal/Mol-Kelvin
 Total                  149.555             45.416            108.286
 Electronic               0.000              0.000              0.000
 Translational            0.889              2.981             41.421
 Rotational               0.889              2.981             31.104
 Vibrational            147.777             39.455             35.761
 Vibration     1          0.594              1.981              5.188
 Vibration     2          0.599              1.965              4.003
 Vibration     3          0.600              1.964              3.931
 Vibration     4          0.621              1.894              2.575
 Vibration     5          0.633              1.856              2.246
 Vibration     6          0.636              1.845              2.165
 Vibration     7          0.659              1.773              1.776
 Vibration     8          0.665              1.756              1.702
 Vibration     9          0.673              1.731              1.604
 Vibration    10          0.696              1.664              1.389
 Vibration    11          0.711              1.622              1.275
 Vibration    12          0.738              1.545              1.102
 Vibration    13          0.767              1.467              0.957
 Vibration    14          0.798              1.388              0.833
 Vibration    15          0.815              1.347              0.777
 Vibration    16          0.881              1.192              0.595
 Vibration    17          0.928              1.092              0.500

 Optimization completed.
    -- Stationary point found.
 Normal termination of Gaussian 16 at Tue Dec  8 21:23:17 2020.

 ----------------------------------------------------------------------
 # B3LYP/6-311++G(d,p) empiricaldispersion=gd3bj scf=xqc pop=npa geom=c
 heck
 ----------------------------------------------------------------------

 --------------------------------------
 CID_61565595_JID_1817_Energie_neutraal
 --------------------------------------
 Structure from the checkpoint file:  "JID_1817.chk"
 Charge =  0 Multiplicity = 1

 SCF Done:  E(RB3LYP) =  -879.325198749     A.U. after   15 cycles
 Normal termination of Gaussian 16 at Tue Dec  8 21:28:28 2020.

 ----------------------------------------------------------------------
 # B3LYP/6-311++G(d,p) empiricaldispersion=gd3bj scf=xqc pop=npa geom=c
 heck
 ----------------------------------------------------------------------

 ------------------------------------
 CID_61565595_JID_1817_Energie_kation
 ------------------------------------
 Structure from the checkpoint file:  "JID_1817.chk"
 Charge =  1 Multiplicity = 2

 SCF Done:  E(UB3LYP) =  -879.020011509     A.U. after   29 cycles
 Normal termination of Gaussian 16 at Tue Dec  8 21:40:35 2020.
 Gaussian 16:  ES64L-G16RevA.03 25-Dec-2016

 ----------------------------------------------------------------------
 # B3LYP/6-311++G(d,p) empiricaldispersion=gd3bj scf=xqc pop=npa geom=c
 heck
 ----------------------------------------------------------------------

 -----------------------------------
 CID_61565595_JID_1817_Energie_anion
 -----------------------------------
 Structure from the checkpoint file:  "JID_1817.chk"
 Charge = -1 Multiplicity = 2

                         Standard orientation:
 ---------------------------------------------------------------------
 Center     Atomic      Atomic             Coordinates (Angstroms)
 Number     Number       Type             X           Y           Z
 ---------------------------------------------------------------------
      1          6           0       -0.594165    1.616126   -0.297326
      2          6           0       -1.970525    1.286719    0.280653
      3         16           0       -2.622142   -0.313886   -0.357965
      4          8           0       -3.832750   -0.684404    0.470049
      5          6           0       -1.195518   -1.297576    0.271581
      6          6           0        0.135200   -0.812703   -0.306509
      7          6           0        0.508604    0.625548    0.114892
      8          7           0        1.786769    1.095923   -0.414242
      9          6           0        2.994537    0.887833    0.378325
     10          6           0        3.395812   -0.565006    0.662352
     11          8           0        3.593871   -1.317118   -0.527810
     12          1           0       -0.294345    2.618861    0.023764
     13          1           0       -0.648676    1.648197   -1.394734
     14          1           0       -1.959986    1.201508    1.374088
     15          1           0       -2.717525    2.038131    0.007704
     16          1           0       -1.406895   -2.334568   -0.005951
     17          1           0       -1.226959   -1.226385    1.365410
     18          1           0        0.090985   -0.853816   -1.405530
     19          1           0        0.917444   -1.513769    0.004872
     20          1           0        0.590761    0.648356    1.210572
     21          1           0        1.919235    0.823508   -1.384410
     22          1           0        3.816412    1.378400   -0.155598
     23          1           0        2.870945    1.414524    1.334456
     24          1           0        4.353356   -0.584141    1.192843
     25          1           0        2.651146   -1.045594    1.317839
     26          1           0        2.758359   -1.295967   -1.019898
 ---------------------------------------------------------------------

 SCF Done:  E(UB3LYP) =  -879.314864201     A.U. after   28 cycles

 The electronic state is 2-A.
 Alpha  occ. eigenvalues --  -88.84375 -19.02306 -18.98163 -14.20200 -10.11360
 Alpha  occ. eigenvalues --  -10.11130 -10.10387 -10.10312 -10.09641 -10.08496
 Alpha  occ. eigenvalues --  -10.07974  -7.92110  -5.88385  -5.88229  -5.87708
 Alpha  occ. eigenvalues --   -0.92509  -0.91194  -0.81539  -0.73437  -0.67202
 Alpha  occ. eigenvalues --   -0.65425  -0.61191  -0.54062  -0.53186  -0.50427
 Alpha  occ. eigenvalues --   -0.48299  -0.41951  -0.40166  -0.38165  -0.36924
 Alpha  occ. eigenvalues --   -0.36390  -0.35331  -0.34199  -0.32978  -0.31742
 Alpha  occ. eigenvalues --   -0.31158  -0.29793  -0.29024  -0.27450  -0.27054
 Alpha  occ. eigenvalues --   -0.25739  -0.24611  -0.24124  -0.23495  -0.18533
 Alpha  occ. eigenvalues --   -0.16761  -0.13544  -0.12694   0.04397
 Alpha virt. eigenvalues --    0.06494   0.07084   0.07594   0.09130   0.09653
 Alpha virt. eigenvalues --    0.10047   0.10316   0.10417   0.11616   0.11926
 Alpha virt. eigenvalues --    0.12285   0.13172   0.13646   0.14137   0.14663

  Beta  occ. eigenvalues --  -88.84370 -19.02273 -18.98140 -14.20176 -10.11333
  Beta  occ. eigenvalues --  -10.11116 -10.10373 -10.10301 -10.09620 -10.08443
  Beta  occ. eigenvalues --  -10.07939  -7.92104  -5.88377  -5.88224  -5.87700
  Beta  occ. eigenvalues --   -0.92439  -0.91137  -0.81493  -0.73387  -0.67145
  Beta  occ. eigenvalues --   -0.65371  -0.61115  -0.53979  -0.53117  -0.50346
  Beta  occ. eigenvalues --   -0.48215  -0.41881  -0.40092  -0.38115  -0.36883
  Beta  occ. eigenvalues --   -0.36324  -0.35269  -0.34129  -0.32937  -0.31688
  Beta  occ. eigenvalues --   -0.31106  -0.29729  -0.28969  -0.27386  -0.27001
  Beta  occ. eigenvalues --   -0.25688  -0.24553  -0.24071  -0.23449  -0.18481
  Beta  occ. eigenvalues --   -0.16736  -0.13500  -0.12660
  Beta virt. eigenvalues --    0.06897   0.07566   0.07904   0.08137   0.09459
  Beta virt. eigenvalues --    0.09975   0.10472   0.10899   0.10975   0.12051
  Beta virt. eigenvalues --    0.12309   0.12556   0.13473   0.13781   0.14428

 Mulliken charges and spin densities:
               1          2
     1  C    0.794540  -0.866029
     2  C   -0.497754  -0.110054
     3  S    1.021183  -0.492342
     4  O   -0.476643   0.006734
     5  C   -0.048951  -0.690277
     6  C    0.963526  -1.049584
     7  C   -0.815784   0.166089
     8  N   -0.183691   0.154330
     9  C   -0.097078  -0.066090
    10  C    0.869580  -1.272254
    11  O   -0.236276   0.008791
    12  H   -0.417955   0.633779
    13  H   -0.345437   0.488516
    14  H    0.053438   0.155693
    15  H    0.036123   0.208598
    16  H   -0.047279   0.276189
    17  H    0.082791   0.147635
    18  H   -0.697623   0.876091
    19  H    0.010855   0.149542
    20  H   -0.105046   0.262411
    21  H    0.152888   0.115472
    22  H   -0.205853   0.391821
    23  H   -0.219312   0.356275
    24  H   -0.141654   0.302425
    25  H   -0.319415   0.465735
    26  H   -0.129174   0.380504
 Sum of Mulliken charges =  -1.00000   1.00000

 Dipole moment (field-independent basis, Debye):
    X=             -1.3053    Y=              0.5191    Z=              0.6825  Tot=              1.5618
 Quadrupole moment (field-independent basis, Debye-Ang):
   XX=           -150.4597   YY=           -117.9523   ZZ=           -108.7981
   XY=             -0.0022   XZ=              5.2808   YZ=             -2.0016

 Summary of Natural Population Analysis:

                                       Natural Population
                Natural  -----------------------------------------------
    Atom  No    Charge         Core      Valence    Rydberg      Total
 -----------------------------------------------------------------------
      C    1   -0.20263      0.99960     2.19077    0.01227     3.20263
      C    2   -0.27676      0.99959     2.26396    0.01320     3.27676
      S    3    0.58863      4.99943     2.35836    0.05358     7.41137
      O    4   -0.48711      0.99993     3.48091    0.00627     4.48711
      C    5   -0.27586      0.99960     2.26259    0.01367     3.27586
      C    6   -0.21426      0.99959     2.20142    0.01324     3.21426
      C    7   -0.00937      0.99957     1.99680    0.01300     3.00937
      N    8   -0.34666      0.99973     2.83261    0.01432     3.84666
      C    9   -0.09523      0.99962     2.08530    0.01032     3.09523
      C   10   -0.01930      0.99960     2.00803    0.01167     3.01930
      O   11   -0.36990      0.99990     3.36303    0.00697     4.36990
      H   12    0.11465      0.00000     0.38314    0.00221     0.38535
      H   13    0.10090      0.00000     0.39689    0.00221     0.39910
      H   14    0.10613      0.00000     0.39245    0.00143     0.39387
      H   15    0.10978      0.00000     0.38880    0.00142     0.39022
      H   16    0.11178      0.00000     0.38666    0.00156     0.38822
      H   17    0.10653      0.00000     0.39208    0.00138     0.39347
      H   18    0.10101      0.00000     0.39532    0.00367     0.39899
      H   19    0.10902      0.00000     0.38844    0.00254     0.39098
      H   20    0.09314      0.00000     0.40452    0.00234     0.40686
      H   21    0.17705      0.00000     0.31925    0.00370     0.32295
      H   22    0.09560      0.00000     0.40315    0.00124     0.40440
      H   23    0.09326      0.00000     0.40511    0.00163     0.40674
      H   24    0.08667      0.00000     0.41178    0.00155     0.41333
      H   25    0.07421      0.00000     0.42389    0.00190     0.42579
      H   26    0.22872      0.00000     0.26632    0.00496     0.27128
 =======================================================================
   * Total *    0.00000     14.99616    32.80159    0.20225    48.00000

 Normal termination of Gaussian 16 at Tue Dec  8 21:49:09 2020.
