 Gaussian 16, Revision A.03,

 -----------------------------------------------------------
 # opt freq B3LYP/6-31G(d) empiricaldispersion=gd3bj scf=xqc
 -----------------------------------------------------------

 ------------------------------
 CID_79872613_JID_3368_neutraal
 ------------------------------
 Symbolic Z-matrix:
 Charge =  0 Multiplicity = 1

 SCF Done:  E(RB3LYP) =  -624.761726418     A.U. after   14 cycles
 SCF Done:  E(RB3LYP) =  -624.768475427     A.U. after   12 cycles
 SCF Done:  E(RB3LYP) =  -624.769649910     A.U. after   12 cycles
 SCF Done:  E(RB3LYP) =  -624.770605425     A.U. after   11 cycles
 SCF Done:  E(RB3LYP) =  -624.770876987     A.U. after   11 cycles
 SCF Done:  E(RB3LYP) =  -624.770969566     A.U. after   12 cycles
 SCF Done:  E(RB3LYP) =  -624.771011755     A.U. after   10 cycles
 SCF Done:  E(RB3LYP) =  -624.771043169     A.U. after   10 cycles
 SCF Done:  E(RB3LYP) =  -624.771053349     A.U. after    9 cycles
 SCF Done:  E(RB3LYP) =  -624.771056372     A.U. after    8 cycles
 SCF Done:  E(RB3LYP) =  -624.771058481     A.U. after    8 cycles
 SCF Done:  E(RB3LYP) =  -624.771060519     A.U. after    8 cycles
 SCF Done:  E(RB3LYP) =  -624.771061325     A.U. after    8 cycles
 SCF Done:  E(RB3LYP) =  -624.771061561     A.U. after    7 cycles
 SCF Done:  E(RB3LYP) =  -624.771061636     A.U. after    7 cycles
 Optimization completed.
    -- Stationary point found.
 Normal termination of Gaussian 16 at Wed Dec  9 23:02:21 2020.

 --------------------------------------------------------------------
 #N Geom=AllCheck Guess=TCheck SCRF=Check GenChk RB3LYP/6-31G(d) Freq
 --------------------------------------------------------------------

 Structure from the checkpoint file:  "JID_3368.chk"
 ------------------------------
 CID_79872613_JID_3368_neutraal
 ------------------------------
 Charge =  0 Multiplicity = 1

 SCF Done:  E(RB3LYP) =  -624.771061636     A.U. after    1 cycles

  Exact polarizability: 123.757  12.558 101.558   8.078  -6.248  92.433
 Approx polarizability: 165.621  16.743 151.043  19.442 -19.218 143.255

                      1                      2                      3
                      A                      A                      A
 Frequencies --     44.6870                63.7341                78.9393
 Red. masses --      3.6395                 3.8176                 3.4566
 Frc consts  --      0.0043                 0.0091                 0.0127
 IR Inten    --      0.0976                 0.7311                 0.7080

                      4                      5                      6
                      A                      A                      A
 Frequencies --    104.9616               145.5995               170.7875
 Red. masses --      3.3486                 2.4875                 1.6640
 Frc consts  --      0.0217                 0.0311                 0.0286
 IR Inten    --      7.4770                 0.0769                 3.7273

                      7                      8                      9
                      A                      A                      A
 Frequencies --    191.6122               230.3862               244.9143
 Red. masses --      1.7917                 2.7772                 1.3005
 Frc consts  --      0.0388                 0.0869                 0.0460
 IR Inten    --      3.3820                 6.6004                14.7829

                     10                     11                     12
                      A                      A                      A
 Frequencies --    252.3796               262.4642               270.2194
 Red. masses --      1.2394                 2.6215                 1.2281
 Frc consts  --      0.0465                 0.1064                 0.0528
 IR Inten    --     11.0298                 3.8238                 3.6077

                     13                     14                     15
                      A                      A                      A
 Frequencies --    293.8488               306.5499               389.1471
 Red. masses --      3.4730                 1.7744                 4.1182
 Frc consts  --      0.1767                 0.0982                 0.3674
 IR Inten    --      4.1309                 5.8332                 5.4292

                     16                     17                     18
                      A                      A                      A
 Frequencies --    393.1448               426.9229               441.2027
 Red. masses --      2.4700                 3.6484                 1.9148
 Frc consts  --      0.2249                 0.3918                 0.2196
 IR Inten    --      4.7649                 1.3491                 0.1218

                     19                     20                     21
                      A                      A                      A
 Frequencies --    526.8107               594.6146               637.7494
 Red. masses --      3.0684                 3.7905                 3.8646
 Frc consts  --      0.5017                 0.7896                 0.9261
 IR Inten    --     19.7939                22.1057                13.1493

                     22                     23                     24
                      A                      A                      A
 Frequencies --    654.4949               695.5442               746.7349
 Red. masses --      3.4360                 5.9832                 4.2553
 Frc consts  --      0.8672                 1.7054                 1.3980
 IR Inten    --     57.5828                 1.1439                33.0566

                     25                     26                     27
                      A                      A                      A
 Frequencies --    773.2136               778.7131               838.4922
 Red. masses --      2.6294                 2.7292                 4.0004
 Frc consts  --      0.9262                 0.9751                 1.6571
 IR Inten    --    131.5413                38.6681                 2.7620

                     28                     29                     30
                      A                      A                      A
 Frequencies --    924.2663               954.1895              1023.5419
 Red. masses --      2.5308                 2.5110                 6.2666
 Frc consts  --      1.2738                 1.3470                 3.8680
 IR Inten    --      6.6274                 8.2536                16.9656

                     31                     32                     33
                      A                      A                      A
 Frequencies --   1056.4270              1088.8415              1094.7020
 Red. masses --      2.8566                 1.5460                 2.1668
 Frc consts  --      1.8783                 1.0799                 1.5299
 IR Inten    --     21.5565                 7.4419                33.8098

                     34                     35                     36
                      A                      A                      A
 Frequencies --   1105.0103              1138.0184              1140.6429
 Red. masses --      3.2977                 1.5661                 1.9481
 Frc consts  --      2.3724                 1.1950                 1.4933
 IR Inten    --     21.0055                17.3807                29.4460

                     37                     38                     39
                      A                      A                      A
 Frequencies --   1162.6347              1191.1400              1197.8742
 Red. masses --      1.8210                 1.2674                 1.4188
 Frc consts  --      1.4503                 1.0595                 1.1994
 IR Inten    --     13.3951                 0.7288                 4.3914

                     40                     41                     42
                      A                      A                      A
 Frequencies --   1233.7878              1238.3095              1314.2522
 Red. masses --      1.5937                 2.0279                 3.0161
 Frc consts  --      1.4293                 1.8321                 3.0694
 IR Inten    --      7.9521                 9.0510                 2.5544

                     43                     44                     45
                      A                      A                      A
 Frequencies --   1318.7794              1348.5972              1376.6157
 Red. masses --      1.8962                 2.3636                 1.5929
 Frc consts  --      1.9431                 2.5327                 1.7785
 IR Inten    --     16.4083                15.1840                 8.5803

                     46                     47                     48
                      A                      A                      A
 Frequencies --   1407.4994              1415.2817              1435.7611
 Red. masses --      1.4593                 1.3401                 3.0889
 Frc consts  --      1.7033                 1.5815                 3.7517
 IR Inten    --     24.2963                16.8509               262.4605

                     49                     50                     51
                      A                      A                      A
 Frequencies --   1471.6725              1473.3641              1486.5466
 Red. masses --      1.1888                 1.6032                 1.1150
 Frc consts  --      1.5170                 2.0505                 1.4517
 IR Inten    --      9.4816                41.9361                 1.9313

                     52                     53                     54
                      A                      A                      A
 Frequencies --   1502.7988              1505.9207              1509.8533
 Red. masses --      1.0876                 1.0836                 1.0650
 Frc consts  --      1.4471                 1.4479                 1.4305
 IR Inten    --     26.0896                 4.3052                 3.7317

                     55                     56                     57
                      A                      A                      A
 Frequencies --   1510.4143              1527.2914              1529.5976
 Red. masses --      1.0740                 1.1124                 1.0728
 Frc consts  --      1.4436                 1.5288                 1.4788
 IR Inten    --      8.9703                 7.0387                30.2982

                     58                     59                     60
                      A                      A                      A
 Frequencies --   1547.8992              1549.8698              1562.6838
 Red. masses --      1.0989                 2.7919                 1.0628
 Frc consts  --      1.5512                 3.9513                 1.5291
 IR Inten    --      7.8393               183.2015                 3.1779

                     61                     62                     63
                      A                      A                      A
 Frequencies --   1590.9335              1624.6838              1685.5785
 Red. masses --      3.5800                 5.2122                 1.3879
 Frc consts  --      5.3387                 8.1061                 2.3233
 IR Inten    --    164.6032               208.4970               111.3679

                     64                     65                     66
                      A                      A                      A
 Frequencies --   2964.5958              2997.3945              3026.6760
 Red. masses --      1.0566                 1.0523                 1.0694
 Frc consts  --      5.4713                 5.5704                 5.7721
 IR Inten    --     45.4332                65.9547                31.7372

                     67                     68                     69
                      A                      A                      A
 Frequencies --   3054.4181              3062.1453              3062.6239
 Red. masses --      1.0315                 1.0668                 1.0756
 Frc consts  --      5.6699                 5.8937                 5.9442
 IR Inten    --     38.3337                66.3859                51.0631

                     70                     71                     72
                      A                      A                      A
 Frequencies --   3065.8938              3103.9773              3109.5725
 Red. masses --      1.0846                 1.1030                 1.0960
 Frc consts  --      6.0065                 6.2615                 6.2438
 IR Inten    --     48.0470                31.0110                 6.2093

                     73                     74                     75
                      A                      A                      A
 Frequencies --   3119.4164              3130.1743              3134.0486
 Red. masses --      1.1067                 1.0984                 1.0981
 Frc consts  --      6.3447                 6.3406                 6.3547
 IR Inten    --     33.0672                 8.3575                40.5183

                     76                     77                     78
                      A                      A                      A
 Frequencies --   3170.7375              3538.4266              3636.3600
 Red. masses --      1.1047                 1.0486                 1.0966
 Frc consts  --      6.5437                 7.7353                 8.5437
 IR Inten    --     27.5223                23.9897                25.4672

 - Thermochemistry -
 -------------------
 Temperature   298.150 Kelvin.  Pressure   1.00000 Atm.
 Atom     1 has atomic number  6 and mass  12.00000

 Molecular mass:   185.12766 amu.
 Principal axes and moments of inertia in atomic units:
                           1         2         3
     Eigenvalues --  1483.892363136.196533695.75711
           X            0.99954   0.02933  -0.00728
           Y           -0.02925   0.99951   0.01115
           Z            0.00761  -0.01093   0.99991
 This molecule is an asymmetric top.
 Rotational symmetry number  1.
 Warning -- assumption of classical behavior for rotation
           may cause significant error
 Rotational temperatures (Kelvin)      0.05837     0.02762     0.02344
 Rotational constants (GHZ):           1.21622     0.57546     0.48833
 Zero-point vibrational energy     633898.8 (Joules/Mol)
                                  151.50546 (Kcal/Mol)
 Warning -- explicit consideration of  20 degrees of freedom as
           vibrations may cause significant error
 Vibrational temperatures:     64.29    91.70   113.58   151.02   209.49
          (Kelvin)            245.73   275.69   331.47   352.38   363.12
                              377.63   388.79   422.78   441.06   559.90
                              565.65   614.25   634.79   757.96   855.52
                              917.58   941.67  1000.73  1074.39  1112.48
                             1120.39  1206.40  1329.81  1372.87  1472.65
                             1519.96  1566.60  1575.03  1589.86  1637.35
                             1641.13  1672.77  1713.78  1723.47  1775.15
                             1781.65  1890.92  1897.43  1940.33  1980.64
                             2025.08  2036.27  2065.74  2117.41  2119.84
                             2138.81  2162.19  2166.68  2172.34  2173.15
                             2197.43  2200.75  2227.08  2229.92  2248.35
                             2289.00  2337.56  2425.17  4265.39  4312.58
                             4354.71  4394.63  4405.74  4406.43  4411.14
                             4465.93  4473.98  4488.14  4503.62  4509.20
                             4561.98  5091.01  5231.91

 Zero-point correction=                           0.241439 (Hartree/Particle)
 Thermal correction to Energy=                    0.255280
 Thermal correction to Enthalpy=                  0.256224
 Thermal correction to Gibbs Free Energy=         0.201055
 Sum of electronic and zero-point Energies=           -624.529622
 Sum of electronic and thermal Energies=              -624.515782
 Sum of electronic and thermal Enthalpies=            -624.514838
 Sum of electronic and thermal Free Energies=         -624.570007

                     E (Thermal)             CV                S
                      KCal/Mol        Cal/Mol-Kelvin    Cal/Mol-Kelvin
 Total                  160.190             50.773            116.113
 Electronic               0.000              0.000              0.000
 Translational            0.889              2.981             41.554
 Rotational               0.889              2.981             31.220
 Vibrational            158.413             44.812             43.339
 Vibration     1          0.595              1.980              5.040
 Vibration     2          0.597              1.972              4.338
 Vibration     3          0.600              1.963              3.917
 Vibration     4          0.605              1.945              3.360
 Vibration     5          0.617              1.907              2.729
 Vibration     6          0.626              1.878              2.427
 Vibration     7          0.634              1.851              2.212
 Vibration     8          0.652              1.795              1.876
 Vibration     9          0.660              1.771              1.767
 Vibration    10          0.664              1.759              1.714
 Vibration    11          0.670              1.742              1.645
 Vibration    12          0.674              1.728              1.595
 Vibration    13          0.689              1.685              1.452
 Vibration    14          0.697              1.661              1.381
 Vibration    15          0.757              1.493              1.003
 Vibration    16          0.760              1.485              0.988
 Vibration    17          0.789              1.412              0.869
 Vibration    18          0.801              1.380              0.823
 Vibration    19          0.882              1.191              0.594
 Vibration    20          0.952              1.043              0.459

 Optimization completed.
    -- Stationary point found.
 Normal termination of Gaussian 16 at Wed Dec  9 23:09:21 2020.

 ----------------------------------------------------------------------
 # B3LYP/6-311++G(d,p) empiricaldispersion=gd3bj scf=xqc pop=npa geom=c
 heck
 ----------------------------------------------------------------------

 --------------------------------------
 CID_79872613_JID_3368_Energie_neutraal
 --------------------------------------
 Structure from the checkpoint file:  "JID_3368.chk"
 Charge =  0 Multiplicity = 1

 SCF Done:  E(RB3LYP) =  -624.952667284     A.U. after   14 cycles
 Normal termination of Gaussian 16 at Wed Dec  9 23:12:16 2020.

 ----------------------------------------------------------------------
 # B3LYP/6-311++G(d,p) empiricaldispersion=gd3bj scf=xqc pop=npa geom=c
 heck
 ----------------------------------------------------------------------

 ------------------------------------
 CID_79872613_JID_3368_Energie_kation
 ------------------------------------
 Structure from the checkpoint file:  "JID_3368.chk"
 Charge =  1 Multiplicity = 2

 SCF Done:  E(UB3LYP) =  -624.675742975     A.U. after   20 cycles
 Normal termination of Gaussian 16 at Wed Dec  9 23:18:08 2020.
 Gaussian 16:  ES64L-G16RevA.03 25-Dec-2016

 ----------------------------------------------------------------------
 # B3LYP/6-311++G(d,p) empiricaldispersion=gd3bj scf=xqc pop=npa geom=c
 heck
 ----------------------------------------------------------------------

 -----------------------------------
 CID_79872613_JID_3368_Energie_anion
 -----------------------------------
 Structure from the checkpoint file:  "JID_3368.chk"
 Charge = -1 Multiplicity = 2

                         Standard orientation:
 ---------------------------------------------------------------------
 Center     Atomic      Atomic             Coordinates (Angstroms)
 Number     Number       Type             X           Y           Z
 ---------------------------------------------------------------------
      1          6           0        1.199581   -1.376703   -1.357416
      2          7           0        2.234568   -1.228099   -0.343619
      3          6           0        3.238189   -0.241991   -0.701859
      4          6           0        1.782625   -1.162339    1.031596
      5          6           0        1.177527    0.168013    1.534496
      6          7           0       -0.026922    0.546959    0.824899
      7          6           0       -0.233974    1.555918   -0.052593
      8          7           0       -1.393795    1.414146   -0.679557
      9          6           0       -1.867720    0.257121   -0.136442
     10          7           0       -1.107153   -0.320711    0.779429
     11          8           0       -3.056471   -0.218401   -0.528015
     12          6           0       -3.449545   -1.444465    0.089161
     13          7           0        0.692420    2.555420   -0.308817
     14          1           0        1.661306   -1.741575   -2.283426
     15          1           0        0.656830   -0.448191   -1.600255
     16          1           0        0.466033   -2.115718   -1.024304
     17          1           0        2.842544    0.784623   -0.809487
     18          1           0        4.030665   -0.230715    0.056355
     19          1           0        3.693749   -0.522028   -1.658946
     20          1           0        1.040077   -1.950452    1.188066
     21          1           0        2.638077   -1.379654    1.687695
     22          1           0        0.949438    0.076332    2.603132
     23          1           0        1.895640    0.983160    1.412446
     24          1           0       -2.727505   -2.238841   -0.129305
     25          1           0       -3.523914   -1.327471    1.175477
     26          1           0       -4.423930   -1.689908   -0.335193
     27          1           0        0.292620    3.253548   -0.926231
     28          1           0        1.086204    2.986762    0.520114
 ---------------------------------------------------------------------

 SCF Done:  E(UB3LYP) =  -624.942900255     A.U. after   31 cycles

 The electronic state is 2-A.
 Alpha  occ. eigenvalues --  -19.06612 -14.27866 -14.22136 -14.21927 -14.20140
 Alpha  occ. eigenvalues --  -14.19126 -10.16978 -10.16781 -10.13494 -10.10643
 Alpha  occ. eigenvalues --  -10.09456 -10.08314 -10.07848  -1.00111  -0.95637
 Alpha  occ. eigenvalues --   -0.82731  -0.82080  -0.79110  -0.71612  -0.65294
 Alpha  occ. eigenvalues --   -0.62618  -0.60315  -0.56784  -0.51312  -0.49975
 Alpha  occ. eigenvalues --   -0.47576  -0.44762  -0.40535  -0.39880  -0.38942
 Alpha  occ. eigenvalues --   -0.38182  -0.37415  -0.36872  -0.35500  -0.33186
 Alpha  occ. eigenvalues --   -0.33159  -0.31404  -0.29906  -0.28216  -0.26993
 Alpha  occ. eigenvalues --   -0.26739  -0.26313  -0.25625  -0.25370  -0.23148
 Alpha  occ. eigenvalues --   -0.21387  -0.17862  -0.16272  -0.12166  -0.10553
 Alpha  occ. eigenvalues --    0.04517
 Alpha virt. eigenvalues --    0.06501   0.07564   0.08025   0.09142   0.10035
 Alpha virt. eigenvalues --    0.10145   0.10352   0.11599   0.11679   0.12104
 Alpha virt. eigenvalues --    0.12936   0.13179   0.13985   0.14382   0.14735

  Beta  occ. eigenvalues --  -19.06610 -14.27866 -14.22043 -14.21920 -14.20140
  Beta  occ. eigenvalues --  -14.19117 -10.16975 -10.16777 -10.13486 -10.10599
  Beta  occ. eigenvalues --  -10.09441 -10.08303 -10.07816  -1.00106  -0.95628
  Beta  occ. eigenvalues --   -0.82664  -0.82041  -0.79078  -0.71560  -0.65258
  Beta  occ. eigenvalues --   -0.62599  -0.60279  -0.56733  -0.51279  -0.49922
  Beta  occ. eigenvalues --   -0.47512  -0.44691  -0.40510  -0.39808  -0.38899
  Beta  occ. eigenvalues --   -0.38153  -0.37382  -0.36834  -0.35467  -0.33158
  Beta  occ. eigenvalues --   -0.33132  -0.31375  -0.29853  -0.28190  -0.26980
  Beta  occ. eigenvalues --   -0.26719  -0.26283  -0.25597  -0.25344  -0.23114
  Beta  occ. eigenvalues --   -0.21352  -0.17839  -0.16252  -0.12138  -0.10537
  Beta virt. eigenvalues --    0.06420   0.07491   0.08527   0.08730   0.09455
  Beta virt. eigenvalues --    0.10185   0.10385   0.11227   0.11742   0.11956
  Beta virt. eigenvalues --    0.12192   0.13308   0.13583   0.14343   0.14952

 Mulliken charges and spin densities:
               1          2
     1  C   -0.178140  -0.224772
     2  N   -0.119399   0.114859
     3  C    0.456930  -0.857959
     4  C    0.042317  -0.580038
     5  C    0.332239  -0.368052
     6  N    0.416299  -0.176487
     7  C    0.189056  -0.211815
     8  N   -0.225696  -0.027888
     9  C    1.177593  -1.208692
    10  N   -0.556869   0.211312
    11  O   -0.167567   0.010043
    12  C    0.065718  -0.336786
    13  N   -0.632174   0.284175
    14  H    0.043140   0.105877
    15  H   -0.018601   0.167327
    16  H    0.128005  -0.000923
    17  H   -0.060230   0.229731
    18  H   -0.480441   0.628525
    19  H    0.034398   0.082464
    20  H    0.233782  -0.066908
    21  H   -0.173451   0.350439
    22  H   -0.692676   0.892422
    23  H    0.066942   0.056535
    24  H    0.086080   0.069276
    25  H    0.061623   0.101259
    26  H    0.070072   0.077201
    27  H   -0.167613   0.451951
    28  H   -0.931337   1.226925
 Sum of Mulliken charges =  -1.00000   1.00000

 Dipole moment (field-independent basis, Debye):
    X=             -5.2951    Y=             -7.2383    Z=             -2.3314  Tot=              9.2664
 Quadrupole moment (field-independent basis, Debye-Ang):
   XX=           -131.4245   YY=           -129.0503   ZZ=           -114.1927
   XY=             -5.0119   XZ=             -8.7215   YZ=             -2.5350

 Summary of Natural Population Analysis:

                                       Natural Population
                Natural  -----------------------------------------------
    Atom  No    Charge         Core      Valence    Rydberg      Total
 -----------------------------------------------------------------------
      C    1   -0.17418      0.99964     2.16773    0.00680     3.17418
      N    2   -0.28071      0.99974     2.76782    0.01316     3.78071
      C    3   -0.18186      0.99964     2.17337    0.00884     3.18186
      C    4   -0.08378      0.99960     2.07166    0.01252     3.08378
      C    5   -0.09616      0.99960     2.08319    0.01337     3.09616
      N    6   -0.14059      0.99961     2.62534    0.01564     3.64059
      C    7    0.29189      0.99959     1.68981    0.01871     2.70811
      N    8   -0.29637      0.99966     2.78709    0.00963     3.79637
      C    9    0.32807      0.99957     1.65134    0.02103     2.67193
      N   10   -0.21475      0.99968     2.70461    0.01046     3.71475
      O   11   -0.26767      0.99985     3.25955    0.00828     4.26767
      C   12   -0.10068      0.99960     2.09306    0.00802     3.10068
      N   13   -0.40116      0.99971     2.89089    0.01055     3.90116
      H   14    0.08878      0.00000     0.41026    0.00095     0.41122
      H   15    0.08561      0.00000     0.41296    0.00143     0.41439
      H   16    0.09549      0.00000     0.40344    0.00107     0.40451
      H   17    0.09131      0.00000     0.40671    0.00199     0.40869
      H   18    0.09556      0.00000     0.40315    0.00130     0.40444
      H   19    0.09122      0.00000     0.40777    0.00101     0.40878
      H   20    0.09983      0.00000     0.39881    0.00135     0.40017
      H   21    0.09607      0.00000     0.40266    0.00127     0.40393
      H   22    0.10252      0.00000     0.39573    0.00174     0.39748
      H   23    0.11003      0.00000     0.38565    0.00432     0.38997
      H   24    0.08800      0.00000     0.41059    0.00141     0.41200
      H   25    0.08957      0.00000     0.40902    0.00141     0.41043
      H   26    0.08650      0.00000     0.41253    0.00096     0.41350
      H   27    0.19608      0.00000     0.30091    0.00302     0.30392
      H   28    0.20139      0.00000     0.27735    0.02126     0.29861
 =======================================================================
   * Total *    0.00000     12.99548    36.80300    0.20151    50.00000

 Normal termination of Gaussian 16 at Wed Dec  9 23:27:04 2020.
