 Gaussian 16, Revision A.03,

 -----------------------------------------------------------
 # opt freq B3LYP/6-31G(d) empiricaldispersion=gd3bj scf=xqc
 -----------------------------------------------------------

 --------------------------------
 CID_129872551_JID_10614_neutraal
 --------------------------------
 Symbolic Z-matrix:
 Charge =  0 Multiplicity = 1

 SCF Done:  E(RB3LYP) =  -822.584525200     A.U. after   16 cycles
 SCF Done:  E(RB3LYP) =  -822.592108396     A.U. after   13 cycles
 SCF Done:  E(RB3LYP) =  -822.592587256     A.U. after   12 cycles
 SCF Done:  E(RB3LYP) =  -822.592627870     A.U. after   10 cycles
 SCF Done:  E(RB3LYP) =  -822.592641210     A.U. after   10 cycles
 SCF Done:  E(RB3LYP) =  -822.592657458     A.U. after   10 cycles
 SCF Done:  E(RB3LYP) =  -822.592707016     A.U. after   12 cycles
 SCF Done:  E(RB3LYP) =  -822.592744897     A.U. after   13 cycles
 SCF Done:  E(RB3LYP) =  -822.592839173     A.U. after   11 cycles
 SCF Done:  E(RB3LYP) =  -822.592882789     A.U. after   10 cycles
 SCF Done:  E(RB3LYP) =  -822.593831518     A.U. after   12 cycles
 SCF Done:  E(RB3LYP) =  -822.593848432     A.U. after   11 cycles
 SCF Done:  E(RB3LYP) =  -822.593871756     A.U. after   11 cycles
 SCF Done:  E(RB3LYP) =  -822.593871563     A.U. after    9 cycles
 SCF Done:  E(RB3LYP) =  -822.593871956     A.U. after    8 cycles
 SCF Done:  E(RB3LYP) =  -822.593872000     A.U. after    7 cycles
 Optimization completed.
    -- Stationary point found.
 Normal termination of Gaussian 16 at Sun Dec 13 16:56:06 2020.

 --------------------------------------------------------------------
 #N Geom=AllCheck Guess=TCheck SCRF=Check GenChk RB3LYP/6-31G(d) Freq
 --------------------------------------------------------------------

 Structure from the checkpoint file:  "JID_10614.chk"
 --------------------------------
 CID_129872551_JID_10614_neutraal
 --------------------------------
 Charge =  0 Multiplicity = 1

 SCF Done:  E(RB3LYP) =  -822.593872000     A.U. after    1 cycles

  Exact polarizability: 379.161 -20.988 230.479   1.620   0.594  66.019
 Approx polarizability: 688.624 -70.185 473.858  -1.676   0.408 108.457

                      1                      2                      3
                      A                      A                      A
 Frequencies --     60.3675                97.3497               133.8493
 Red. masses --      5.1375                 4.1590                 3.1653
 Frc consts  --      0.0110                 0.0232                 0.0334
 IR Inten    --      1.2237                 0.5476                 1.4202

                      4                      5                      6
                      A                      A                      A
 Frequencies --    163.6711               205.2150               206.9568
 Red. masses --      4.5777                 5.6722                 5.7280
 Frc consts  --      0.0723                 0.1407                 0.1445
 IR Inten    --      4.8766                 1.9332                 2.5760

                      7                      8                      9
                      A                      A                      A
 Frequencies --    216.8531               276.4390               341.3877
 Red. masses --      3.2532                 4.3126                 6.8766
 Frc consts  --      0.0901                 0.1942                 0.4722
 IR Inten    --      1.3436                 0.0401                 0.7750

                     10                     11                     12
                      A                      A                      A
 Frequencies --    352.7429               386.4826               402.4645
 Red. masses --      4.6217                 5.4346                 4.3337
 Frc consts  --      0.3388                 0.4783                 0.4136
 IR Inten    --      4.4094                 0.0445                 0.1385

                     13                     14                     15
                      A                      A                      A
 Frequencies --    447.8404               469.9848               474.2762
 Red. masses --      6.8918                 5.4224                 3.6491
 Frc consts  --      0.8144                 0.7057                 0.4836
 IR Inten    --      0.5209                 3.5730                 0.9587

                     16                     17                     18
                      A                      A                      A
 Frequencies --    504.8356               524.7051               541.0752
 Red. masses --      3.6455                 5.9628                 4.1765
 Frc consts  --      0.5474                 0.9672                 0.7204
 IR Inten    --      1.2072                 3.7384                 0.7210

                     19                     20                     21
                      A                      A                      A
 Frequencies --    543.1062               556.1881               572.9318
 Red. masses --      5.7952                 4.6483                 5.6529
 Frc consts  --      1.0071                 0.8472                 1.0933
 IR Inten    --      4.9520                 5.6050                 7.8309

                     22                     23                     24
                      A                      A                      A
 Frequencies --    621.1122               649.1006               679.5979
 Red. masses --      6.6528                 6.6481                 4.1204
 Frc consts  --      1.5122                 1.6503                 1.1212
 IR Inten    --      1.2351                 2.5852                 2.2069

                     25                     26                     27
                      A                      A                      A
 Frequencies --    682.6109               684.3922               748.0695
 Red. masses --      3.3200                 5.4642                 2.2798
 Frc consts  --      0.9115                 1.5080                 0.7517
 IR Inten    --     10.9323                15.8326                 3.1807

                     28                     29                     30
                      A                      A                      A
 Frequencies --    765.9719               768.6504               772.2114
 Red. masses --      1.3731                 3.9524                 2.4939
 Frc consts  --      0.4747                 1.3758                 0.8762
 IR Inten    --     25.8782                 1.7528                15.9190

                     31                     32                     33
                      A                      A                      A
 Frequencies --    808.3491               820.1436               826.7286
 Red. masses --      3.6236                 2.9665                 2.0503
 Frc consts  --      1.3950                 1.1756                 0.8256
 IR Inten    --      3.3091                 6.1171                 1.2411

                     34                     35                     36
                      A                      A                      A
 Frequencies --    851.5879               876.2040               892.7055
 Red. masses --      6.4905                 1.4846                 4.9059
 Frc consts  --      2.7732                 0.6715                 2.3035
 IR Inten    --     12.7926                18.0685                 3.7541

                     37                     38                     39
                      A                      A                      A
 Frequencies --    900.0276               943.8325               945.3666
 Red. masses --      1.6309                 2.1979                 1.9685
 Frc consts  --      0.7784                 1.1536                 1.0366
 IR Inten    --     20.5288                 8.9974                12.8994

                     40                     41                     42
                      A                      A                      A
 Frequencies --    958.8334               968.1260              1003.9953
 Red. masses --      1.2804                 1.3253                 1.2866
 Frc consts  --      0.6935                 0.7319                 0.7641
 IR Inten    --      0.0291                 1.3605                 0.2536

                     43                     44                     45
                      A                      A                      A
 Frequencies --   1011.9957              1042.1000              1045.8660
 Red. masses --      3.8263                 2.3281                 2.9237
 Frc consts  --      2.3088                 1.4896                 1.8842
 IR Inten    --      7.7449                 4.5779                 2.6598

                     46                     47                     48
                      A                      A                      A
 Frequencies --   1062.4814              1081.2300              1129.3886
 Red. masses --      2.9566                 4.4529                 3.3373
 Frc consts  --      1.9665                 3.0671                 2.5080
 IR Inten    --      9.6705                17.7160                 6.4451

                     49                     50                     51
                      A                      A                      A
 Frequencies --   1155.3517              1179.9304              1190.8530
 Red. masses --      1.8235                 1.3691                 1.1591
 Frc consts  --      1.4341                 1.1230                 0.9684
 IR Inten    --     10.4939                14.5007                 0.9657

                     52                     53                     54
                      A                      A                      A
 Frequencies --   1209.0290              1244.2797              1259.6784
 Red. masses --      1.3741                 1.9277                 1.6611
 Frc consts  --      1.1834                 1.7585                 1.5529
 IR Inten    --      5.3883                48.9267                 6.1818

                     55                     56                     57
                      A                      A                      A
 Frequencies --   1277.3323              1290.2926              1316.2618
 Red. masses --      1.6148                 1.5258                 2.6134
 Frc consts  --      1.5523                 1.4967                 2.6677
 IR Inten    --      0.8118                25.1284                12.6839

                     58                     59                     60
                      A                      A                      A
 Frequencies --   1337.7015              1380.0448              1400.5359
 Red. masses --      3.0911                 2.7441                 2.9696
 Frc consts  --      3.2589                 3.0792                 3.4319
 IR Inten    --      9.8112                 4.4339                 0.1459

                     61                     62                     63
                      A                      A                      A
 Frequencies --   1403.6528              1423.5443              1428.7257
 Red. masses --      2.0322                 2.0237                 2.6244
 Frc consts  --      2.3590                 2.4162                 3.1563
 IR Inten    --     38.0479                11.1025                 3.1069

                     64                     65                     66
                      A                      A                      A
 Frequencies --   1450.1571              1466.8110              1481.3514
 Red. masses --      5.0939                 4.5598                 3.0265
 Frc consts  --      6.3115                 5.7802                 3.9130
 IR Inten    --      7.6329                 5.1468                19.1762

                     67                     68                     69
                      A                      A                      A
 Frequencies --   1505.2142              1524.6640              1533.6596
 Red. masses --      2.5421                 1.4516                 1.8619
 Frc consts  --      3.3934                 1.9881                 2.5803
 IR Inten    --     33.8365                 4.1573                 8.1186

                     70                     71                     72
                      A                      A                      A
 Frequencies --   1581.8092              1604.1698              1627.1595
 Red. masses --      6.5721                 8.6115                 5.4293
 Frc consts  --      9.6886                13.0566                 8.4695
 IR Inten    --     10.7528                10.4683                13.9196

                     73                     74                     75
                      A                      A                      A
 Frequencies --   1630.8850              1656.6898              1679.0104
 Red. masses --      8.5305                 6.8023                 6.0093
 Frc consts  --     13.3682                10.9998                 9.9811
 IR Inten    --     30.4406                19.6034                14.7924

                     76                     77                     78
                      A                      A                      A
 Frequencies --   1693.5233              2947.4465              3115.4166
 Red. masses --      7.3557                 1.0742                 1.0893
 Frc consts  --     12.4296                 5.4983                 6.2289
 IR Inten    --     14.5281               131.4955                41.8077

                     79                     80                     81
                      A                      A                      A
 Frequencies --   3136.6440              3178.3723              3181.7812
 Red. masses --      1.0896                 1.0886                 1.0874
 Frc consts  --      6.3164                 6.4792                 6.4858
 IR Inten    --     31.7122                 1.8763                 4.9737

                     82                     83                     84
                      A                      A                      A
 Frequencies --   3191.7283              3192.4298              3200.9863
 Red. masses --      1.0888                 1.0898                 1.0908
 Frc consts  --      6.5349                 6.5440                 6.5851
 IR Inten    --      0.8585                31.5203                 4.7481

                     85                     86                     87
                      A                      A                      A
 Frequencies --   3207.5068              3221.1299              3236.5789
 Red. masses --      1.0956                 1.0938                 1.0927
 Frc consts  --      6.6409                 6.6866                 6.7441
 IR Inten    --     45.5267                11.7877                 8.1170

 - Thermochemistry -
 -------------------
 Temperature   298.150 Kelvin.  Pressure   1.00000 Atm.
 Atom     1 has atomic number  6 and mass  12.00000

 Molecular mass:   257.08406 amu.
 Principal axes and moments of inertia in atomic units:
                           1         2         3
     Eigenvalues --  2127.144037077.356199168.36430
           X            0.99998  -0.00661   0.00212
           Y            0.00661   0.99998  -0.00013
           Z           -0.00212   0.00015   1.00000
 This molecule is an asymmetric top.
 Rotational symmetry number  1.
 Warning -- assumption of classical behavior for rotation
           may cause significant error
 Rotational temperatures (Kelvin)      0.04072     0.01224     0.00945
 Rotational constants (GHZ):           0.84843     0.25500     0.19684
 Zero-point vibrational energy     632595.7 (Joules/Mol)
                                  151.19400 (Kcal/Mol)
 Warning -- explicit consideration of  21 degrees of freedom as
           vibrations may cause significant error
 Vibrational temperatures:     86.86   140.06   192.58   235.49   295.26
          (Kelvin)            297.76   312.00   397.73   491.18   507.52
                              556.06   579.06   644.34   676.20   682.38
                              726.35   754.93   778.49   781.41   800.23
                              824.32   893.64   933.91   977.79   982.12
                              984.69  1076.31  1102.06  1105.92  1111.04
                             1163.03  1180.00  1189.48  1225.25  1260.66
                             1284.40  1294.94  1357.96  1360.17  1379.55
                             1392.92  1444.53  1456.04  1499.35  1504.77
                             1528.67  1555.65  1624.94  1662.29  1697.66
                             1713.37  1739.52  1790.24  1812.40  1837.80
                             1856.44  1893.81  1924.65  1985.58  2015.06
                             2019.54  2048.16  2055.62  2086.45  2110.41
                             2131.33  2165.67  2193.65  2206.59  2275.87
                             2308.04  2341.12  2346.48  2383.61  2415.72
                             2436.60  4240.72  4482.39  4512.93  4572.97
                             4577.87  4592.19  4593.19  4605.51  4614.89
                             4634.49  4656.72

 Zero-point correction=                           0.240943 (Hartree/Particle)
 Thermal correction to Energy=                    0.254073
 Thermal correction to Enthalpy=                  0.255017
 Thermal correction to Gibbs Free Energy=         0.201655
 Sum of electronic and zero-point Energies=           -822.352929
 Sum of electronic and thermal Energies=              -822.339799
 Sum of electronic and thermal Enthalpies=            -822.338855
 Sum of electronic and thermal Free Energies=         -822.392217

                     E (Thermal)             CV                S
                      KCal/Mol        Cal/Mol-Kelvin    Cal/Mol-Kelvin
 Total                  159.433             56.386            112.311
 Electronic               0.000              0.000              0.000
 Translational            0.889              2.981             42.533
 Rotational               0.889              2.981             33.289
 Vibrational            157.656             50.424             36.489
 Vibration     1          0.597              1.973              4.445
 Vibration     2          0.603              1.951              3.507
 Vibration     3          0.613              1.920              2.890
 Vibration     4          0.623              1.887              2.507
 Vibration     5          0.640              1.832              2.086
 Vibration     6          0.641              1.830              2.070
 Vibration     7          0.646              1.815              1.985
 Vibration     8          0.678              1.717              1.556
 Vibration     9          0.721              1.593              1.206
 Vibration    10          0.729              1.570              1.154
 Vibration    11          0.755              1.499              1.014
 Vibration    12          0.768              1.465              0.954
 Vibration    13          0.807              1.366              0.802
 Vibration    14          0.827              1.317              0.738
 Vibration    15          0.831              1.307              0.726
 Vibration    16          0.860              1.239              0.646
 Vibration    17          0.880              1.195              0.599
 Vibration    18          0.896              1.159              0.563
 Vibration    19          0.898              1.155              0.559
 Vibration    20          0.912              1.126              0.531
 Vibration    21          0.929              1.090              0.499

 Optimization completed.
    -- Stationary point found.
 Normal termination of Gaussian 16 at Sun Dec 13 17:11:55 2020.

 ----------------------------------------------------------------------
 # B3LYP/6-311++G(d,p) empiricaldispersion=gd3bj scf=xqc pop=npa geom=c
 heck
 ----------------------------------------------------------------------

 ----------------------------------------
 CID_129872551_JID_10614_Energie_neutraal
 ----------------------------------------
 Structure from the checkpoint file:  "JID_10614.chk"
 Charge =  0 Multiplicity = 1

 SCF Done:  E(RB3LYP) =  -822.790277790     A.U. after   16 cycles
 Normal termination of Gaussian 16 at Sun Dec 13 17:17:30 2020.

 ----------------------------------------------------------------------
 # B3LYP/6-311++G(d,p) empiricaldispersion=gd3bj scf=xqc pop=npa geom=c
 heck
 ----------------------------------------------------------------------

 --------------------------------------
 CID_129872551_JID_10614_Energie_kation
 --------------------------------------
 Structure from the checkpoint file:  "JID_10614.chk"
 Charge =  1 Multiplicity = 2

 SCF Done:  E(UB3LYP) =  -822.548443588     A.U. after   23 cycles
 Normal termination of Gaussian 16 at Sun Dec 13 17:28:29 2020.
 Gaussian 16:  ES64L-G16RevA.03 25-Dec-2016

 ----------------------------------------------------------------------
 # B3LYP/6-311++G(d,p) empiricaldispersion=gd3bj scf=xqc pop=npa geom=c
 heck
 ----------------------------------------------------------------------

 -------------------------------------
 CID_129872551_JID_10614_Energie_anion
 -------------------------------------
 Structure from the checkpoint file:  "JID_10614.chk"
 Charge = -1 Multiplicity = 2

                         Standard orientation:
 ---------------------------------------------------------------------
 Center     Atomic      Atomic             Coordinates (Angstroms)
 Number     Number       Type             X           Y           Z
 ---------------------------------------------------------------------
      1          6           0        4.349694   -0.585974    0.345173
      2          6           0        3.396734   -1.712425    0.050129
      3          6           0        2.075389   -1.434767   -0.039916
      4          6           0        1.003860   -2.415495   -0.145916
      5          7           0       -0.258494   -2.134880   -0.110151
      6          6           0       -0.667748   -0.802096   -0.019066
      7          6           0        0.263848    0.255710    0.013875
      8          6           0        1.647870   -0.047371    0.005933
      9          6           0        2.586744    0.966977   -0.072100
     10          8           0        3.914187    0.685398   -0.185751
     11          6           0        2.178222    2.323320   -0.112834
     12          6           0        0.840604    2.636852   -0.053092
     13          6           0       -0.164127    1.623664    0.011088
     14          6           0       -1.537219    1.894639    0.039397
     15          6           0       -2.486550    0.862594    0.046223
     16          6           0       -3.887567    1.139493    0.074964
     17          6           0       -4.807108    0.124525    0.059512
     18          6           0       -4.376685   -1.231244    0.011680
     19          6           0       -3.040846   -1.542133   -0.017867
     20          6           0       -2.056076   -0.514898    0.003650
     21          1           0        4.489767   -0.470254    1.435855
     22          1           0        5.334465   -0.752242   -0.098373
     23          1           0        3.782251   -2.726807    0.002802
     24          1           0        1.278250   -3.468938   -0.227022
     25          1           0        2.939773    3.093226   -0.178482
     26          1           0        0.529058    3.677863   -0.060976
     27          1           0       -1.878113    2.927414    0.045108
     28          1           0       -4.207594    2.177875    0.107838
     29          1           0       -5.869583    0.349473    0.081962
     30          1           0       -5.118031   -2.025296   -0.001499
     31          1           0       -2.698522   -2.569559   -0.055145
 ---------------------------------------------------------------------

 SCF Done:  E(UB3LYP) =  -822.837571917     A.U. after   23 cycles

 The electronic state is 2-A.
 Alpha  occ. eigenvalues --  -19.02652 -14.16690 -10.11302 -10.09691 -10.06810
 Alpha  occ. eigenvalues --  -10.06193 -10.05275 -10.05189 -10.05187 -10.05031
 Alpha  occ. eigenvalues --  -10.04944 -10.04848 -10.04845 -10.04701 -10.04697
 Alpha  occ. eigenvalues --  -10.04556 -10.04333 -10.04147 -10.03221 -10.03188
 Alpha  occ. eigenvalues --   -0.94339  -0.80390  -0.74195  -0.72565  -0.68693
 Alpha  occ. eigenvalues --   -0.67316  -0.64600  -0.63085  -0.61316  -0.59213
 Alpha  occ. eigenvalues --   -0.54223  -0.53178  -0.50842  -0.49249  -0.47678
 Alpha  occ. eigenvalues --   -0.45279  -0.41065  -0.40357  -0.39661  -0.39315
 Alpha  occ. eigenvalues --   -0.36701  -0.35747  -0.33971  -0.33081  -0.32754
 Alpha  occ. eigenvalues --   -0.31018  -0.30427  -0.29805  -0.29225  -0.28800
 Alpha  occ. eigenvalues --   -0.27352  -0.26905  -0.26630  -0.25324  -0.24455
 Alpha  occ. eigenvalues --   -0.23220  -0.22074  -0.21564  -0.20565  -0.20251
 Alpha  occ. eigenvalues --   -0.17937  -0.15913  -0.14876  -0.12138  -0.11925
 Alpha  occ. eigenvalues --   -0.10670  -0.05694   0.00402
 Alpha virt. eigenvalues --    0.08075   0.08288   0.08688   0.09017   0.09878
 Alpha virt. eigenvalues --    0.10091   0.10292   0.10906   0.11225   0.11383
 Alpha virt. eigenvalues --    0.11880   0.13263   0.13360   0.14107   0.14625

  Beta  occ. eigenvalues --  -19.02563 -14.16655 -10.11322 -10.09521 -10.06580
  Beta  occ. eigenvalues --  -10.06103 -10.05351 -10.05270 -10.05217 -10.05023
  Beta  occ. eigenvalues --  -10.04926 -10.04868 -10.04831 -10.04642 -10.04608
  Beta  occ. eigenvalues --  -10.04346 -10.04341 -10.04135 -10.02854 -10.02772
  Beta  occ. eigenvalues --   -0.94142  -0.80156  -0.74015  -0.72412  -0.68381
  Beta  occ. eigenvalues --   -0.67036  -0.64355  -0.62833  -0.61179  -0.58936
  Beta  occ. eigenvalues --   -0.54113  -0.52614  -0.50643  -0.49004  -0.47493
  Beta  occ. eigenvalues --   -0.44987  -0.40944  -0.40162  -0.39529  -0.39061
  Beta  occ. eigenvalues --   -0.36582  -0.35476  -0.33870  -0.32888  -0.32618
  Beta  occ. eigenvalues --   -0.30899  -0.30300  -0.29694  -0.29029  -0.28426
  Beta  occ. eigenvalues --   -0.27176  -0.26795  -0.26486  -0.24897  -0.23813
  Beta  occ. eigenvalues --   -0.23070  -0.21847  -0.21239  -0.20473  -0.19883
  Beta  occ. eigenvalues --   -0.17243  -0.15186  -0.14329  -0.11912  -0.11420
  Beta  occ. eigenvalues --   -0.09998  -0.03960
  Beta virt. eigenvalues --    0.05357   0.08072   0.08284   0.09008   0.09741
  Beta virt. eigenvalues --    0.09911   0.10111   0.10680   0.10987   0.11249
  Beta virt. eigenvalues --    0.11778   0.12153   0.13272   0.13782   0.14158

 Mulliken charges and spin densities:
               1          2
     1  C   -0.294689  -0.005881
     2  C   -0.885519   0.367179
     3  C    0.862762  -0.089313
     4  C   -0.019005   0.162995
     5  N    0.110120   0.006380
     6  C   -0.670258   0.053010
     7  C    0.407071   0.013750
     8  C    0.634266  -0.011305
     9  C   -1.022619   0.108373
    10  O   -0.145713   0.019586
    11  C   -0.325934  -0.032286
    12  C   -0.176174   0.155514
    13  C    0.091612  -0.062435
    14  C   -0.339312   0.261197
    15  C    0.398370  -0.063923
    16  C   -0.125420   0.082738
    17  C   -0.392648  -0.017873
    18  C   -0.458688   0.075298
    19  C   -0.288079  -0.016400
    20  C    0.373833   0.058420
    21  H    0.119956   0.007803
    22  H    0.135739   0.004229
    23  H    0.115835  -0.021708
    24  H    0.125334  -0.014150
    25  H    0.143636   0.000821
    26  H    0.100366  -0.012297
    27  H    0.030253  -0.017796
    28  H    0.103087  -0.006479
    29  H    0.109289   0.001439
    30  H    0.125432  -0.005168
    31  H    0.157100  -0.001716
 Sum of Mulliken charges =  -1.00000   1.00000

 Dipole moment (field-independent basis, Debye):
    X=              0.7336    Y=              1.0866    Z=              0.5474  Tot=              1.4207
 Quadrupole moment (field-independent basis, Debye-Ang):
   XX=           -155.1639   YY=           -130.1481   ZZ=           -127.0072
   XY=             -5.0936   XZ=              2.1786   YZ=             -0.1671

 Summary of Natural Population Analysis:

                                       Natural Population
                Natural  -----------------------------------------------
    Atom  No    Charge         Core      Valence    Rydberg      Total
 -----------------------------------------------------------------------
      C    1   -0.01780      0.99957     2.00796    0.01027     3.01780
      C    2   -0.00829      0.99952     2.00001    0.00876     3.00829
      C    3   -0.09215      0.99952     2.07906    0.01358     3.09215
      C    4    0.09925      0.99961     1.88262    0.01851     2.90075
      N    5   -0.24919      0.99968     2.73381    0.01570     3.74919
      C    6    0.14370      0.99934     1.84904    0.00792     2.85630
      C    7   -0.04194      0.99947     2.02762    0.01485     3.04194
      C    8   -0.00168      0.99937     1.99205    0.01026     3.00168
      C    9    0.18039      0.99941     1.80450    0.01571     2.81961
      O   10   -0.27345      0.99986     3.26235    0.01124     4.27345
      C   11   -0.13167      0.99954     2.12303    0.00911     3.13167
      C   12   -0.04467      0.99955     2.03606    0.00906     3.04467
      C   13   -0.05868      0.99953     2.04912    0.01003     3.05868
      C   14   -0.00736      0.99942     1.99781    0.01014     3.00736
      C   15   -0.05291      0.99951     2.04452    0.00888     3.05291
      C   16   -0.06783      0.99954     2.05936    0.00894     3.06783
      C   17   -0.12675      0.99957     2.11731    0.00987     3.12675
      C   18   -0.10020      0.99959     2.09038    0.01023     3.10020
      C   19   -0.08552      0.99945     2.07540    0.01068     3.08552
      C   20   -0.03565      0.99954     2.02161    0.01450     3.03565
      H   21    0.07494      0.00000     0.42286    0.00219     0.42506
      H   22    0.08703      0.00000     0.41166    0.00131     0.41297
      H   23    0.08646      0.00000     0.41233    0.00122     0.41354
      H   24    0.07386      0.00000     0.42443    0.00171     0.42614
      H   25    0.09763      0.00000     0.40081    0.00157     0.40237
      H   26    0.08935      0.00000     0.40901    0.00164     0.41065
      H   27    0.08663      0.00000     0.41258    0.00079     0.41337
      H   28    0.09032      0.00000     0.40806    0.00162     0.40968
      H   29    0.09123      0.00000     0.40768    0.00109     0.40877
      H   30    0.09012      0.00000     0.40876    0.00112     0.40988
      H   31    0.10844      0.00000     0.39019    0.00137     0.39156
 =======================================================================
   * Total *    0.00360     19.99058    46.76200    0.24382    66.99640

 Normal termination of Gaussian 16 at Sun Dec 13 17:39:40 2020.
