 Gaussian 16, Revision A.03,

 -----------------------------------------------------------
 # opt freq B3LYP/6-31G(d) empiricaldispersion=gd3bj scf=xqc
 -----------------------------------------------------------

 ------------------------------
 CID_53677155_JID_6460_neutraal
 ------------------------------
 Symbolic Z-matrix:
 Charge =  0 Multiplicity = 1

 SCF Done:  E(RB3LYP) =  -734.365282634     A.U. after   15 cycles
 SCF Done:  E(RB3LYP) =  -734.370943801     A.U. after   12 cycles
 SCF Done:  E(RB3LYP) =  -734.371554021     A.U. after   12 cycles
 SCF Done:  E(RB3LYP) =  -734.371656030     A.U. after   11 cycles
 SCF Done:  E(RB3LYP) =  -734.371753273     A.U. after   11 cycles
 SCF Done:  E(RB3LYP) =  -734.371785499     A.U. after   10 cycles
 SCF Done:  E(RB3LYP) =  -734.371796701     A.U. after   10 cycles
 SCF Done:  E(RB3LYP) =  -734.371798111     A.U. after    8 cycles
 SCF Done:  E(RB3LYP) =  -734.371798342     A.U. after    8 cycles
 Optimization completed.
    -- Stationary point found.
 Normal termination of Gaussian 16 at Thu Dec 10 22:54:26 2020.

 --------------------------------------------------------------------
 #N Geom=AllCheck Guess=TCheck SCRF=Check GenChk RB3LYP/6-31G(d) Freq
 --------------------------------------------------------------------

 Structure from the checkpoint file:  "JID_6460.chk"
 ------------------------------
 CID_53677155_JID_6460_neutraal
 ------------------------------
 Charge =  0 Multiplicity = 1

 SCF Done:  E(RB3LYP) =  -734.371798342     A.U. after    1 cycles

  Exact polarizability: 164.255   8.729 146.172   2.489  -3.337 114.012
 Approx polarizability: 191.831  21.178 239.428   4.406  -8.805 174.993

                      1                      2                      3
                      A                      A                      A
 Frequencies --     25.8277                27.2800                39.2194
 Red. masses --      4.7339                 4.8815                 3.1594
 Frc consts  --      0.0019                 0.0021                 0.0029
 IR Inten    --      0.9066                 0.1758                 0.4843

                      4                      5                      6
                      A                      A                      A
 Frequencies --     57.0848                62.9671                78.4860
 Red. masses --      3.7576                 3.5467                 3.5826
 Frc consts  --      0.0072                 0.0083                 0.0130
 IR Inten    --      0.1490                 0.6361                 0.4622

                      7                      8                      9
                      A                      A                      A
 Frequencies --    108.2212               134.8181               142.4500
 Red. masses --      3.0480                 7.2533                 3.1404
 Frc consts  --      0.0210                 0.0777                 0.0375
 IR Inten    --      0.2202                 1.6269                 1.6367

                     10                     11                     12
                      A                      A                      A
 Frequencies --    188.0793               208.7487               237.6727
 Red. masses --      2.0018                 3.4002                 1.8580
 Frc consts  --      0.0417                 0.0873                 0.0618
 IR Inten    --      0.4769                 0.5357                 0.3748

                     13                     14                     15
                      A                      A                      A
 Frequencies --    273.3923               295.3224               310.7607
 Red. masses --      1.8160                 2.5319                 1.8082
 Frc consts  --      0.0800                 0.1301                 0.1029
 IR Inten    --      1.1380                 0.0952                 3.0868

                     16                     17                     18
                      A                      A                      A
 Frequencies --    334.6671               356.5446               383.8115
 Red. masses --      1.8812                 2.0223                 1.7150
 Frc consts  --      0.1241                 0.1515                 0.1489
 IR Inten    --     11.2000                 5.3569                29.6076

                     19                     20                     21
                      A                      A                      A
 Frequencies --    395.8686               424.5485               469.9002
 Red. masses --      1.9147                 2.0095                 2.5046
 Frc consts  --      0.1768                 0.2134                 0.3258
 IR Inten    --     54.2669                 4.4742                 5.2428

                     22                     23                     24
                      A                      A                      A
 Frequencies --    506.3933               549.4520               556.3089
 Red. masses --      2.6433                 5.0382                 2.7049
 Frc consts  --      0.3994                 0.8962                 0.4932
 IR Inten    --      3.9186                 3.2896                 1.0447

                     25                     26                     27
                      A                      A                      A
 Frequencies --    582.6523               646.0726               709.4125
 Red. masses --      4.2314                 2.7760                 1.3626
 Frc consts  --      0.8464                 0.6827                 0.4040
 IR Inten    --      2.7761                 7.6842                21.9411

                     28                     29                     30
                      A                      A                      A
 Frequencies --    721.3601               732.5574               740.9773
 Red. masses --      3.0618                 2.7987                 2.3505
 Frc consts  --      0.9387                 0.8849                 0.7604
 IR Inten    --      4.3024                 4.6819                 0.7203

                     31                     32                     33
                      A                      A                      A
 Frequencies --    777.2758               807.5632               834.8422
 Red. masses --      1.6659                 2.5697                 1.6675
 Frc consts  --      0.5930                 0.9874                 0.6847
 IR Inten    --      1.8426                 1.4403                 4.1142

                     34                     35                     36
                      A                      A                      A
 Frequencies --    861.5982               875.2104               888.1734
 Red. masses --      2.5554                 1.9621                 2.3500
 Frc consts  --      1.1177                 0.8855                 1.0922
 IR Inten    --     15.4687                 7.2677                59.7135

                     37                     38                     39
                      A                      A                      A
 Frequencies --    901.2487               919.1992               942.1367
 Red. masses --      1.6201                 2.9508                 1.7084
 Frc consts  --      0.7753                 1.4689                 0.8935
 IR Inten    --     11.4667                17.6542                 4.0314

                     40                     41                     42
                      A                      A                      A
 Frequencies --    949.7498               991.5867               998.7434
 Red. masses --      1.9183                 2.1798                 1.6397
 Frc consts  --      1.0195                 1.2628                 0.9637
 IR Inten    --      4.5107                37.1488                 1.9156

                     43                     44                     45
                      A                      A                      A
 Frequencies --   1005.8763              1024.1617              1060.7313
 Red. masses --      1.9779                 2.8761                 1.4647
 Frc consts  --      1.1791                 1.7774                 0.9710
 IR Inten    --     13.4268                43.0065                 1.1723

                     46                     47                     48
                      A                      A                      A
 Frequencies --   1073.1865              1081.4036              1121.3507
 Red. masses --      1.5446                 2.0872                 2.1972
 Frc consts  --      1.0482                 1.4381                 1.6278
 IR Inten    --      0.0792                 1.5207                 3.4631

                     49                     50                     51
                      A                      A                      A
 Frequencies --   1132.6830              1133.2945              1141.4290
 Red. masses --      1.8504                 2.2898                 2.0814
 Frc consts  --      1.3987                 1.7328                 1.5977
 IR Inten    --     81.6347               117.2058                 5.6922

                     52                     53                     54
                      A                      A                      A
 Frequencies --   1170.2071              1186.6258              1193.9601
 Red. masses --      2.6191                 1.8550                 1.4853
 Frc consts  --      2.1132                 1.5389                 1.2475
 IR Inten    --     66.3042                39.1515                 0.8321

                     55                     56                     57
                      A                      A                      A
 Frequencies --   1200.5110              1236.7211              1252.8742
 Red. masses --      1.4874                 1.2997                 1.3411
 Frc consts  --      1.2630                 1.1712                 1.2403
 IR Inten    --      2.0458                 1.2748                 1.8451

                     58                     59                     60
                      A                      A                      A
 Frequencies --   1289.2893              1302.4417              1313.7855
 Red. masses --      1.2897                 1.4429                 1.2060
 Frc consts  --      1.2631                 1.4421                 1.2264
 IR Inten    --      1.6245                 6.2005                 1.7314

                     61                     62                     63
                      A                      A                      A
 Frequencies --   1333.7875              1336.4715              1354.1744
 Red. masses --      1.6192                 1.2623                 1.1221
 Frc consts  --      1.6972                 1.3284                 1.2124
 IR Inten    --     37.9914                 7.0304                 0.4972

                     64                     65                     66
                      A                      A                      A
 Frequencies --   1367.0076              1372.8559              1381.0673
 Red. masses --      1.7449                 1.3711                 1.4499
 Frc consts  --      1.9212                 1.5225                 1.6294
 IR Inten    --     14.5196                 7.5314                15.7442

                     67                     68                     69
                      A                      A                      A
 Frequencies --   1391.1083              1397.1678              1412.8316
 Red. masses --      1.4822                 1.4122                 1.4358
 Frc consts  --      1.6900                 1.6242                 1.6886
 IR Inten    --      3.1315                 1.1796                 0.3192

                     70                     71                     72
                      A                      A                      A
 Frequencies --   1414.8954              1427.2220              1429.3682
 Red. masses --      1.4017                 1.4294                 1.4341
 Frc consts  --      1.6533                 1.7155                 1.7263
 IR Inten    --      0.0523                 2.5134                 2.8803

                     73                     74                     75
                      A                      A                      A
 Frequencies --   1443.9885              1451.1670              1502.0584
 Red. masses --      1.2720                 1.2226                 1.0876
 Frc consts  --      1.5627                 1.5169                 1.4458
 IR Inten    --      5.2938                81.8802                 3.8042

                     76                     77                     78
                      A                      A                      A
 Frequencies --   1509.7289              1516.8034              1518.9140
 Red. masses --      1.0832                 1.0835                 1.0844
 Frc consts  --      1.4546                 1.4687                 1.4740
 IR Inten    --      4.0955                 3.3259                 4.6986

                     79                     80                     81
                      A                      A                      A
 Frequencies --   1525.4148              1528.5752              1535.3800
 Red. masses --      1.0784                 1.0600                 1.0759
 Frc consts  --      1.4784                 1.4592                 1.4944
 IR Inten    --      1.4075                14.8365                 8.2739

                     82                     83                     84
                      A                      A                      A
 Frequencies --   1535.8393              1539.9709              1546.3658
 Red. masses --      1.0749                 1.0683                 1.0877
 Frc consts  --      1.4939                 1.4927                 1.5324
 IR Inten    --      3.1274                 0.5744                 1.0466

                     85                     86                     87
                      A                      A                      A
 Frequencies --   1719.4057              1882.9649              3027.9622
 Red. masses --      8.1142                12.6038                 1.0630
 Frc consts  --     14.1336                26.3292                 5.7425
 IR Inten    --     27.7097               456.7349                20.1188

                     88                     89                     90
                      A                      A                      A
 Frequencies --   3033.1497              3035.2351              3038.7545
 Red. masses --      1.0635                 1.0631                 1.0635
 Frc consts  --      5.7646                 5.7706                 5.7859
 IR Inten    --     24.4559                36.8552                 8.3262

                     91                     92                     93
                      A                      A                      A
 Frequencies --   3041.4255              3045.2621              3046.2088
 Red. masses --      1.0621                 1.0415                 1.0643
 Frc consts  --      5.7887                 5.6906                 5.8186
 IR Inten    --      7.7880                29.9726                 9.1048

                     94                     95                     96
                      A                      A                      A
 Frequencies --   3048.7868              3056.2313              3058.9840
 Red. masses --      1.0613                 1.0648                 1.0984
 Frc consts  --      5.8124                 5.8599                 6.0555
 IR Inten    --      0.8516                17.6897                 4.5419

                     97                     98                     99
                      A                      A                      A
 Frequencies --   3063.4967              3069.4518              3075.4537
 Red. masses --      1.0976                 1.0990                 1.0979
 Frc consts  --      6.0689                 6.1006                 6.1183
 IR Inten    --     21.2552                25.2639                88.2107

                    100                    101                    102
                      A                      A                      A
 Frequencies --   3079.3835              3084.5324              3092.0368
 Red. masses --      1.1012                 1.1000                 1.1000
 Frc consts  --      6.1523                 6.1660                 6.1964
 IR Inten    --    138.3072                55.3226                47.6628

                    103                    104                    105
                      A                      A                      A
 Frequencies --   3105.8774              3108.6259              3109.9953
 Red. masses --      1.0925                 1.0922                 1.1016
 Frc consts  --      6.2092                 6.2185                 6.2773
 IR Inten    --     23.5058                32.1848                50.2868

                    106                    107                    108
                      A                      A                      A
 Frequencies --   3116.7783              3258.4603              3711.9557
 Red. masses --      1.1019                 1.0973                 1.0655
 Frc consts  --      6.3067                 6.8646                 8.6502
 IR Inten    --     48.8129                 1.4107                23.1816

 - Thermochemistry -
 -------------------
 Temperature   298.150 Kelvin.  Pressure   1.00000 Atm.
 Atom     1 has atomic number  6 and mass  12.00000

 Molecular mass:   226.15689 amu.
 Principal axes and moments of inertia in atomic units:
                           1         2         3
     Eigenvalues --  1564.665009978.41045**********
           X            0.99994  -0.01106  -0.00157
           Y            0.01106   0.99994  -0.00266
           Z            0.00160   0.00265   1.00000
 This molecule is an asymmetric top.
 Rotational symmetry number  1.
 Warning -- assumption of classical behavior for rotation
           may cause significant error
 Rotational temperatures (Kelvin)      0.05536     0.00868     0.00802
 Rotational constants (GHZ):           1.15344     0.18086     0.16720
 Zero-point vibrational energy     889132.2 (Joules/Mol)
                                  212.50770 (Kcal/Mol)
 Warning -- explicit consideration of  25 degrees of freedom as
           vibrations may cause significant error
 Vibrational temperatures:     37.16    39.25    56.43    82.13    90.60
          (Kelvin)            112.92   155.71   193.97   204.95   270.60
                              300.34   341.96   393.35   424.90   447.12
                              481.51   512.99   552.22   569.57   610.83
                              676.08   728.59   790.54   800.40   838.31
                              929.55  1020.69  1037.88  1053.99  1066.10
                             1118.33  1161.90  1201.15  1239.65  1259.23
                             1277.88  1296.70  1322.52  1355.52  1366.48
                             1426.67  1436.97  1447.23  1473.54  1526.16
                             1544.08  1555.90  1613.37  1629.68  1630.56
                             1642.26  1683.67  1707.29  1717.84  1727.27
                             1779.37  1802.61  1855.00  1873.92  1890.24
                             1919.02  1922.88  1948.35  1966.82  1975.23
                             1987.05  2001.49  2010.21  2032.75  2035.72
                             2053.45  2056.54  2077.58  2087.91  2161.13
                             2172.16  2182.34  2185.38  2194.73  2199.28
                             2209.07  2209.73  2215.67  2224.88  2473.84
                             2709.17  4356.56  4364.03  4367.03  4372.09
                             4375.93  4381.45  4382.82  4386.52  4397.24
                             4401.20  4407.69  4416.26  4424.89  4430.55
                             4437.95  4448.75  4468.66  4472.62  4474.59
                             4484.35  4688.20  5340.68

 Zero-point correction=                           0.338653 (Hartree/Particle)
 Thermal correction to Energy=                    0.355905
 Thermal correction to Enthalpy=                  0.356849
 Thermal correction to Gibbs Free Energy=         0.291227
 Sum of electronic and zero-point Energies=           -734.033146
 Sum of electronic and thermal Energies=              -734.015894
 Sum of electronic and thermal Enthalpies=            -734.014949
 Sum of electronic and thermal Free Energies=         -734.080572

                     E (Thermal)             CV                S
                      KCal/Mol        Cal/Mol-Kelvin    Cal/Mol-Kelvin
 Total                  223.334             64.345            138.113
 Electronic               0.000              0.000              0.000
 Translational            0.889              2.981             42.151
 Rotational               0.889              2.981             33.488
 Vibrational            221.556             58.383             62.475
 Vibration     1          0.593              1.985              6.127
 Vibration     2          0.593              1.984              6.018
 Vibration     3          0.594              1.981              5.298
 Vibration     4          0.596              1.975              4.556
 Vibration     5          0.597              1.972              4.362
 Vibration     6          0.600              1.964              3.928
 Vibration     7          0.606              1.943              3.301
 Vibration     8          0.613              1.919              2.876
 Vibration     9          0.616              1.911              2.771
 Vibration    10          0.633              1.856              2.247
 Vibration    11          0.642              1.827              2.055
 Vibration    12          0.656              1.783              1.820
 Vibration    13          0.676              1.722              1.575
 Vibration    14          0.690              1.682              1.443
 Vibration    15          0.700              1.653              1.358
 Vibration    16          0.716              1.606              1.237
 Vibration    17          0.732              1.562              1.137
 Vibration    18          0.753              1.505              1.024
 Vibration    19          0.763              1.479              0.978
 Vibration    20          0.787              1.417              0.877
 Vibration    21          0.827              1.317              0.738
 Vibration    22          0.862              1.236              0.642
 Vibration    23          0.905              1.141              0.545
 Vibration    24          0.912              1.126              0.531
 Vibration    25          0.939              1.069              0.480

                           ! Non-Optimized Parameters !
 Normal termination of Gaussian 16 at Thu Dec 10 23:06:15 2020.

 ----------------------------------------------------------------------
 # B3LYP/6-311++G(d,p) empiricaldispersion=gd3bj scf=xqc pop=npa geom=c
 heck
 ----------------------------------------------------------------------

 --------------------------------------
 CID_53677155_JID_6460_Energie_neutraal
 --------------------------------------
 Structure from the checkpoint file:  "JID_6460.chk"
 Charge =  0 Multiplicity = 1

 SCF Done:  E(RB3LYP) =  -734.590024943     A.U. after   14 cycles
 Normal termination of Gaussian 16 at Thu Dec 10 23:12:27 2020.

 ----------------------------------------------------------------------
 # B3LYP/6-311++G(d,p) empiricaldispersion=gd3bj scf=xqc pop=npa geom=c
 heck
 ----------------------------------------------------------------------

 ------------------------------------
 CID_53677155_JID_6460_Energie_kation
 ------------------------------------
 Structure from the checkpoint file:  "JID_6460.chk"
 Charge =  1 Multiplicity = 2

 SCF Done:  E(UB3LYP) =  -734.235009997     A.U. after   33 cycles
 SCF Done:  E(UB3LYP) =  -734.235026164     a.u. after    7 cycles
 Normal termination of Gaussian 16 at Fri Dec 11 01:23:15 2020.
 Gaussian 16:  ES64L-G16RevA.03 25-Dec-2016

 ----------------------------------------------------------------------
 # B3LYP/6-311++G(d,p) empiricaldispersion=gd3bj scf=xqc pop=npa geom=c
 heck
 ----------------------------------------------------------------------

 -----------------------------------
 CID_53677155_JID_6460_Energie_anion
 -----------------------------------
 Structure from the checkpoint file:  "JID_6460.chk"
 Charge = -1 Multiplicity = 2

                         Standard orientation:
 ---------------------------------------------------------------------
 Center     Atomic      Atomic             Coordinates (Angstroms)
 Number     Number       Type             X           Y           Z
 ---------------------------------------------------------------------
      1          6           0       -5.985674    0.807932   -0.533911
      2          6           0       -4.919724    1.059292    0.536684
      3          6           0       -4.184703   -0.209907    0.993880
      4          6           0       -3.437198   -0.966630   -0.115957
      5          6           0       -2.392404   -0.135439   -0.877227
      6          6           0       -1.301140    0.496685    0.000590
      7          6           0       -0.495959   -0.495649    0.853657
      8          6           0        0.193263   -1.617957    0.065241
      9          6           0        1.159791   -1.122722   -1.033610
     10          6           0        2.228716   -0.225113   -0.504428
     11          6           0        2.506039    1.053910   -0.777482
     12          6           0        3.686053    1.480655    0.009886
     13          8           0        4.239683    2.547950    0.053227
     14          8           0        4.107124    0.394411    0.755219
     15          6           0        3.246762   -0.724318    0.508697
     16          8           0        3.965619   -1.841415    0.078730
     17          1           0       -5.545434    0.435713   -1.465714
     18          1           0       -6.531126    1.727712   -0.772225
     19          1           0       -6.716904    0.064116   -0.193777
     20          1           0       -4.194850    1.794856    0.163627
     21          1           0       -5.391537    1.521542    1.413504
     22          1           0       -3.480403    0.057633    1.792607
     23          1           0       -4.911963   -0.895308    1.450891
     24          1           0       -2.953224   -1.846162    0.328695
     25          1           0       -4.160634   -1.362462   -0.839856
     26          1           0       -1.927736   -0.774873   -1.639823
     27          1           0       -2.896800    0.665472   -1.432743
     28          1           0       -0.616053    1.063803   -0.642695
     29          1           0       -1.754129    1.237539    0.670899
     30          1           0        0.259309    0.067408    1.417950
     31          1           0       -1.152003   -0.954249    1.603726
     32          1           0        0.745090   -2.261807    0.761328
     33          1           0       -0.556122   -2.260154   -0.411571
     34          1           0        1.638078   -1.999249   -1.490314
     35          1           0        0.606664   -0.605469   -1.823880
     36          1           0        1.999992    1.722840   -1.461692
     37          1           0        2.791233   -1.017327    1.458874
     38          1           0        4.426215   -1.593571   -0.741331
 ---------------------------------------------------------------------

 SCF Done:  E(UB3LYP) =  -734.596427435     A.U. after   32 cycles

 The electronic state is 2-A.
 Alpha  occ. eigenvalues --  -19.02841 -19.02642 -18.95991 -10.16043 -10.14550
 Alpha  occ. eigenvalues --  -10.08171 -10.07740 -10.07506 -10.07268 -10.07107
 Alpha  occ. eigenvalues --  -10.06774 -10.06571 -10.06527 -10.06475 -10.04356
 Alpha  occ. eigenvalues --  -10.03581  -0.97917  -0.92730  -0.87967  -0.72862
 Alpha  occ. eigenvalues --   -0.71073  -0.68533  -0.65470  -0.62207  -0.59132
 Alpha  occ. eigenvalues --   -0.58086  -0.55559  -0.51934  -0.48131  -0.45644
 Alpha  occ. eigenvalues --   -0.45261  -0.43923  -0.40295  -0.39337  -0.39020
 Alpha  occ. eigenvalues --   -0.38001  -0.36328  -0.35333  -0.33571  -0.33129
 Alpha  occ. eigenvalues --   -0.31984  -0.31154  -0.30764  -0.29755  -0.29101
 Alpha  occ. eigenvalues --   -0.29003  -0.28822  -0.27264  -0.26710  -0.25949
 Alpha  occ. eigenvalues --   -0.24708  -0.24608  -0.24299  -0.23841  -0.23600
 Alpha  occ. eigenvalues --   -0.22092  -0.21657  -0.21375  -0.19578  -0.17233
 Alpha  occ. eigenvalues --   -0.15132  -0.13805   0.03856
 Alpha virt. eigenvalues --    0.05168   0.06889   0.07087   0.07674   0.08766
 Alpha virt. eigenvalues --    0.08920   0.09473   0.10334   0.10516   0.10698
 Alpha virt. eigenvalues --    0.11229   0.11483   0.12184   0.13043   0.13273

  Beta  occ. eigenvalues --  -19.02770 -19.02630 -18.95726 -10.16068 -10.14389
  Beta  occ. eigenvalues --  -10.08165 -10.07734 -10.07480 -10.07253 -10.07099
  Beta  occ. eigenvalues --  -10.06774 -10.06569 -10.06516 -10.06472 -10.03910
  Beta  occ. eigenvalues --  -10.03458  -0.97769  -0.92479  -0.87647  -0.72814
  Beta  occ. eigenvalues --   -0.70842  -0.68257  -0.65288  -0.62103  -0.58998
  Beta  occ. eigenvalues --   -0.57922  -0.55500  -0.51836  -0.47977  -0.45426
  Beta  occ. eigenvalues --   -0.44993  -0.43799  -0.40042  -0.39288  -0.38936
  Beta  occ. eigenvalues --   -0.37738  -0.36250  -0.35273  -0.33414  -0.33044
  Beta  occ. eigenvalues --   -0.31935  -0.31018  -0.30575  -0.29697  -0.28963
  Beta  occ. eigenvalues --   -0.28704  -0.28122  -0.27191  -0.26606  -0.25876
  Beta  occ. eigenvalues --   -0.24647  -0.24502  -0.24181  -0.23729  -0.23560
  Beta  occ. eigenvalues --   -0.22045  -0.21602  -0.21339  -0.19171  -0.16748
  Beta  occ. eigenvalues --   -0.13665  -0.13206
  Beta virt. eigenvalues --    0.05606   0.07106   0.07170   0.07719   0.08573
  Beta virt. eigenvalues --    0.08845   0.09020   0.10075   0.10419   0.10694
  Beta virt. eigenvalues --    0.10792   0.11310   0.11622   0.12248   0.13070

 Mulliken charges and spin densities:
               1          2
     1  C    0.390354  -1.020336
     2  C   -0.637630   0.432232
     3  C    0.011839  -0.269928
     4  C    0.052676  -0.289700
     5  C   -0.236113  -0.082765
     6  C   -0.311661  -0.034958
     7  C   -0.114756  -0.051520
     8  C    0.015160  -0.260222
     9  C   -0.514265   0.031603
    10  C    0.459678   0.275777
    11  C   -0.173756   0.143303
    12  C   -0.061537   0.113284
    13  O   -0.407857   0.083513
    14  O   -0.130088  -0.004898
    15  C   -0.667625  -0.069778
    16  O   -0.114154  -0.005267
    17  H   -0.037526   0.177130
    18  H   -0.110461   0.242370
    19  H   -0.113973   0.249904
    20  H    0.149953  -0.025274
    21  H   -0.014654   0.157295
    22  H    0.118782   0.015571
    23  H   -0.070978   0.225358
    24  H    0.084425   0.062119
    25  H   -0.109528   0.273894
    26  H    0.105407   0.041976
    27  H    0.053564   0.105672
    28  H    0.174144  -0.019933
    29  H    0.139650   0.011519
    30  H    0.149534   0.003287
    31  H    0.130902   0.022298
    32  H    0.186848  -0.024855
    33  H   -0.151357   0.311376
    34  H    0.104976   0.061924
    35  H    0.089453   0.066938
    36  H    0.144491  -0.005305
    37  H    0.194260   0.030269
    38  H    0.221825   0.026127
 Sum of Mulliken charges =  -1.00000   1.00000

 Dipole moment (field-independent basis, Debye):
    X=             -3.6376    Y=             -2.3786    Z=             -0.1756  Tot=              4.3498
 Quadrupole moment (field-independent basis, Debye-Ang):
   XX=           -219.3007   YY=           -136.6497   ZZ=           -114.8716
   XY=            -18.2545   XZ=            -10.3450   YZ=             -1.1324

 Summary of Natural Population Analysis:

                                       Natural Population
                Natural  -----------------------------------------------
    Atom  No    Charge         Core      Valence    Rydberg      Total
 -----------------------------------------------------------------------
      C    1   -0.28863      0.99967     2.28398    0.00498     3.28863
      C    2   -0.19335      0.99964     2.18511    0.00860     3.19335
      C    3   -0.19155      0.99963     2.18309    0.00883     3.19155
      C    4   -0.19414      0.99963     2.18589    0.00862     3.19414
      C    5   -0.19468      0.99963     2.18590    0.00915     3.19468
      C    6   -0.19427      0.99963     2.18670    0.00794     3.19427
      C    7   -0.19366      0.99963     2.18617    0.00787     3.19366
      C    8   -0.18403      0.99963     2.17504    0.00937     3.18403
      C    9   -0.21381      0.99959     2.20397    0.01025     3.21381
      C   10    0.06927      0.99948     1.91940    0.01184     2.93073
      C   11   -0.14720      0.99939     2.13996    0.00785     3.14720
      C   12    0.40609      0.99968     1.56896    0.02527     2.59391
      O   13   -0.28438      0.99986     3.27745    0.00707     4.28438
      O   14   -0.29790      0.99987     3.28958    0.00845     4.29790
      C   15    0.20422      0.99954     1.77827    0.01798     2.79578
      O   16   -0.36018      0.99989     3.35371    0.00658     4.36018
      H   17    0.09756      0.00000     0.40153    0.00090     0.40244
      H   18    0.09780      0.00000     0.40141    0.00079     0.40220
      H   19    0.09614      0.00000     0.40279    0.00107     0.40386
      H   20    0.09399      0.00000     0.40495    0.00106     0.40601
      H   21    0.09425      0.00000     0.40486    0.00089     0.40575
      H   22    0.09579      0.00000     0.40326    0.00096     0.40421
      H   23    0.09507      0.00000     0.40405    0.00087     0.40493
      H   24    0.09827      0.00000     0.40075    0.00098     0.40173
      H   25    0.09682      0.00000     0.40221    0.00097     0.40318
      H   26    0.09863      0.00000     0.40039    0.00098     0.40137
      H   27    0.09481      0.00000     0.40425    0.00094     0.40519
      H   28    0.10104      0.00000     0.39778    0.00117     0.39896
      H   29    0.09386      0.00000     0.40507    0.00107     0.40614
      H   30    0.10202      0.00000     0.39705    0.00093     0.39798
      H   31    0.09293      0.00000     0.40616    0.00091     0.40707
      H   32    0.09570      0.00000     0.40336    0.00094     0.40430
      H   33    0.09598      0.00000     0.40284    0.00118     0.40402
      H   34    0.10946      0.00000     0.38940    0.00114     0.39054
      H   35    0.09867      0.00000     0.40022    0.00111     0.40133
      H   36    0.09995      0.00000     0.39917    0.00089     0.40005
      H   37    0.08124      0.00000     0.41726    0.00149     0.41876
      H   38    0.22820      0.00000     0.26935    0.00245     0.27180
 =======================================================================
   * Total *    0.00000     15.99438    45.82129    0.18433    62.00000

 Normal termination of Gaussian 16 at Fri Dec 11 01:42:42 2020.
