 Gaussian 16, Revision A.03,

 -----------------------------------------------------------
 # opt freq B3LYP/6-31G(d) empiricaldispersion=gd3bj scf=xqc
 -----------------------------------------------------------

 ------------------------------
 CID_71425107_JID_2299_neutraal
 ------------------------------
 Symbolic Z-matrix:
 Charge =  0 Multiplicity = 1

 SCF Done:  E(RB3LYP) =  -845.491194260     A.U. after   14 cycles
 SCF Done:  E(RB3LYP) =  -845.493685809     A.U. after   13 cycles
 SCF Done:  E(RB3LYP) =  -845.493313077     A.U. after   12 cycles
 SCF Done:  E(RB3LYP) =  -845.494060441     A.U. after   12 cycles
 SCF Done:  E(RB3LYP) =  -845.494739517     A.U. after   13 cycles
 SCF Done:  E(RB3LYP) =  -845.494816428     A.U. after   11 cycles
 SCF Done:  E(RB3LYP) =  -845.494866926     A.U. after   11 cycles
 SCF Done:  E(RB3LYP) =  -845.494866979     A.U. after   10 cycles
 SCF Done:  E(RB3LYP) =  -845.494877795     A.U. after   10 cycles
 SCF Done:  E(RB3LYP) =  -845.494878617     A.U. after    9 cycles
 SCF Done:  E(RB3LYP) =  -845.494879007     A.U. after    8 cycles
 SCF Done:  E(RB3LYP) =  -845.494879105     A.U. after    7 cycles
 Optimization completed.
    -- Stationary point found.
 Normal termination of Gaussian 16 at Wed Dec  9 16:59:07 2020.

 --------------------------------------------------------------------
 #N Geom=AllCheck Guess=TCheck SCRF=Check GenChk RB3LYP/6-31G(d) Freq
 --------------------------------------------------------------------

 Structure from the checkpoint file:  "JID_2299.chk"
 ------------------------------
 CID_71425107_JID_2299_neutraal
 ------------------------------
 Charge =  0 Multiplicity = 1

 SCF Done:  E(RB3LYP) =  -845.494879105     A.U. after    1 cycles

  Exact polarizability: 141.960  -5.535 123.682  -6.220   3.209 110.637
 Approx polarizability: 211.256 -12.414 179.173 -20.515   9.758 162.892

                      1                      2                      3
                      A                      A                      A
 Frequencies --     45.7214                50.9072                87.9624
 Red. masses --      5.4177                 3.3292                 3.8017
 Frc consts  --      0.0067                 0.0051                 0.0173
 IR Inten    --      1.1478                 0.7463                 1.4214

                      4                      5                      6
                      A                      A                      A
 Frequencies --    104.5980               112.6000               137.5367
 Red. masses --      2.6375                 3.0440                 2.3986
 Frc consts  --      0.0170                 0.0227                 0.0267
 IR Inten    --      0.7955                 2.2587                 0.4108

                      7                      8                      9
                      A                      A                      A
 Frequencies --    162.0571               187.0466               193.0812
 Red. masses --      1.9110                 2.1669                 1.6127
 Frc consts  --      0.0296                 0.0447                 0.0354
 IR Inten    --      0.9813                 0.5679                 0.2418

                     10                     11                     12
                      A                      A                      A
 Frequencies --    224.1868               239.0394               259.6190
 Red. masses --      1.4662                 1.8441                 2.0715
 Frc consts  --      0.0434                 0.0621                 0.0823
 IR Inten    --      0.0389                 0.1583                 0.2509

                     13                     14                     15
                      A                      A                      A
 Frequencies --    264.2126               317.4689               330.7796
 Red. masses --      1.8653                 2.1013                 2.1418
 Frc consts  --      0.0767                 0.1248                 0.1381
 IR Inten    --      0.1357                 0.4964                 0.0554

                     16                     17                     18
                      A                      A                      A
 Frequencies --    351.1196               379.5615               406.6315
 Red. masses --      4.1110                 2.2536                 2.6909
 Frc consts  --      0.2986                 0.1913                 0.2621
 IR Inten    --      0.9746                 0.1452                 0.4573

                     19                     20                     21
                      A                      A                      A
 Frequencies --    409.9051               458.7048               470.3803
 Red. masses --      5.4814                 3.1257                 3.7687
 Frc consts  --      0.5426                 0.3875                 0.4913
 IR Inten    --      4.2214                 0.8015                 0.7008

                     22                     23                     24
                      A                      A                      A
 Frequencies --    538.2847               609.1100               701.4078
 Red. masses --      2.9939                 2.7662                14.7592
 Frc consts  --      0.5111                 0.6047                 4.2781
 IR Inten    --      2.2373                 7.1640                 1.7618

                     25                     26                     27
                      A                      A                      A
 Frequencies --    715.1768               782.3969               788.4171
 Red. masses --      1.7901                 1.4046                 1.4094
 Frc consts  --      0.5394                 0.5066                 0.5162
 IR Inten    --      5.5430                 8.0094                 0.4961

                     28                     29                     30
                      A                      A                      A
 Frequencies --    813.7069               837.9692               889.3169
 Red. masses --      1.3789                 1.7798                 1.4278
 Frc consts  --      0.5379                 0.7363                 0.6653
 IR Inten    --      4.8371                11.2054                 2.6392

                     31                     32                     33
                      A                      A                      A
 Frequencies --    934.1490               944.1858               985.5561
 Red. masses --      1.9540                 1.7995                 1.7428
 Frc consts  --      1.0046                 0.9452                 0.9974
 IR Inten    --      2.4849                10.8909                 2.2321

                     34                     35                     36
                      A                      A                      A
 Frequencies --   1009.3888              1054.2923              1058.4461
 Red. masses --      1.7723                 2.8127                 1.6645
 Frc consts  --      1.0639                 1.8420                 1.0987
 IR Inten    --      0.9884                 1.3413                 1.2775

                     37                     38                     39
                      A                      A                      A
 Frequencies --   1093.2499              1099.3250              1118.3053
 Red. masses --      1.8031                 1.8667                 1.4891
 Frc consts  --      1.2697                 1.3292                 1.0972
 IR Inten    --      2.9346                 2.0042                 0.7235

                     40                     41                     42
                      A                      A                      A
 Frequencies --   1128.6393              1151.6833              1194.5870
 Red. masses --      2.0345                 2.0486                 2.5049
 Frc consts  --      1.5269                 1.6009                 2.1061
 IR Inten    --      0.5693                21.3053                 1.7846

                     43                     44                     45
                      A                      A                      A
 Frequencies --   1225.1486              1265.3551              1291.8432
 Red. masses --      2.2925                 1.2720                 1.2520
 Frc consts  --      2.0274                 1.2000                 1.2311
 IR Inten    --      2.2588                 4.2855                 0.5628

                     46                     47                     48
                      A                      A                      A
 Frequencies --   1326.1374              1347.5669              1354.3563
 Red. masses --      1.1499                 1.1772                 1.1644
 Frc consts  --      1.1915                 1.2595                 1.2584
 IR Inten    --      2.8396                 1.8710                 3.6051

                     49                     50                     51
                      A                      A                      A
 Frequencies --   1383.7300              1396.4153              1402.4648
 Red. masses --      1.3964                 1.4205                 1.3625
 Frc consts  --      1.5753                 1.6320                 1.5789
 IR Inten    --      3.2105                 4.4368                 0.5289

                     52                     53                     54
                      A                      A                      A
 Frequencies --   1416.5847              1420.4761              1442.7315
 Red. masses --      1.4148                 1.3760                 1.2265
 Frc consts  --      1.6728                 1.6359                 1.5041
 IR Inten    --      3.0776                 1.6282                 1.3613

                     55                     56                     57
                      A                      A                      A
 Frequencies --   1445.1041              1448.2515              1507.2530
 Red. masses --      1.2455                 1.2565                 1.0696
 Frc consts  --      1.5324                 1.5528                 1.4316
 IR Inten    --      3.0370                11.8261                 1.5114

                     58                     59                     60
                      A                      A                      A
 Frequencies --   1515.2550              1518.3338              1524.1576
 Red. masses --      1.0770                 1.0682                 1.0521
 Frc consts  --      1.4569                 1.4510                 1.4400
 IR Inten    --     10.9349                 5.3284                 1.9884

                     61                     62                     63
                      A                      A                      A
 Frequencies --   1529.2449              1531.5497              1535.9925
 Red. masses --      1.0522                 1.0425                 1.0492
 Frc consts  --      1.4497                 1.4407                 1.4585
 IR Inten    --      2.3461                 6.9982                 1.5321

                     64                     65                     66
                      A                      A                      A
 Frequencies --   1536.6148              1538.6755              1541.1446
 Red. masses --      1.0635                 1.0617                 1.0564
 Frc consts  --      1.4796                 1.4810                 1.4783
 IR Inten    --      4.8412                 7.7514                 3.4226

                     67                     68                     69
                      A                      A                      A
 Frequencies --   1542.4442              2269.3888              3032.2960
 Red. masses --      1.0770                12.7538                 1.0684
 Frc consts  --      1.5097                38.6996                 5.7879
 IR Inten    --      4.6666                31.1916                15.9679

                     70                     71                     72
                      A                      A                      A
 Frequencies --   3044.2016              3046.6453              3049.5945
 Red. masses --      1.0602                 1.0462                 1.0639
 Frc consts  --      5.7885                 5.7216                 5.8293
 IR Inten    --     25.6522                27.7930                14.1874

                     73                     74                     75
                      A                      A                      A
 Frequencies --   3053.3177              3062.2694              3062.7451
 Red. masses --      1.0584                 1.0381                 1.0391
 Frc consts  --      5.8136                 5.7356                 5.7430
 IR Inten    --     10.0758                30.8428                24.3229

                     76                     77                     78
                      A                      A                      A
 Frequencies --   3067.5251              3079.2058              3085.6615
 Red. masses --      1.0623                 1.0927                 1.0970
 Frc consts  --      5.8894                 6.1042                 6.1537
 IR Inten    --      4.3702                10.2977                 9.6594

                     79                     80                     81
                      A                      A                      A
 Frequencies --   3091.4940              3099.0058              3104.5546
 Red. masses --      1.0998                 1.0958                 1.1016
 Frc consts  --      6.1931                 6.2006                 6.2558
 IR Inten    --     12.2875                48.2221                 7.1089

                     82                     83                     84
                      A                      A                      A
 Frequencies --   3113.6617              3120.7982              3125.9137
 Red. masses --      1.1008                 1.1015                 1.1016
 Frc consts  --      6.2881                 6.3206                 6.3418
 IR Inten    --     58.4434                52.6060                21.9407

                     85                     86                     87
                      A                      A                      A
 Frequencies --   3127.2883              3135.7091              3138.8299
 Red. masses --      1.1015                 1.1025                 1.1023
 Frc consts  --      6.3469                 6.3870                 6.3983
 IR Inten    --     26.7451                36.7225                27.6760

 - Thermochemistry -
 -------------------
 Temperature   298.150 Kelvin.  Pressure   1.00000 Atm.
 Atom     1 has atomic number  6 and mass  12.00000

 Molecular mass:   185.12382 amu.
 Principal axes and moments of inertia in atomic units:
                           1         2         3
     Eigenvalues --  2012.371652983.267423466.46833
           X            0.99681   0.07636   0.02322
           Y           -0.07470   0.99504  -0.06571
           Z           -0.02813   0.06377   0.99757
 This molecule is an asymmetric top.
 Rotational symmetry number  1.
 Warning -- assumption of classical behavior for rotation
           may cause significant error
 Rotational temperatures (Kelvin)      0.04304     0.02903     0.02499
 Rotational constants (GHZ):           0.89682     0.60495     0.52063
 Zero-point vibrational energy     726956.6 (Joules/Mol)
                                  173.74679 (Kcal/Mol)
 Warning -- explicit consideration of  23 degrees of freedom as
           vibrations may cause significant error
 Vibrational temperatures:     65.78    73.24   126.56   150.49   162.01
          (Kelvin)            197.88   233.16   269.12   277.80   322.55
                              343.92   373.53   380.14   456.77   475.92
                              505.18   546.10   585.05   589.76   659.97
                              676.77   774.47   876.37  1009.17  1028.98
                             1125.69  1134.36  1170.74  1205.65  1279.53
                             1344.03  1358.47  1418.00  1452.29  1516.89
                             1522.87  1572.94  1581.68  1608.99  1623.86
                             1657.02  1718.74  1762.72  1820.56  1858.67
                             1908.02  1938.85  1948.62  1990.88  2009.13
                             2017.83  2038.15  2043.75  2075.77  2079.18
                             2083.71  2168.60  2180.11  2184.54  2192.92
                             2200.24  2203.56  2209.95  2210.85  2213.81
                             2217.36  2219.23  3265.14  4362.80  4379.93
                             4383.44  4387.69  4393.04  4405.92  4406.61
                             4413.48  4430.29  4439.58  4447.97  4458.78
                             4466.76  4479.86  4490.13  4497.49  4499.47
                             4511.59  4516.08

 Zero-point correction=                           0.276883 (Hartree/Particle)
 Thermal correction to Energy=                    0.292038
 Thermal correction to Enthalpy=                  0.292983
 Thermal correction to Gibbs Free Energy=         0.235055
 Sum of electronic and zero-point Energies=           -845.217996
 Sum of electronic and thermal Energies=              -845.202841
 Sum of electronic and thermal Enthalpies=            -845.201896
 Sum of electronic and thermal Free Energies=         -845.259824

                     E (Thermal)             CV                S
                      KCal/Mol        Cal/Mol-Kelvin    Cal/Mol-Kelvin
 Total                  183.257             55.403            121.919
 Electronic               0.000              0.000              0.000
 Translational            0.889              2.981             41.554
 Rotational               0.889              2.981             31.410
 Vibrational            181.479             49.441             48.956
 Vibration     1          0.595              1.979              4.994
 Vibration     2          0.595              1.977              4.782
 Vibration     3          0.601              1.958              3.705
 Vibration     4          0.605              1.946              3.367
 Vibration     5          0.607              1.939              3.224
 Vibration     6          0.614              1.916              2.838
 Vibration     7          0.622              1.889              2.526
 Vibration     8          0.632              1.858              2.257
 Vibration     9          0.635              1.849              2.198
 Vibration    10          0.649              1.804              1.925
 Vibration    11          0.657              1.781              1.810
 Vibration    12          0.668              1.746              1.664
 Vibration    13          0.671              1.739              1.634
 Vibration    14          0.704              1.640              1.323
 Vibration    15          0.713              1.614              1.256
 Vibration    16          0.728              1.573              1.161
 Vibration    17          0.750              1.514              1.041
 Vibration    18          0.771              1.456              0.939
 Vibration    19          0.774              1.449              0.927
 Vibration    20          0.817              1.342              0.770
 Vibration    21          0.827              1.316              0.736
 Vibration    22          0.893              1.165              0.569
 Vibration    23          0.968              1.013              0.434

 Optimization completed.
    -- Stationary point found.
 Normal termination of Gaussian 16 at Wed Dec  9 17:08:24 2020.

 ----------------------------------------------------------------------
 # B3LYP/6-311++G(d,p) empiricaldispersion=gd3bj scf=xqc pop=npa geom=c
 heck
 ----------------------------------------------------------------------

 --------------------------------------
 CID_71425107_JID_2299_Energie_neutraal
 --------------------------------------
 Structure from the checkpoint file:  "JID_2299.chk"
 Charge =  0 Multiplicity = 1

 SCF Done:  E(RB3LYP) =  -845.646936273     A.U. after   14 cycles
 Normal termination of Gaussian 16 at Wed Dec  9 17:12:53 2020.

 ----------------------------------------------------------------------
 # B3LYP/6-311++G(d,p) empiricaldispersion=gd3bj scf=xqc pop=npa geom=c
 heck
 ----------------------------------------------------------------------

 ------------------------------------
 CID_71425107_JID_2299_Energie_kation
 ------------------------------------
 Structure from the checkpoint file:  "JID_2299.chk"
 Charge =  1 Multiplicity = 2

 SCF Done:  E(UB3LYP) =  -845.311555601     A.U. after   21 cycles
 Normal termination of Gaussian 16 at Wed Dec  9 17:22:15 2020.
 Gaussian 16:  ES64L-G16RevA.03 25-Dec-2016

 ----------------------------------------------------------------------
 # B3LYP/6-311++G(d,p) empiricaldispersion=gd3bj scf=xqc pop=npa geom=c
 heck
 ----------------------------------------------------------------------

 -----------------------------------
 CID_71425107_JID_2299_Energie_anion
 -----------------------------------
 Structure from the checkpoint file:  "JID_2299.chk"
 Charge = -1 Multiplicity = 2

                         Standard orientation:
 ---------------------------------------------------------------------
 Center     Atomic      Atomic             Coordinates (Angstroms)
 Number     Number       Type             X           Y           Z
 ---------------------------------------------------------------------
      1          6           0       -3.160047   -1.498442    0.342269
      2          6           0       -2.785784   -0.413915   -0.672338
      3          6           0       -2.254406    0.880426   -0.036925
      4          6           0       -0.985686    0.782469    0.829039
      5          6           0        0.375510    0.497660    0.149344
      6          6           0        0.556076    1.230387   -1.194267
      7          6           0        0.543182    2.762180   -1.098359
      8          6           0        1.539794    0.810350    1.111326
      9          6           0        1.508820    0.127262    2.480216
     10         16           0        0.381991   -1.375020   -0.220231
     11          6           0        1.960203   -1.551795   -0.813613
     12          7           0        3.044901   -1.685282   -1.223904
     13          1           0       -2.289854   -1.859535    0.901247
     14          1           0       -3.605362   -2.365064   -0.157768
     15          1           0       -3.888167   -1.120335    1.070727
     16          1           0       -2.058518   -0.813497   -1.388136
     17          1           0       -3.676137   -0.153820   -1.259479
     18          1           0       -2.105034    1.628561   -0.823636
     19          1           0       -3.041915    1.286382    0.613015
     20          1           0       -0.859115    1.749334    1.333553
     21          1           0       -1.143438    0.057784    1.634779
     22          1           0        1.505891    0.910427   -1.637298
     23          1           0       -0.229378    0.902848   -1.882653
     24          1           0        1.394020    3.144858   -0.526960
     25          1           0        0.604071    3.192993   -2.103169
     26          1           0       -0.372891    3.139967   -0.632361
     27          1           0        2.481346    0.571597    0.603595
     28          1           0        1.539228    1.897262    1.260247
     29          1           0        1.501758   -0.962612    2.385543
     30          1           0        2.398534    0.407816    3.053157
     31          1           0        0.632830    0.422841    3.066465
 ---------------------------------------------------------------------

 SCF Done:  E(UB3LYP) =  -845.636550730     A.U. after   32 cycles

 The electronic state is 2-A.
 Alpha  occ. eigenvalues --  -88.77956 -14.21124 -10.12755 -10.12317 -10.07942
 Alpha  occ. eigenvalues --  -10.07681 -10.07610 -10.06941 -10.06861 -10.06657
 Alpha  occ. eigenvalues --  -10.06385 -10.06324  -7.86534  -5.82991  -5.82473
 Alpha  occ. eigenvalues --   -5.81907  -0.80986  -0.75686  -0.69617  -0.67061
 Alpha  occ. eigenvalues --   -0.66148  -0.63434  -0.58236  -0.54927  -0.52557
 Alpha  occ. eigenvalues --   -0.48879  -0.44132  -0.40404  -0.38729  -0.36147
 Alpha  occ. eigenvalues --   -0.35739  -0.34511  -0.34300  -0.32413  -0.31462
 Alpha  occ. eigenvalues --   -0.29745  -0.29364  -0.28885  -0.28057  -0.27502
 Alpha  occ. eigenvalues --   -0.26868  -0.26585  -0.25687  -0.25388  -0.24804
 Alpha  occ. eigenvalues --   -0.24227  -0.23232  -0.22094  -0.21922  -0.20434
 Alpha  occ. eigenvalues --   -0.15537   0.04336
 Alpha virt. eigenvalues --    0.06275   0.06924   0.07355   0.08031   0.08952
 Alpha virt. eigenvalues --    0.09248   0.09957   0.10448   0.10760   0.11464
 Alpha virt. eigenvalues --    0.11895   0.12286   0.12623   0.12958   0.13402

  Beta  occ. eigenvalues --  -88.77940 -14.21051 -10.12643 -10.12305 -10.07942
  Beta  occ. eigenvalues --  -10.07664 -10.07601 -10.06932 -10.06836 -10.06625
  Beta  occ. eigenvalues --  -10.06366 -10.06305  -7.86514  -5.82971  -5.82461
  Beta  occ. eigenvalues --   -5.81891  -0.80871  -0.75564  -0.69574  -0.66963
  Beta  occ. eigenvalues --   -0.66109  -0.63389  -0.58144  -0.54864  -0.52495
  Beta  occ. eigenvalues --   -0.48797  -0.43975  -0.40320  -0.38686  -0.36102
  Beta  occ. eigenvalues --   -0.35692  -0.34444  -0.34270  -0.32337  -0.31394
  Beta  occ. eigenvalues --   -0.29700  -0.29318  -0.28842  -0.28003  -0.27393
  Beta  occ. eigenvalues --   -0.26796  -0.26495  -0.25545  -0.25346  -0.24757
  Beta  occ. eigenvalues --   -0.24176  -0.23183  -0.22040  -0.21869  -0.20219
  Beta  occ. eigenvalues --   -0.15463
  Beta virt. eigenvalues --    0.06670   0.07052   0.07495   0.07860   0.08763
  Beta virt. eigenvalues --    0.09186   0.09648   0.10538   0.10644   0.11094
  Beta virt. eigenvalues --    0.11843   0.12100   0.12529   0.12879   0.13288

 Mulliken charges and spin densities:
               1          2
     1  C    0.466901  -1.053735
     2  C   -0.519271   0.433542
     3  C    1.397578  -1.806894
     4  C   -0.630131   0.023900
     5  C    0.844582   0.498311
     6  C   -1.289456   0.749280
     7  C    0.563549  -1.177875
     8  C   -0.239178  -0.051405
     9  C    0.502701  -1.137136
    10  S   -0.153306   0.130882
    11  C    0.169220  -0.391204
    12  N   -0.297458   0.056649
    13  H   -0.171901   0.296361
    14  H   -0.058543   0.191598
    15  H   -0.161923   0.306312
    16  H    0.015489   0.090932
    17  H   -0.263505   0.434497
    18  H    0.156707  -0.014911
    19  H   -0.565222   0.747192
    20  H   -0.535524   0.771023
    21  H    0.526359  -0.372796
    22  H    0.190754  -0.042102
    23  H    0.101749   0.070959
    24  H   -0.226477   0.380719
    25  H   -0.129593   0.268764
    26  H   -0.282032   0.442556
    27  H    0.022864   0.134944
    28  H   -0.100055   0.244749
    29  H    0.091699   0.035831
    30  H   -0.113799   0.262300
    31  H   -0.312778   0.476759
 Sum of Mulliken charges =  -1.00000   1.00000

 Dipole moment (field-independent basis, Debye):
    X=              0.9291    Y=             -2.9667    Z=             -2.1109  Tot=              3.7577
 Quadrupole moment (field-independent basis, Debye-Ang):
   XX=           -150.1445   YY=           -136.9365   ZZ=           -121.5845
   XY=              8.3956   XZ=              6.6082   YZ=            -10.3122

 Summary of Natural Population Analysis:

                                       Natural Population
                Natural  -----------------------------------------------
    Atom  No    Charge         Core      Valence    Rydberg      Total
 -----------------------------------------------------------------------
      C    1   -0.28749      0.99966     2.28280    0.00502     3.28749
      C    2   -0.19539      0.99963     2.18804    0.00772     3.19539
      C    3   -0.19075      0.99962     2.18077    0.01035     3.19075
      C    4   -0.21123      0.99955     2.19829    0.01339     3.21123
      C    5   -0.03846      0.99951     2.02212    0.01682     3.03846
      C    6   -0.20395      0.99956     2.19469    0.00970     3.20395
      C    7   -0.28610      0.99966     2.28074    0.00571     3.28610
      C    8   -0.20580      0.99956     2.19503    0.01121     3.20580
      C    9   -0.28811      0.99966     2.28282    0.00563     3.28811
      S   10    0.13300      4.99938     2.84895    0.01867     7.86700
      C   11    0.03160      0.99958     1.94900    0.01981     2.96840
      N   12   -0.18384      0.99979     2.67152    0.01253     3.68384
      H   13    0.09603      0.00000     0.40281    0.00116     0.40397
      H   14    0.09817      0.00000     0.40104    0.00079     0.40183
      H   15    0.09747      0.00000     0.40146    0.00107     0.40253
      H   16    0.09619      0.00000     0.40226    0.00155     0.40381
      H   17    0.09627      0.00000     0.40268    0.00105     0.40373
      H   18    0.09816      0.00000     0.40037    0.00147     0.40184
      H   19    0.10154      0.00000     0.39675    0.00171     0.39846
      H   20    0.11729      0.00000     0.37913    0.00358     0.38271
      H   21    0.10461      0.00000     0.39373    0.00166     0.39539
      H   22    0.10485      0.00000     0.39396    0.00118     0.39515
      H   23    0.10137      0.00000     0.39728    0.00135     0.39863
      H   24    0.09998      0.00000     0.39882    0.00120     0.40002
      H   25    0.09938      0.00000     0.39996    0.00066     0.40062
      H   26    0.10214      0.00000     0.39645    0.00141     0.39786
      H   27    0.10329      0.00000     0.39507    0.00164     0.39671
      H   28    0.10847      0.00000     0.38943    0.00211     0.39153
      H   29    0.10044      0.00000     0.39833    0.00123     0.39956
      H   30    0.10052      0.00000     0.39878    0.00069     0.39948
      H   31    0.10032      0.00000     0.39865    0.00103     0.39968
 =======================================================================
   * Total *    0.00000     15.99515    34.84175    0.16310    51.00000

 Normal termination of Gaussian 16 at Wed Dec  9 17:36:14 2020.
