 Gaussian 16, Revision A.03,

 -----------------------------------------------------------
 # opt freq B3LYP/6-31G(d) empiricaldispersion=gd3bj scf=xqc
 -----------------------------------------------------------

 ------------------------------
 CID_83827407_JID_3857_neutraal
 ------------------------------
 Symbolic Z-matrix:
 Charge =  0 Multiplicity = 1

 SCF Done:  E(RB3LYP) =  -587.855083118     A.U. after   15 cycles
 SCF Done:  E(RB3LYP) =  -587.860553631     A.U. after   13 cycles
 SCF Done:  E(RB3LYP) =  -587.860617788     A.U. after   13 cycles
 SCF Done:  E(RB3LYP) =  -587.860359441     A.U. after   13 cycles
 SCF Done:  E(RB3LYP) =  -587.861505204     A.U. after   13 cycles
 SCF Done:  E(RB3LYP) =  -587.861613419     A.U. after   12 cycles
 SCF Done:  E(RB3LYP) =  -587.861662673     A.U. after   12 cycles
 SCF Done:  E(RB3LYP) =  -587.861671965     A.U. after   11 cycles
 SCF Done:  E(RB3LYP) =  -587.861673409     A.U. after    9 cycles
 SCF Done:  E(RB3LYP) =  -587.861674040     A.U. after    8 cycles
 SCF Done:  E(RB3LYP) =  -587.861674188     A.U. after    7 cycles
 SCF Done:  E(RB3LYP) =  -587.861674228     A.U. after    7 cycles
 Optimization completed.
    -- Stationary point found.
 Normal termination of Gaussian 16 at Mon Dec 14 13:07:14 2020.

 --------------------------------------------------------------------
 #N Geom=AllCheck Guess=TCheck SCRF=Check GenChk RB3LYP/6-31G(d) Freq
 --------------------------------------------------------------------

 Structure from the checkpoint file:  "JID_3857.chk"
 ------------------------------
 CID_83827407_JID_3857_neutraal
 ------------------------------
 Charge =  0 Multiplicity = 1

 SCF Done:  E(RB3LYP) =  -587.861674228     A.U. after    1 cycles

  Exact polarizability: 189.741  -3.275 114.504  -4.207   4.159  51.895
 Approx polarizability: 303.827   6.104 211.021  -7.761  10.909  80.389

                      1                      2                      3
                      A                      A                      A
 Frequencies --     41.9052                86.9510               101.3687
 Red. masses --      4.4521                 2.8654                 7.2854
 Frc consts  --      0.0046                 0.0128                 0.0441
 IR Inten    --      3.0108                 5.7806                 1.8717

                      4                      5                      6
                      A                      A                      A
 Frequencies --    162.8035               214.3906               241.2438
 Red. masses --      4.6052                 4.0136                 4.1124
 Frc consts  --      0.0719                 0.1087                 0.1410
 IR Inten    --      2.1213                 0.2799                 3.8015

                      7                      8                      9
                      A                      A                      A
 Frequencies --    269.3892               295.8264               352.6060
 Red. masses --      1.5041                 2.6555                 6.7548
 Frc consts  --      0.0643                 0.1369                 0.4948
 IR Inten    --     42.7540                14.0271                 2.2270

                     10                     11                     12
                      A                      A                      A
 Frequencies --    409.6088               433.7560               516.9000
 Red. masses --      3.8831                 3.0156                 3.7428
 Frc consts  --      0.3839                 0.3343                 0.5892
 IR Inten    --      5.7993                 7.4358                 4.1777

                     13                     14                     15
                      A                      A                      A
 Frequencies --    554.9910               604.3878               635.0989
 Red. masses --      5.0319                 4.9227                 5.9721
 Frc consts  --      0.9132                 1.0595                 1.4193
 IR Inten    --     30.4175                 5.5291                 0.2432

                     16                     17                     18
                      A                      A                      A
 Frequencies --    647.4534               708.6501               736.2133
 Red. masses --      4.6349                 4.0817                 3.1149
 Frc consts  --      1.1447                 1.2077                 0.9947
 IR Inten    --      2.7500                10.3908                 3.2766

                     19                     20                     21
                      A                      A                      A
 Frequencies --    753.3163               772.3115               807.5808
 Red. masses --      3.1732                 1.6392                 4.5921
 Frc consts  --      1.0610                 0.5761                 1.7645
 IR Inten    --     39.9639                25.2990                 2.7497

                     22                     23                     24
                      A                      A                      A
 Frequencies --    812.2088               881.7232               904.5576
 Red. masses --      1.4984                 1.4133                 1.3136
 Frc consts  --      0.5824                 0.6473                 0.6333
 IR Inten    --     14.8514                83.3576                 2.5637

                     25                     26                     27
                      A                      A                      A
 Frequencies --    920.8621               934.7392               943.4441
 Red. masses --      3.5039                 3.8900                 1.3877
 Frc consts  --      1.7506                 2.0025                 0.7278
 IR Inten    --      6.0461                12.2644                14.1277

                     28                     29                     30
                      A                      A                      A
 Frequencies --    952.2678               990.9856              1064.4061
 Red. masses --      1.4093                 1.9888                 3.1757
 Frc consts  --      0.7529                 1.1507                 2.1198
 IR Inten    --      5.7090                78.5933                 5.9387

                     31                     32                     33
                      A                      A                      A
 Frequencies --   1083.7134              1098.4427              1162.0828
 Red. masses --      1.3574                 2.1788                 1.4229
 Frc consts  --      0.9393                 1.5489                 1.1321
 IR Inten    --      6.4184                14.0546                47.2145

                     34                     35                     36
                      A                      A                      A
 Frequencies --   1166.2498              1211.8081              1253.1622
 Red. masses --      1.3389                 1.4842                 3.3370
 Frc consts  --      1.0730                 1.2841                 3.0876
 IR Inten    --     11.4730                 3.2875               118.9245

                     37                     38                     39
                      A                      A                      A
 Frequencies --   1267.5186              1289.1664              1307.9607
 Red. masses --      2.3748                 3.0918                 1.9066
 Frc consts  --      2.2479                 3.0275                 1.9217
 IR Inten    --      5.1748                61.9841                10.7664

                     40                     41                     42
                      A                      A                      A
 Frequencies --   1342.4794              1380.8214              1392.9260
 Red. masses --      1.6121                 3.1104                 3.4837
 Frc consts  --      1.7118                 3.4942                 3.9824
 IR Inten    --     66.1481                53.8357                 0.3192

                     43                     44                     45
                      A                      A                      A
 Frequencies --   1429.6154              1478.5464              1521.9140
 Red. masses --      1.5225                 3.1875                 3.2086
 Frc consts  --      1.8334                 4.1056                 4.3786
 IR Inten    --      3.2707                 3.3146                30.1068

                     46                     47                     48
                      A                      A                      A
 Frequencies --   1527.2906              1554.8518              1576.5618
 Red. masses --      1.0800                 7.0985                 5.9510
 Frc consts  --      1.4843                10.1110                 8.7149
 IR Inten    --      6.2859                60.1509                30.0783

                     49                     50                     51
                      A                      A                      A
 Frequencies --   1683.4495              1699.0814              1772.9167
 Red. masses --      6.2289                 1.1039                10.4426
 Frc consts  --     10.4006                 1.8777                19.3390
 IR Inten    --     36.5123                32.0243               152.5092

                     52                     53                     54
                      A                      A                      A
 Frequencies --   3021.5690              3068.6669              3235.9494
 Red. masses --      1.0597                 1.1034                 1.0908
 Frc consts  --      5.7001                 6.1217                 6.7297
 IR Inten    --     46.0923                30.1646                 0.9433

                     55                     56                     57
                      A                      A                      A
 Frequencies --   3256.0023              3261.0958              3268.9020
 Red. masses --      1.0886                 1.0937                 1.0969
 Frc consts  --      6.7999                 6.8527                 6.9060
 IR Inten    --      4.3288                 9.4184                 2.6451

                     58                     59                     60
                      A                      A                      A
 Frequencies --   3289.8579              3474.1426              3558.4330
 Red. masses --      1.1003                 1.0497                 1.0932
 Frc consts  --      7.0162                 7.4648                 8.1557
 IR Inten    --      1.5807                 0.3632                 0.7003

 - Thermochemistry -
 -------------------
 Temperature   298.150 Kelvin.  Pressure   1.00000 Atm.
 Atom     1 has atomic number  6 and mass  12.00000

 Molecular mass:   175.07456 amu.
 Principal axes and moments of inertia in atomic units:
                           1         2         3
     Eigenvalues --   849.956273777.175844528.17452
           X            0.99975  -0.02218  -0.00084
           Y            0.02219   0.99975   0.00295
           Z            0.00078  -0.00297   1.00000
 This molecule is an asymmetric top.
 Rotational symmetry number  1.
 Warning -- assumption of classical behavior for rotation
           may cause significant error
 Rotational temperatures (Kelvin)      0.10190     0.02293     0.01913
 Rotational constants (GHZ):           2.12333     0.47780     0.39856
 Zero-point vibrational energy     456896.5 (Joules/Mol)
                                  109.20088 (Kcal/Mol)
 Warning -- explicit consideration of  14 degrees of freedom as
           vibrations may cause significant error
 Vibrational temperatures:     60.29   125.10   145.85   234.24   308.46
          (Kelvin)            347.10   387.59   425.63   507.32   589.34
                              624.08   743.70   798.51   869.58   913.77
                              931.54  1019.59  1059.25  1083.85  1111.18
                             1161.93  1168.59  1268.60  1301.46  1324.92
                             1344.88  1357.41  1370.10  1425.81  1531.44
                             1559.22  1580.41  1671.98  1677.97  1743.52
                             1803.02  1823.68  1854.82  1881.86  1931.53
                             1986.69  2004.11  2056.90  2127.30  2189.69
                             2197.43  2237.08  2268.32  2422.11  2444.60
                             2550.83  4347.36  4415.13  4655.81  4684.66
                             4691.99  4703.22  4733.37  4998.52  5119.79

 Zero-point correction=                           0.174023 (Hartree/Particle)
 Thermal correction to Energy=                    0.184631
 Thermal correction to Enthalpy=                  0.185576
 Thermal correction to Gibbs Free Energy=         0.136963
 Sum of electronic and zero-point Energies=           -587.687652
 Sum of electronic and thermal Energies=              -587.677043
 Sum of electronic and thermal Enthalpies=            -587.676099
 Sum of electronic and thermal Free Energies=         -587.724712

                     E (Thermal)             CV                S
                      KCal/Mol        Cal/Mol-Kelvin    Cal/Mol-Kelvin
 Total                  115.858             40.961            102.315
 Electronic               0.000              0.000              0.000
 Translational            0.889              2.981             41.387
 Rotational               0.889              2.981             31.053
 Vibrational            114.081             34.999             29.874
 Vibration     1          0.595              1.980              5.167
 Vibration     2          0.601              1.958              3.728
 Vibration     3          0.604              1.948              3.428
 Vibration     4          0.623              1.888              2.517
 Vibration     5          0.644              1.819              2.006
 Vibration     6          0.658              1.777              1.794
 Vibration     7          0.674              1.729              1.600
 Vibration     8          0.690              1.682              1.440
 Vibration     9          0.729              1.570              1.155
 Vibration    10          0.774              1.449              0.928
 Vibration    11          0.794              1.397              0.846
 Vibration    12          0.872              1.213              0.617
 Vibration    13          0.910              1.129              0.534
 Vibration    14          0.963              1.022              0.442

 Optimization completed.
    -- Stationary point found.
 Normal termination of Gaussian 16 at Mon Dec 14 13:11:58 2020.

 ----------------------------------------------------------------------
 # B3LYP/6-311++G(d,p) empiricaldispersion=gd3bj scf=xqc pop=npa geom=c
 heck
 ----------------------------------------------------------------------

 --------------------------------------
 CID_83827407_JID_3857_Energie_neutraal
 --------------------------------------
 Structure from the checkpoint file:  "JID_3857.chk"
 Charge =  0 Multiplicity = 1

 SCF Done:  E(RB3LYP) =  -588.026217874     A.U. after   15 cycles
 Normal termination of Gaussian 16 at Mon Dec 14 13:13:39 2020.

 ----------------------------------------------------------------------
 # B3LYP/6-311++G(d,p) empiricaldispersion=gd3bj scf=xqc pop=npa geom=c
 heck
 ----------------------------------------------------------------------

 ------------------------------------
 CID_83827407_JID_3857_Energie_kation
 ------------------------------------
 Structure from the checkpoint file:  "JID_3857.chk"
 Charge =  1 Multiplicity = 2

 SCF Done:  E(UB3LYP) =  -587.733451234     A.U. after   26 cycles
 Normal termination of Gaussian 16 at Mon Dec 14 13:17:18 2020.
 Gaussian 16:  ES64L-G16RevA.03 25-Dec-2016

 ----------------------------------------------------------------------
 # B3LYP/6-311++G(d,p) empiricaldispersion=gd3bj scf=xqc pop=npa geom=c
 heck
 ----------------------------------------------------------------------

 -----------------------------------
 CID_83827407_JID_3857_Energie_anion
 -----------------------------------
 Structure from the checkpoint file:  "JID_3857.chk"
 Charge = -1 Multiplicity = 2

                         Standard orientation:
 ---------------------------------------------------------------------
 Center     Atomic      Atomic             Coordinates (Angstroms)
 Number     Number       Type             X           Y           Z
 ---------------------------------------------------------------------
      1          6           0        0.477199   -1.176936   -0.176362
      2          6           0       -0.813766   -1.614112   -0.158884
      3          7           0       -1.831315   -0.703553   -0.051499
      4          6           0       -1.604960    0.675094    0.054178
      5          6           0       -2.879793    1.246659    0.147921
      6          6           0       -3.762509    0.163984    0.092135
      7          7           0       -3.138717   -1.023096   -0.028787
      8          6           0       -0.272434    1.126110    0.038998
      9          6           0        0.766600    0.222215   -0.079259
     10          6           0        2.153652    0.769799   -0.140379
     11          8           0        2.367739    1.965537    0.000774
     12          6           0        3.325541   -0.173830   -0.420352
     13          7           0        3.444830   -1.199286    0.623007
     14          1           0        1.285154   -1.894614   -0.210904
     15          1           0       -1.126697   -2.648267   -0.216755
     16          1           0       -3.111428    2.296708    0.242442
     17          1           0       -4.843600    0.180474    0.134026
     18          1           0       -0.051923    2.185050    0.110653
     19          1           0        3.138618   -0.685015   -1.374320
     20          1           0        4.208929    0.467881   -0.548383
     21          1           0        4.218756   -1.822049    0.399987
     22          1           0        3.679515   -0.756809    1.510045
 ---------------------------------------------------------------------

 SCF Done:  E(UB3LYP) =  -588.051504908     A.U. after   24 cycles

 The electronic state is 2-A.
 Alpha  occ. eigenvalues --  -18.92716 -14.25510 -14.18682 -14.18109 -10.07189
 Alpha  occ. eigenvalues --  -10.07161 -10.07103 -10.06398 -10.06129 -10.03668
 Alpha  occ. eigenvalues --  -10.02542 -10.02286 -10.01473  -0.91930  -0.86850
 Alpha  occ. eigenvalues --   -0.76573  -0.73717  -0.67347  -0.63628  -0.58868
 Alpha  occ. eigenvalues --   -0.56293  -0.50178  -0.48497  -0.46738  -0.40377
 Alpha  occ. eigenvalues --   -0.38399  -0.36710  -0.35224  -0.33553  -0.32727
 Alpha  occ. eigenvalues --   -0.31762  -0.30617  -0.29705  -0.28547  -0.27157
 Alpha  occ. eigenvalues --   -0.25495  -0.23793  -0.22942  -0.21866  -0.19275
 Alpha  occ. eigenvalues --   -0.16697  -0.16143  -0.13420  -0.11457  -0.08987
 Alpha  occ. eigenvalues --   -0.07534   0.03329
 Alpha virt. eigenvalues --    0.07647   0.09200   0.10514   0.10831   0.11362
 Alpha virt. eigenvalues --    0.11771   0.12076   0.13308   0.14323   0.14840
 Alpha virt. eigenvalues --    0.15131   0.16513   0.17006   0.17131   0.17438

  Beta  occ. eigenvalues --  -18.92199 -14.25230 -14.18606 -14.18050 -10.07270
  Beta  occ. eigenvalues --  -10.07048 -10.06862 -10.06424 -10.06160 -10.03694
  Beta  occ. eigenvalues --  -10.02439 -10.02184 -10.01097  -0.91594  -0.85917
  Beta  occ. eigenvalues --   -0.76446  -0.73511  -0.67029  -0.63355  -0.58505
  Beta  occ. eigenvalues --   -0.55959  -0.49880  -0.48104  -0.46538  -0.39968
  Beta  occ. eigenvalues --   -0.38243  -0.36571  -0.35061  -0.33303  -0.31920
  Beta  occ. eigenvalues --   -0.31572  -0.30437  -0.29484  -0.28249  -0.27061
  Beta  occ. eigenvalues --   -0.25088  -0.23501  -0.21720  -0.21161  -0.18274
  Beta  occ. eigenvalues --   -0.16018  -0.15342  -0.13269  -0.10779  -0.08523
  Beta  occ. eigenvalues --   -0.06232
  Beta virt. eigenvalues --    0.07528   0.09184   0.09786   0.10437   0.10760
  Beta virt. eigenvalues --    0.11345   0.11782   0.12542   0.13262   0.14322
  Beta virt. eigenvalues --    0.14960   0.15749   0.16831   0.17000   0.17265

 Mulliken charges and spin densities:
               1          2
     1  C   -0.827242  -0.013721
     2  C   -0.024357   0.079694
     3  N    0.272061   0.069385
     4  C   -0.307429  -0.063343
     5  C    0.189871   0.075259
     6  C   -0.347936  -0.024796
     7  N   -0.167735   0.058599
     8  C   -0.160393   0.304089
     9  C    1.076049   0.051583
    10  C   -0.750616   0.147761
    11  O   -0.387193   0.188836
    12  C   -0.449310  -0.051478
    13  N   -0.327662  -0.043995
    14  H    0.172955  -0.005737
    15  H    0.151499  -0.002069
    16  H    0.135292  -0.004343
    17  H    0.103956   0.000465
    18  H    0.177842  -0.022631
    19  H    0.089743   0.058845
    20  H    0.125926   0.018931
    21  H    0.065944   0.150345
    22  H    0.188733   0.028321
 Sum of Mulliken charges =  -1.00000   1.00000

 Dipole moment (field-independent basis, Debye):
    X=             -0.0098    Y=             -1.9164    Z=              0.0089  Tot=              1.9164
 Quadrupole moment (field-independent basis, Debye-Ang):
   XX=           -112.1844   YY=            -95.6561   ZZ=            -84.3278
   XY=            -13.7328   XZ=              0.1301   YZ=              0.9421

 Summary of Natural Population Analysis:

                                       Natural Population
                Natural  -----------------------------------------------
    Atom  No    Charge         Core      Valence    Rydberg      Total
 -----------------------------------------------------------------------
      C    1   -0.11967      0.99955     2.11243    0.00768     3.11967
      C    2    0.01357      0.99957     1.97606    0.01080     2.98643
      N    3   -0.05849      0.99960     2.54432    0.01456     3.55849
      C    4    0.05966      0.99956     1.93077    0.01001     2.94034
      C    5   -0.16022      0.99952     2.15143    0.00927     3.16022
      C    6   -0.02501      0.99965     2.01063    0.01474     3.02501
      N    7   -0.16665      0.99974     2.65509    0.01183     3.66665
      C    8   -0.01188      0.99949     2.00439    0.00800     3.01188
      C    9   -0.05205      0.99948     2.04213    0.01044     3.05205
      C   10    0.30152      0.99963     1.67742    0.02144     2.69848
      O   11   -0.25268      0.99988     3.24662    0.00618     4.25268
      C   12   -0.13212      0.99961     2.11895    0.01356     3.13212
      N   13   -0.41992      0.99977     2.90958    0.01057     3.91992
      H   14    0.11199      0.00000     0.38655    0.00146     0.38801
      H   15    0.09771      0.00000     0.40134    0.00095     0.40229
      H   16    0.10119      0.00000     0.39794    0.00086     0.39881
      H   17    0.08803      0.00000     0.41103    0.00094     0.41197
      H   18    0.10746      0.00000     0.39100    0.00154     0.39254
      H   19    0.09213      0.00000     0.40636    0.00152     0.40787
      H   20    0.08426      0.00000     0.41352    0.00222     0.41574
      H   21    0.16883      0.00000     0.32915    0.00202     0.33117
      H   22    0.17236      0.00000     0.32608    0.00156     0.32764
 =======================================================================
   * Total *    0.00000     12.99505    32.84278    0.16217    46.00000

 Normal termination of Gaussian 16 at Mon Dec 14 13:20:41 2020.
