 Gaussian 16, Revision A.03,

 -----------------------------------------------------------
 # opt freq B3LYP/6-31G(d) empiricaldispersion=gd3bj scf=xqc
 -----------------------------------------------------------

 ------------------------------
 CID_86132995_JID_3475_neutraal
 ------------------------------
 Symbolic Z-matrix:
 Charge =  0 Multiplicity = 1

 SCF Done:  E(RB3LYP) =  -542.085977657     A.U. after   15 cycles
 SCF Done:  E(RB3LYP) =  -542.101272444     A.U. after   13 cycles
 SCF Done:  E(RB3LYP) =  -542.103453385     A.U. after   12 cycles
 SCF Done:  E(RB3LYP) =  -542.103727555     A.U. after   11 cycles
 SCF Done:  E(RB3LYP) =  -542.103635090     A.U. after   12 cycles
 SCF Done:  E(RB3LYP) =  -542.103865227     A.U. after   11 cycles
 SCF Done:  E(RB3LYP) =  -542.103887599     A.U. after   10 cycles
 SCF Done:  E(RB3LYP) =  -542.103908025     A.U. after   11 cycles
 SCF Done:  E(RB3LYP) =  -542.103907420     A.U. after   11 cycles
 SCF Done:  E(RB3LYP) =  -542.103930186     A.U. after   10 cycles
 SCF Done:  E(RB3LYP) =  -542.104046048     A.U. after   12 cycles
 SCF Done:  E(RB3LYP) =  -542.104064848     A.U. after   11 cycles
 SCF Done:  E(RB3LYP) =  -542.104066010     A.U. after   10 cycles
 SCF Done:  E(RB3LYP) =  -542.104066050     A.U. after    8 cycles
 SCF Done:  E(RB3LYP) =  -542.104066048     A.U. after    7 cycles
 Optimization completed.
    -- Stationary point found.
 Normal termination of Gaussian 16 at Wed Dec  9 23:31:56 2020.

 --------------------------------------------------------------------
 #N Geom=AllCheck Guess=TCheck SCRF=Check GenChk RB3LYP/6-31G(d) Freq
 --------------------------------------------------------------------

 Structure from the checkpoint file:  "JID_3475.chk"
 ------------------------------
 CID_86132995_JID_3475_neutraal
 ------------------------------
 Charge =  0 Multiplicity = 1

 SCF Done:  E(RB3LYP) =  -542.104066048     A.U. after    1 cycles

  Exact polarizability: 134.686  -6.005 122.665   2.497  -1.265  96.750
 Approx polarizability: 205.327 -25.910 184.639  10.704  -5.813 150.872

                      1                      2                      3
                      A                      A                      A
 Frequencies --     38.3238                94.9780               117.4668
 Red. masses --      3.3332                 3.4457                 2.9650
 Frc consts  --      0.0029                 0.0183                 0.0241
 IR Inten    --      2.2051                 2.0286                 0.3004

                      4                      5                      6
                      A                      A                      A
 Frequencies --    201.6898               215.8394               239.6100
 Red. masses --      2.8943                 2.0961                 1.3048
 Frc consts  --      0.0694                 0.0575                 0.0441
 IR Inten    --      0.7361                 0.3019                 0.9243

                      7                      8                      9
                      A                      A                      A
 Frequencies --    251.0855               266.5026               320.2368
 Red. masses --      2.0010                 1.3004                 2.1719
 Frc consts  --      0.0743                 0.0544                 0.1312
 IR Inten    --      1.1530                 0.2178                 0.2228

                     10                     11                     12
                      A                      A                      A
 Frequencies --    334.0445               373.9146               401.6087
 Red. masses --      3.0831                 2.5525                 3.1744
 Frc consts  --      0.2027                 0.2103                 0.3017
 IR Inten    --      1.0058                 1.8255                 0.9437

                     13                     14                     15
                      A                      A                      A
 Frequencies --    409.4024               443.8514               457.5717
 Red. masses --      2.2721                 3.2148                 4.1744
 Frc consts  --      0.2244                 0.3732                 0.5150
 IR Inten    --      0.0756                 3.1313                 1.0004

                     16                     17                     18
                      A                      A                      A
 Frequencies --    511.4569               559.1016               600.7369
 Red. masses --      3.7339                 3.8368                 4.1627
 Frc consts  --      0.5755                 0.7066                 0.8851
 IR Inten    --      0.9156                 5.0668                16.2289

                     19                     20                     21
                      A                      A                      A
 Frequencies --    613.5547               651.6125               674.8698
 Red. masses --      3.0027                 1.3804                 3.0491
 Frc consts  --      0.6660                 0.3453                 0.8182
 IR Inten    --      1.1513                20.6298                15.8091

                     22                     23                     24
                      A                      A                      A
 Frequencies --    725.1646               761.8262               800.6382
 Red. masses --      3.5273                 3.1500                 2.7707
 Frc consts  --      1.0928                 1.0771                 1.0464
 IR Inten    --      9.7253                 1.4653                 2.0707

                     25                     26                     27
                      A                      A                      A
 Frequencies --    846.6324               858.8397               902.1530
 Red. masses --      4.0252                 2.1517                 2.6179
 Frc consts  --      1.6999                 0.9351                 1.2553
 IR Inten    --      5.6354                 4.0727                 3.6821

                     28                     29                     30
                      A                      A                      A
 Frequencies --    928.5156               939.7157               948.7953
 Red. masses --      2.0405                 1.5190                 1.6804
 Frc consts  --      1.0365                 0.7903                 0.8913
 IR Inten    --      2.3432                42.7543                 0.7069

                     31                     32                     33
                      A                      A                      A
 Frequencies --    968.0739               975.1232               990.9259
 Red. masses --      1.4341                 1.8481                 2.0020
 Frc consts  --      0.7919                 1.0354                 1.1582
 IR Inten    --      0.9547                 1.8665                 4.3772

                     34                     35                     36
                      A                      A                      A
 Frequencies --   1011.5555              1028.8254              1049.6481
 Red. masses --      1.3136                 2.2451                 1.5351
 Frc consts  --      0.7920                 1.4001                 0.9965
 IR Inten    --      1.2015                 1.5882                 3.1352

                     37                     38                     39
                      A                      A                      A
 Frequencies --   1076.4860              1100.3199              1139.6689
 Red. masses --      2.4465                 1.6075                 1.7122
 Frc consts  --      1.6703                 1.1467                 1.3103
 IR Inten    --      2.2047                 2.8962                 1.2589

                     40                     41                     42
                      A                      A                      A
 Frequencies --   1162.0743              1207.0931              1209.1863
 Red. masses --      2.5808                 1.6578                 1.3512
 Frc consts  --      2.0534                 1.4232                 1.1640
 IR Inten    --     37.5842                13.1672                 3.2260

                     43                     44                     45
                      A                      A                      A
 Frequencies --   1220.7338              1225.1463              1253.1708
 Red. masses --      1.4279                 1.9846                 2.1038
 Frc consts  --      1.2537                 1.7551                 1.9466
 IR Inten    --     15.7039                15.2451                15.1803

                     46                     47                     48
                      A                      A                      A
 Frequencies --   1273.4994              1281.8607              1302.1959
 Red. masses --      1.7534                 1.4053                 1.3169
 Frc consts  --      1.6754                 1.3605                 1.3157
 IR Inten    --      5.1185                 9.6639                 6.2383

                     49                     50                     51
                      A                      A                      A
 Frequencies --   1312.7320              1340.5843              1375.2507
 Red. masses --      2.0255                 1.3510                 1.4676
 Frc consts  --      2.0566                 1.4305                 1.6354
 IR Inten    --     10.0937                 0.1049                 0.2403

                     52                     53                     54
                      A                      A                      A
 Frequencies --   1409.0279              1429.7410              1433.1888
 Red. masses --      1.3823                 1.2225                 1.2976
 Frc consts  --      1.6169                 1.4724                 1.5703
 IR Inten    --      1.9080                 5.5504                 2.2811

                     55                     56                     57
                      A                      A                      A
 Frequencies --   1450.2385              1485.4294              1507.4941
 Red. masses --      1.2184                 1.0962                 1.0844
 Frc consts  --      1.5098                 1.4251                 1.4519
 IR Inten    --      2.0085                 8.1129                 4.1537

                     58                     59                     60
                      A                      A                      A
 Frequencies --   1507.6651              1509.4230              1520.1732
 Red. masses --      1.0591                 1.0936                 1.0516
 Frc consts  --      1.4184                 1.4680                 1.4318
 IR Inten    --      1.6896                 0.5328                 4.7583

                     61                     62                     63
                      A                      A                      A
 Frequencies --   1530.9231              1534.9439              1681.0641
 Red. masses --      1.0579                 1.0581                 5.6422
 Frc consts  --      1.4608                 1.4688                 9.3944
 IR Inten    --      4.6403                 8.7046                 8.0105

                     64                     65                     66
                      A                      A                      A
 Frequencies --   1719.2799              1847.8785              3029.0644
 Red. masses --      8.3047                12.3681                 1.0695
 Frc consts  --     14.4633                24.8828                 5.7818
 IR Inten    --      8.2341               204.2956                15.1386

                     67                     68                     69
                      A                      A                      A
 Frequencies --   3034.5582              3042.7958              3047.4406
 Red. masses --      1.0677                 1.0605                 1.0498
 Frc consts  --      5.7927                 5.7850                 5.7443
 IR Inten    --      9.4991                50.2742                33.9864

                     70                     71                     72
                      A                      A                      A
 Frequencies --   3047.6849              3053.7843              3072.2041
 Red. masses --      1.0648                 1.0417                 1.0971
 Frc consts  --      5.8274                 5.7234                 6.1011
 IR Inten    --     18.2770                25.1013                 6.8488

                     73                     74                     75
                      A                      A                      A
 Frequencies --   3077.8541              3103.8501              3113.0568
 Red. masses --      1.0985                 1.0888                 1.0838
 Frc consts  --      6.1315                 6.1803                 6.1882
 IR Inten    --     14.3587                47.7981                15.5712

                     76                     77                     78
                      A                      A                      A
 Frequencies --   3114.5305              3121.0978              3124.2647
 Red. masses --      1.1012                 1.0975                 1.1022
 Frc consts  --      6.2935                 6.2992                 6.3390
 IR Inten    --     10.8411                31.7992                22.6668

                     79                     80                     81
                      A                      A                      A
 Frequencies --   3130.7895              3138.0972              3153.0522
 Red. masses --      1.0952                 1.0911                 1.1000
 Frc consts  --      6.3247                 6.3309                 6.4434
 IR Inten    --     20.7982                59.8291                23.9750

 - Thermochemistry -
 -------------------
 Temperature   298.150 Kelvin.  Pressure   1.00000 Atm.
 Atom     1 has atomic number  6 and mass  12.00000

 Molecular mass:   176.12012 amu.
 Principal axes and moments of inertia in atomic units:
                           1         2         3
     Eigenvalues --  1625.319532108.438872955.84858
           X            0.99639   0.08473  -0.00504
           Y           -0.08466   0.99633   0.01244
           Z            0.00608  -0.01197   0.99991
 This molecule is an asymmetric top.
 Rotational symmetry number  1.
 Warning -- assumption of classical behavior for rotation
           may cause significant error
 Rotational temperatures (Kelvin)      0.05329     0.04108     0.02930
 Rotational constants (GHZ):           1.11039     0.85596     0.61057
 Zero-point vibrational energy     663715.0 (Joules/Mol)
                                  158.63170 (Kcal/Mol)
 Warning -- explicit consideration of  19 degrees of freedom as
           vibrations may cause significant error
 Vibrational temperatures:     55.14   136.65   169.01   290.19   310.54
          (Kelvin)            344.75   361.26   383.44   460.75   480.62
                              537.98   577.83   589.04   638.60   658.34
                              735.87   804.42   864.33   882.77   937.53
                              970.99  1043.35  1096.10  1151.94  1218.12
                             1235.68  1298.00  1335.93  1352.04  1365.10
                             1392.84  1402.98  1425.72  1455.40  1480.25
                             1510.21  1548.82  1583.11  1639.73  1671.97
                             1736.74  1739.75  1756.36  1762.71  1803.03
                             1832.28  1844.31  1873.57  1888.73  1928.80
                             1978.68  2027.28  2057.08  2062.04  2086.57
                             2137.20  2168.95  2169.19  2171.72  2187.19
                             2202.66  2208.44  2418.68  2473.66  2658.69
                             4358.15  4366.05  4377.90  4384.59  4384.94
                             4393.71  4420.22  4428.35  4465.75  4478.99
                             4481.11  4490.56  4495.12  4504.51  4515.02
                             4536.54

 Zero-point correction=                           0.252796 (Hartree/Particle)
 Thermal correction to Energy=                    0.264802
 Thermal correction to Enthalpy=                  0.265746
 Thermal correction to Gibbs Free Energy=         0.215350
 Sum of electronic and zero-point Energies=           -541.851270
 Sum of electronic and thermal Energies=              -541.839264
 Sum of electronic and thermal Enthalpies=            -541.838320
 Sum of electronic and thermal Free Energies=         -541.888716

                     E (Thermal)             CV                S
                      KCal/Mol        Cal/Mol-Kelvin    Cal/Mol-Kelvin
 Total                  166.166             48.557            106.068
 Electronic               0.000              0.000              0.000
 Translational            0.889              2.981             41.405
 Rotational               0.889              2.981             30.694
 Vibrational            164.388             42.596             33.968
 Vibration     1          0.594              1.982              5.344
 Vibration     2          0.603              1.953              3.555
 Vibration     3          0.608              1.935              3.142
 Vibration     4          0.639              1.837              2.118
 Vibration     5          0.645              1.817              1.994
 Vibration     6          0.657              1.780              1.806
 Vibration     7          0.663              1.761              1.723
 Vibration     8          0.672              1.735              1.619
 Vibration     9          0.706              1.635              1.309
 Vibration    10          0.716              1.608              1.240
 Vibration    11          0.745              1.526              1.064
 Vibration    12          0.767              1.467              0.957
 Vibration    13          0.774              1.450              0.929
 Vibration    14          0.803              1.374              0.815
 Vibration    15          0.816              1.344              0.773
 Vibration    16          0.867              1.225              0.630
 Vibration    17          0.915              1.120              0.526
 Vibration    18          0.959              1.030              0.448
 Vibration    19          0.973              1.003              0.427

 Optimization completed.
    -- Stationary point found.
 Normal termination of Gaussian 16 at Wed Dec  9 23:41:45 2020.

 ----------------------------------------------------------------------
 # B3LYP/6-311++G(d,p) empiricaldispersion=gd3bj scf=xqc pop=npa geom=c
 heck
 ----------------------------------------------------------------------

 --------------------------------------
 CID_86132995_JID_3475_Energie_neutraal
 --------------------------------------
 Structure from the checkpoint file:  "JID_3475.chk"
 Charge =  0 Multiplicity = 1

 SCF Done:  E(RB3LYP) =  -542.252321085     A.U. after   15 cycles
 Normal termination of Gaussian 16 at Wed Dec  9 23:46:08 2020.

 ----------------------------------------------------------------------
 # B3LYP/6-311++G(d,p) empiricaldispersion=gd3bj scf=xqc pop=npa geom=c
 heck
 ----------------------------------------------------------------------

 ------------------------------------
 CID_86132995_JID_3475_Energie_kation
 ------------------------------------
 Structure from the checkpoint file:  "JID_3475.chk"
 Charge =  1 Multiplicity = 2

 SCF Done:  E(UB3LYP) =  -541.957396167     A.U. after   24 cycles
 Normal termination of Gaussian 16 at Wed Dec  9 23:56:06 2020.
 Gaussian 16:  ES64L-G16RevA.03 25-Dec-2016

 ----------------------------------------------------------------------
 # B3LYP/6-311++G(d,p) empiricaldispersion=gd3bj scf=xqc pop=npa geom=c
 heck
 ----------------------------------------------------------------------

 -----------------------------------
 CID_86132995_JID_3475_Energie_anion
 -----------------------------------
 Structure from the checkpoint file:  "JID_3475.chk"
 Charge = -1 Multiplicity = 2

                         Standard orientation:
 ---------------------------------------------------------------------
 Center     Atomic      Atomic             Coordinates (Angstroms)
 Number     Number       Type             X           Y           Z
 ---------------------------------------------------------------------
      1          6           0        0.292571    1.094814    1.621406
      2          6           0        0.683358    1.223247    0.131377
      3          6           0        2.108118    0.628601   -0.037259
      4          6           0        1.863078   -0.868993   -0.166116
      5          8           0        2.569075   -1.762167    0.247385
      6          6           0        0.507678   -1.054391   -0.864837
      7          6           0       -0.120345    0.316184   -0.812068
      8          6           0       -1.385721    0.400512   -1.240870
      9          6           0       -2.482009    0.777155   -0.292389
     10          6           0       -2.527424   -0.457319    0.609045
     11          6           0       -1.686619   -1.514155    0.665169
     12          6           0       -0.453204   -2.035023   -0.102640
     13          6           0        0.612487    2.691383   -0.304533
     14          1           0        0.980795    1.693091    2.230973
     15          1           0        0.349284    0.058615    1.968026
     16          1           0       -0.723433    1.448626    1.808433
     17          1           0        2.553292    0.982765   -0.978718
     18          1           0        2.799777    0.860259    0.776603
     19          1           0        0.699296   -1.444600   -1.873097
     20          1           0       -1.699134   -0.381266   -1.937068
     21          1           0       -2.269841    1.673590    0.302435
     22          1           0       -3.458636    0.933245   -0.769335
     23          1           0       -3.369748   -0.486347    1.303395
     24          1           0       -1.978444   -2.256732    1.409824
     25          1           0       -0.835802   -2.775803   -0.818259
     26          1           0        0.151572   -2.616081    0.604445
     27          1           0        0.898584    2.801227   -1.355646
     28          1           0       -0.403765    3.084327   -0.193304
     29          1           0        1.281794    3.310323    0.304504
 ---------------------------------------------------------------------

 SCF Done:  E(UB3LYP) =  -542.244010833     A.U. after   33 cycles
 SCF Done:  E(UB3LYP) =  -542.244010834     a.u. after    1 cycles

 The electronic state is 2-A.
 Alpha  occ. eigenvalues --  -18.97359 -10.11010 -10.07347 -10.06350 -10.06120
 Alpha  occ. eigenvalues --  -10.06009 -10.05518 -10.05031 -10.04954 -10.04871
 Alpha  occ. eigenvalues --  -10.04815 -10.03456 -10.02530  -0.90818  -0.74192
 Alpha  occ. eigenvalues --   -0.69468  -0.65255  -0.62915  -0.59984  -0.57657
 Alpha  occ. eigenvalues --   -0.53986  -0.52342  -0.46883  -0.42226  -0.38974
 Alpha  occ. eigenvalues --   -0.38020  -0.36384  -0.35396  -0.34475  -0.33284
 Alpha  occ. eigenvalues --   -0.31459  -0.30997  -0.30246  -0.28509  -0.28239
 Alpha  occ. eigenvalues --   -0.27267  -0.26418  -0.25675  -0.25010  -0.24376
 Alpha  occ. eigenvalues --   -0.23678  -0.22390  -0.21199  -0.20359  -0.18769
 Alpha  occ. eigenvalues --   -0.13594  -0.11524  -0.09165   0.05085
 Alpha virt. eigenvalues --    0.07529   0.08096   0.08960   0.09414   0.09896
 Alpha virt. eigenvalues --    0.10486   0.10724   0.10988   0.11743   0.11906
 Alpha virt. eigenvalues --    0.12355   0.13116   0.13455   0.13653   0.14129

  Beta  occ. eigenvalues --  -18.97179 -10.10795 -10.07349 -10.06353 -10.06095
  Beta  occ. eigenvalues --  -10.05984 -10.05448 -10.05052 -10.04973 -10.04847
  Beta  occ. eigenvalues --  -10.04780 -10.03352 -10.02400  -0.90453  -0.73993
  Beta  occ. eigenvalues --   -0.69373  -0.65099  -0.62783  -0.59833  -0.57594
  Beta  occ. eigenvalues --   -0.53845  -0.52196  -0.46719  -0.41982  -0.38838
  Beta  occ. eigenvalues --   -0.37778  -0.36147  -0.35274  -0.34322  -0.33151
  Beta  occ. eigenvalues --   -0.31315  -0.30868  -0.30122  -0.28393  -0.28123
  Beta  occ. eigenvalues --   -0.27127  -0.26311  -0.25524  -0.24871  -0.24152
  Beta  occ. eigenvalues --   -0.23321  -0.22142  -0.21035  -0.20032  -0.18677
  Beta  occ. eigenvalues --   -0.13548  -0.11320  -0.08481
  Beta virt. eigenvalues --    0.07327   0.08245   0.08839   0.09207   0.09943
  Beta virt. eigenvalues --    0.10488   0.10685   0.11176   0.11345   0.11960
  Beta virt. eigenvalues --    0.12219   0.12986   0.13511   0.13746   0.13766

 Mulliken charges and spin densities:
               1          2
     1  C   -0.373079  -0.235384
     2  C   -0.609572   1.489672
     3  C   -0.252268  -0.375126
     4  C   -0.694701   0.340450
     5  O   -0.311873   0.063397
     6  C    0.325058  -0.150079
     7  C    0.353819  -0.088130
     8  C   -0.315633   0.229068
     9  C    0.750473  -1.171320
    10  C   -0.597273   0.354814
    11  C   -0.032917   0.016019
    12  C    1.311254  -1.938403
    13  C    0.149497  -0.767157
    14  H    0.067640   0.067085
    15  H    0.163063   0.037124
    16  H    0.081807   0.030899
    17  H   -0.072590   0.241184
    18  H    0.203084  -0.038080
    19  H   -0.470342   0.746735
    20  H   -0.530166   0.705470
    21  H    0.132109  -0.027007
    22  H   -0.265534   0.434531
    23  H    0.017240   0.111705
    24  H    0.033444   0.124248
    25  H   -0.274423   0.450429
    26  H    0.145471   0.020279
    27  H   -0.002469   0.167926
    28  H    0.019897   0.092759
    29  H    0.048984   0.066891
 Sum of Mulliken charges =  -1.00000   1.00000

 Dipole moment (field-independent basis, Debye):
    X=             -0.1828    Y=              3.6112    Z=              4.8937  Tot=              6.0846
 Quadrupole moment (field-independent basis, Debye-Ang):
   XX=           -119.6173   YY=           -115.8849   ZZ=           -110.9212
   XY=              5.5358   XZ=             -7.0788   YZ=             -2.2727

 Summary of Natural Population Analysis:

                                       Natural Population
                Natural  -----------------------------------------------
    Atom  No    Charge         Core      Valence    Rydberg      Total
 -----------------------------------------------------------------------
      C    1   -0.27779      0.99962     2.27237    0.00579     3.27779
      C    2   -0.05773      0.99954     2.04736    0.01083     3.05773
      C    3   -0.23326      0.99956     2.22414    0.00956     3.23326
      C    4    0.33170      0.99964     1.64559    0.02307     2.66830
      O    5   -0.28226      0.99987     3.27574    0.00665     4.28226
      C    6   -0.16785      0.99950     2.15514    0.01321     3.16785
      C    7    0.02040      0.99942     1.96475    0.01543     2.97960
      C    8   -0.07542      0.99936     2.06361    0.01245     3.07542
      C    9   -0.22205      0.99958     2.21187    0.01060     3.22205
      C   10   -0.09031      0.99951     2.08109    0.00970     3.09031
      C   11   -0.09250      0.99952     2.08337    0.00961     3.09250
      C   12   -0.19859      0.99958     2.18852    0.01049     3.19859
      C   13   -0.27393      0.99963     2.26844    0.00587     3.27393
      H   14    0.09277      0.00000     0.40635    0.00088     0.40723
      H   15    0.10411      0.00000     0.39508    0.00082     0.39589
      H   16    0.09830      0.00000     0.40074    0.00096     0.40170
      H   17    0.11149      0.00000     0.38722    0.00129     0.38851
      H   18    0.10418      0.00000     0.39488    0.00094     0.39582
      H   19    0.12565      0.00000     0.36978    0.00457     0.37435
      H   20    0.09236      0.00000     0.40544    0.00220     0.40764
      H   21    0.09939      0.00000     0.39914    0.00146     0.40061
      H   22    0.10034      0.00000     0.39840    0.00125     0.39966
      H   23    0.08923      0.00000     0.40975    0.00102     0.41077
      H   24    0.09244      0.00000     0.40658    0.00098     0.40756
      H   25    0.11065      0.00000     0.38717    0.00218     0.38935
      H   26    0.10626      0.00000     0.39242    0.00131     0.39374
      H   27    0.10262      0.00000     0.39638    0.00100     0.39738
      H   28    0.09806      0.00000     0.40101    0.00092     0.40194
      H   29    0.09174      0.00000     0.40743    0.00083     0.40826
 =======================================================================
   * Total *   -0.00000     12.99434    34.83979    0.16587    48.00000

 Normal termination of Gaussian 16 at Thu Dec 10 00:09:51 2020.
