 Gaussian 16, Revision A.03,

 -----------------------------------------------------------
 # opt freq B3LYP/6-31G(d) empiricaldispersion=gd3bj scf=xqc
 -----------------------------------------------------------

 ------------------------------
 CID_62033516_JID_8937_neutraal
 ------------------------------
 Symbolic Z-matrix:
 Charge =  0 Multiplicity = 1

 SCF Done:  E(RB3LYP) =  -1276.90271170     A.U. after   14 cycles
 SCF Done:  E(RB3LYP) =  -1276.91354069     A.U. after   13 cycles
 SCF Done:  E(RB3LYP) =  -1276.91649764     A.U. after   13 cycles
 SCF Done:  E(RB3LYP) =  -1276.91702585     A.U. after   13 cycles
 SCF Done:  E(RB3LYP) =  -1276.91804477     A.U. after   12 cycles
 SCF Done:  E(RB3LYP) =  -1276.91826581     A.U. after   12 cycles
 SCF Done:  E(RB3LYP) =  -1276.91871888     A.U. after   12 cycles
 SCF Done:  E(RB3LYP) =  -1276.91892069     A.U. after   12 cycles
 SCF Done:  E(RB3LYP) =  -1276.91905616     A.U. after   11 cycles
 SCF Done:  E(RB3LYP) =  -1276.91915043     A.U. after   11 cycles
 SCF Done:  E(RB3LYP) =  -1276.91946804     A.U. after    9 cycles
 SCF Done:  E(RB3LYP) =  -1276.91947246     A.U. after   10 cycles
 SCF Done:  E(RB3LYP) =  -1276.91947266     A.U. after    7 cycles
 SCF Done:  E(RB3LYP) =  -1276.91947283     A.U. after    8 cycles
 SCF Done:  E(RB3LYP) =  -1276.91947283     A.U. after    6 cycles
 Optimization completed.
    -- Stationary point found.
 Normal termination of Gaussian 16 at Fri Dec 11 23:16:08 2020.

 --------------------------------------------------------------------
 #N Geom=AllCheck Guess=TCheck SCRF=Check GenChk RB3LYP/6-31G(d) Freq
 --------------------------------------------------------------------

 Structure from the checkpoint file:  "JID_8937.chk"
 ------------------------------
 CID_62033516_JID_8937_neutraal
 ------------------------------
 Charge =  0 Multiplicity = 1

 SCF Done:  E(RB3LYP) =  -1276.91947283     A.U. after    1 cycles

  Exact polarizability: 161.388  -5.559 151.140  -5.562   0.187 124.318
 Approx polarizability: 200.057  -5.091 221.608  -8.066   8.778 204.452

                      1                      2                      3
                      A                      A                      A
 Frequencies --     21.5725                36.4967                44.3105
 Red. masses --      5.8216                 3.8607                 3.5909
 Frc consts  --      0.0016                 0.0030                 0.0042
 IR Inten    --      0.6886                 0.0812                 0.0631

                      4                      5                      6
                      A                      A                      A
 Frequencies --     52.2076                62.9453                73.9303
 Red. masses --      5.5005                 4.6003                 4.6841
 Frc consts  --      0.0088                 0.0107                 0.0151
 IR Inten    --      1.3002                 0.0251                 0.6047

                      7                      8                      9
                      A                      A                      A
 Frequencies --     98.2827               128.6770               168.0568
 Red. masses --      6.2620                 4.5739                 3.8816
 Frc consts  --      0.0356                 0.0446                 0.0646
 IR Inten    --      1.6886                 2.7731                 2.3766

                     10                     11                     12
                      A                      A                      A
 Frequencies --    185.3135               212.5589               230.7363
 Red. masses --      3.5160                 2.9534                 1.0778
 Frc consts  --      0.0711                 0.0786                 0.0338
 IR Inten    --      0.1275                 2.8374                 0.2179

                     13                     14                     15
                      A                      A                      A
 Frequencies --    253.7652               260.0779               267.9429
 Red. masses --      1.3399                 3.5378                 2.8704
 Frc consts  --      0.0508                 0.1410                 0.1214
 IR Inten    --      0.4182                 3.7811                 1.1383

                     16                     17                     18
                      A                      A                      A
 Frequencies --    280.2570               312.0944               318.5737
 Red. masses --      3.4803                 3.3713                 3.1647
 Frc consts  --      0.1611                 0.1935                 0.1892
 IR Inten    --      6.4348                 3.5767                 1.7016

                     19                     20                     21
                      A                      A                      A
 Frequencies --    355.6292               384.6853               390.0572
 Red. masses --      3.4693                 4.2667                 2.6678
 Frc consts  --      0.2585                 0.3720                 0.2391
 IR Inten    --      9.5365                 2.1641                 2.2856

                     22                     23                     24
                      A                      A                      A
 Frequencies --    404.2374               434.0349               440.0023
 Red. masses --      2.5494                 2.7595                 2.0440
 Frc consts  --      0.2455                 0.3063                 0.2331
 IR Inten    --      0.0771                 6.7163                 3.1207

                     25                     26                     27
                      A                      A                      A
 Frequencies --    467.3337               487.0213               504.1267
 Red. masses --      3.1472                 1.9445                 6.4090
 Frc consts  --      0.4050                 0.2717                 0.9597
 IR Inten    --      3.0707                 8.9266                22.2098

                     28                     29                     30
                      A                      A                      A
 Frequencies --    515.2870               559.6924               570.2697
 Red. masses --      3.0828                 5.4450                 4.0186
 Frc consts  --      0.4823                 1.0050                 0.7700
 IR Inten    --     17.9809                36.3185                34.6733

                     31                     32                     33
                      A                      A                      A
 Frequencies --    614.6952               626.9759               665.6119
 Red. masses --      2.4576                 2.3344                 2.9035
 Frc consts  --      0.5471                 0.5407                 0.7579
 IR Inten    --     30.7238                53.2460                84.0953

                     34                     35                     36
                      A                      A                      A
 Frequencies --    697.3746               776.3481               831.0931
 Red. masses --      3.0378                 4.4807                 2.8083
 Frc consts  --      0.8705                 1.5912                 1.1429
 IR Inten    --      4.7337               212.7821                 9.2881

                     37                     38                     39
                      A                      A                      A
 Frequencies --    853.7169               857.2901               858.8110
 Red. masses --      4.1603                 3.8012                 1.7004
 Frc consts  --      1.7865                 1.6460                 0.7389
 IR Inten    --      4.9154                 5.0065                 0.2223

                     40                     41                     42
                      A                      A                      A
 Frequencies --    907.3241               916.5524               933.9547
 Red. masses --      1.8496                 2.4235                 3.0212
 Frc consts  --      0.8971                 1.1995                 1.5527
 IR Inten    --     73.0959                 8.3392               236.1768

                     43                     44                     45
                      A                      A                      A
 Frequencies --    944.3780               954.9905               974.5806
 Red. masses --      1.3926                 1.5570                 2.0331
 Frc consts  --      0.7317                 0.8366                 1.1378
 IR Inten    --      4.9320                21.1030                12.7938

                     46                     47                     48
                      A                      A                      A
 Frequencies --    986.4586              1022.7654              1050.4513
 Red. masses --      1.5550                 2.3669                 2.3749
 Frc consts  --      0.8915                 1.4587                 1.5440
 IR Inten    --      7.0063                 7.0404                61.4763

                     49                     50                     51
                      A                      A                      A
 Frequencies --   1072.5709              1099.5373              1116.8249
 Red. masses --      2.3316                 1.7747                 9.7929
 Frc consts  --      1.5803                 1.2641                 7.1966
 IR Inten    --     33.9250                19.6299                90.9761

                     52                     53                     54
                      A                      A                      A
 Frequencies --   1148.3676              1151.0744              1161.4620
 Red. masses --      5.9158                 2.3586                 2.2205
 Frc consts  --      4.5965                 1.8413                 1.7649
 IR Inten    --     77.0998                17.9683                 3.8232

                     55                     56                     57
                      A                      A                      A
 Frequencies --   1177.8647              1181.0313              1207.3112
 Red. masses --      3.9861                 2.3582                 2.9591
 Frc consts  --      3.2583                 1.9380                 2.5413
 IR Inten    --     35.7732                71.9926                66.5885

                     58                     59                     60
                      A                      A                      A
 Frequencies --   1211.8632              1225.0023              1253.7267
 Red. masses --      1.8359                 2.5233                 1.0891
 Frc consts  --      1.5885                 2.2309                 1.0086
 IR Inten    --     16.1944                49.5186                 2.3929

                     61                     62                     63
                      A                      A                      A
 Frequencies --   1296.3346              1307.5021              1312.7847
 Red. masses --      1.2523                 1.4083                 4.7174
 Frc consts  --      1.2399                 1.4185                 4.7901
 IR Inten    --     50.8192                13.6684               158.6023

                     64                     65                     66
                      A                      A                      A
 Frequencies --   1337.2244              1355.3499              1357.2762
 Red. masses --      1.2486                 1.3416                 1.2781
 Frc consts  --      1.3155                 1.4520                 1.3873
 IR Inten    --     10.3633                15.1458                 6.5305

                     67                     68                     69
                      A                      A                      A
 Frequencies --   1369.6090              1373.5844              1377.7974
 Red. masses --      1.3236                 1.2609                 1.4048
 Frc consts  --      1.4628                 1.4016                 1.5712
 IR Inten    --      8.0046                 5.4737                22.2366

                     70                     71                     72
                      A                      A                      A
 Frequencies --   1390.8128              1400.5048              1408.3752
 Red. masses --      1.8276                 1.5596                 1.2606
 Frc consts  --      2.0829                 1.8023                 1.4732
 IR Inten    --     21.3293                10.3635                17.2910

                     73                     74                     75
                      A                      A                      A
 Frequencies --   1411.7304              1423.3541              1431.7194
 Red. masses --      1.3540                 1.3229                 1.3081
 Frc consts  --      1.5899                 1.5791                 1.5798
 IR Inten    --     10.8619                 5.1430                 0.7687

                     76                     77                     78
                      A                      A                      A
 Frequencies --   1441.4834              1452.1253              1488.4960
 Red. masses --      1.3356                 1.2438                 1.0725
 Frc consts  --      1.6351                 1.5453                 1.4000
 IR Inten    --      2.6681                 4.1558                11.4329

                     79                     80                     81
                      A                      A                      A
 Frequencies --   1500.4595              1511.2691              1516.2808
 Red. masses --      1.0838                 1.0892                 1.0819
 Frc consts  --      1.4376                 1.4657                 1.4656
 IR Inten    --      5.5554                 7.5909                 0.3880

                     82                     83                     84
                      A                      A                      A
 Frequencies --   1518.8590              1519.5620              1530.0571
 Red. masses --      1.0556                 1.0429                 1.1043
 Frc consts  --      1.4348                 1.4188                 1.5231
 IR Inten    --      1.6143                 0.1594                 2.7704

                     85                     86                     87
                      A                      A                      A
 Frequencies --   1533.2756              1537.3433              1543.4885
 Red. masses --      1.0511                 1.0718                 1.0582
 Frc consts  --      1.4559                 1.4925                 1.4853
 IR Inten    --      4.7791                 6.1616                17.6735

                     88                     89                     90
                      A                      A                      A
 Frequencies --   1857.4873              3009.2087              3016.6751
 Red. masses --     10.0388                 1.0697                 1.0827
 Frc consts  --     20.4072                 5.7070                 5.8053
 IR Inten    --    290.2685                31.6445                23.9647

                     91                     92                     93
                      A                      A                      A
 Frequencies --   3041.6781              3042.9444              3047.1457
 Red. masses --      1.0652                 1.0367                 1.0371
 Frc consts  --      5.8063                 5.6559                 5.6736
 IR Inten    --     21.1463                26.3299                20.2686

                     94                     95                     96
                      A                      A                      A
 Frequencies --   3065.6325              3069.8149              3080.9266
 Red. masses --      1.0677                 1.0695                 1.0647
 Frc consts  --      5.9121                 5.9383                 5.9542
 IR Inten    --      5.2465                42.4973                25.9741

                     97                     98                     99
                      A                      A                      A
 Frequencies --   3089.1999              3107.4354              3111.9419
 Red. masses --      1.0657                 1.1006                 1.1010
 Frc consts  --      5.9919                 6.2616                 6.2821
 IR Inten    --     12.5259                 9.9557                48.7233

                    100                    101                    102
                      A                      A                      A
 Frequencies --   3114.7466              3117.1973              3120.7584
 Red. masses --      1.0963                 1.1014                 1.1023
 Frc consts  --      6.2667                 6.3054                 6.3249
 IR Inten    --     43.5931                37.5422                35.6550

                    103                    104                    105
                      A                      A                      A
 Frequencies --   3127.9240              3150.9617              3151.9480
 Red. masses --      1.1012                 1.0972                 1.0983
 Frc consts  --      6.3477                 6.4182                 6.4290
 IR Inten    --     42.7602                 4.5093                 6.2246

                    106                    107                    108
                      A                      A                      A
 Frequencies --   3153.4030              3166.9687              3686.7730
 Red. masses --      1.0990                 1.0961                 1.0641
 Frc consts  --      6.4388                 6.4771                 8.5216
 IR Inten    --      0.5383                 2.1505                61.8438

 - Thermochemistry -
 -------------------
 Temperature   298.150 Kelvin.  Pressure   1.00000 Atm.
 Atom     1 has atomic number  6 and mass  12.00000

 Molecular mass:   280.10929 amu.
 Principal axes and moments of inertia in atomic units:
                           1         2         3
     Eigenvalues --  3437.598256150.838358124.60307
           X            0.99863  -0.05212  -0.00361
           Y            0.05207   0.99858  -0.01126
           Z            0.00419   0.01106   0.99993
 This molecule is an asymmetric top.
 Rotational symmetry number  1.
 Warning -- assumption of classical behavior for rotation
           may cause significant error
 Rotational temperatures (Kelvin)      0.02520     0.01408     0.01066
 Rotational constants (GHZ):           0.52500     0.29341     0.22213
 Zero-point vibrational energy     843233.4 (Joules/Mol)
                                  201.53762 (Kcal/Mol)
 Warning -- explicit consideration of  31 degrees of freedom as
           vibrations may cause significant error
 Vibrational temperatures:     31.04    52.51    63.75    75.12    90.56
          (Kelvin)            106.37   141.41   185.14   241.80   266.62
                              305.82   331.98   365.11   374.19   385.51
                              403.23   449.03   458.36   511.67   553.48
                              561.21   581.61   624.48   633.07   672.39
                              700.71   725.33   741.38   805.27   820.49
                              884.41   902.08   957.67  1003.37  1116.99
                             1195.76  1228.31  1233.45  1235.64  1305.44
                             1318.71  1343.75  1358.75  1374.02  1402.20
                             1419.29  1471.53  1511.37  1543.19  1581.99
                             1606.86  1652.24  1656.14  1671.08  1694.68
                             1699.24  1737.05  1743.60  1762.51  1803.83
                             1865.14  1881.20  1888.80  1923.97  1950.05
                             1952.82  1970.56  1976.28  1982.34  2001.07
                             2015.01  2026.34  2031.17  2047.89  2059.92
                             2073.97  2089.28  2141.61  2158.83  2174.38
                             2181.59  2185.30  2186.31  2201.41  2206.04
                             2211.89  2220.74  2672.51  4329.58  4340.32
                             4376.30  4378.12  4384.16  4410.76  4416.78
                             4432.77  4444.67  4470.91  4477.39  4481.43
                             4484.95  4490.08  4500.38  4533.53  4534.95
                             4537.04  4556.56  5304.44

 Zero-point correction=                           0.321171 (Hartree/Particle)
 Thermal correction to Energy=                    0.340189
 Thermal correction to Enthalpy=                  0.341133
 Thermal correction to Gibbs Free Energy=         0.272431
 Sum of electronic and zero-point Energies=          -1276.598302
 Sum of electronic and thermal Energies=             -1276.579284
 Sum of electronic and thermal Enthalpies=           -1276.578339
 Sum of electronic and thermal Free Energies=        -1276.647042

                     E (Thermal)             CV                S
                      KCal/Mol        Cal/Mol-Kelvin    Cal/Mol-Kelvin
 Total                  213.472             71.247            144.597
 Electronic               0.000              0.000              0.000
 Translational            0.889              2.981             42.788
 Rotational               0.889              2.981             33.507
 Vibrational            211.695             65.286             68.302
 Vibration     1          0.593              1.985              6.484
 Vibration     2          0.594              1.982              5.441
 Vibration     3          0.595              1.980              5.056
 Vibration     4          0.596              1.977              4.732
 Vibration     5          0.597              1.972              4.363
 Vibration     6          0.599              1.966              4.046
 Vibration     7          0.604              1.950              3.488
 Vibration     8          0.611              1.925              2.966
 Vibration     9          0.625              1.882              2.457
 Vibration    10          0.631              1.860              2.274
 Vibration    11          0.644              1.822              2.022
 Vibration    12          0.652              1.794              1.873
 Vibration    13          0.665              1.756              1.704
 Vibration    14          0.668              1.746              1.661
 Vibration    15          0.673              1.732              1.609
 Vibration    16          0.680              1.710              1.532
 Vibration    17          0.700              1.651              1.351
 Vibration    18          0.705              1.638              1.317
 Vibration    19          0.731              1.564              1.141
 Vibration    20          0.754              1.503              1.021
 Vibration    21          0.758              1.491              1.000
 Vibration    22          0.769              1.461              0.947
 Vibration    23          0.795              1.396              0.846
 Vibration    24          0.800              1.383              0.827
 Vibration    25          0.825              1.323              0.745
 Vibration    26          0.843              1.279              0.691
 Vibration    27          0.859              1.241              0.648
 Vibration    28          0.870              1.216              0.621
 Vibration    29          0.915              1.119              0.524
 Vibration    30          0.926              1.096              0.504
 Vibration    31          0.974              1.001              0.425

 Optimization completed.
    -- Stationary point found.
 Normal termination of Gaussian 16 at Fri Dec 11 23:33:57 2020.

 ----------------------------------------------------------------------
 # B3LYP/6-311++G(d,p) empiricaldispersion=gd3bj scf=xqc pop=npa geom=c
 heck
 ----------------------------------------------------------------------

 --------------------------------------
 CID_62033516_JID_8937_Energie_neutraal
 --------------------------------------
 Structure from the checkpoint file:  "JID_8937.chk"
 Charge =  0 Multiplicity = 1

 SCF Done:  E(RB3LYP) =  -1277.21161396     A.U. after   15 cycles
 Normal termination of Gaussian 16 at Fri Dec 11 23:41:30 2020.

 ----------------------------------------------------------------------
 # B3LYP/6-311++G(d,p) empiricaldispersion=gd3bj scf=xqc pop=npa geom=c
 heck
 ----------------------------------------------------------------------

 ------------------------------------
 CID_62033516_JID_8937_Energie_kation
 ------------------------------------
 Structure from the checkpoint file:  "JID_8937.chk"
 Charge =  1 Multiplicity = 2

 SCF Done:  E(UB3LYP) =  -1276.90033073     A.U. after   23 cycles
 Normal termination of Gaussian 16 at Fri Dec 11 23:57:13 2020.
 Gaussian 16:  ES64L-G16RevA.03 25-Dec-2016

 ----------------------------------------------------------------------
 # B3LYP/6-311++G(d,p) empiricaldispersion=gd3bj scf=xqc pop=npa geom=c
 heck
 ----------------------------------------------------------------------

 -----------------------------------
 CID_62033516_JID_8937_Energie_anion
 -----------------------------------
 Structure from the checkpoint file:  "JID_8937.chk"
 Charge = -1 Multiplicity = 2

                         Standard orientation:
 ---------------------------------------------------------------------
 Center     Atomic      Atomic             Coordinates (Angstroms)
 Number     Number       Type             X           Y           Z
 ---------------------------------------------------------------------
      1          6           0        1.895097   -2.652247    1.114206
      2          6           0        2.787676   -1.718080    0.292770
      3          6           0        3.793135   -2.505798   -0.556768
      4          6           0        1.969342   -0.809559   -0.635574
      5          7           0        0.942653   -0.037861    0.093493
      6          6           0        1.359879    0.967065    1.063061
      7          6           0        1.896353    2.292791    0.529391
      8          8           0        1.817775    3.333419    1.138121
      9          8           0        2.531560    2.169795   -0.656862
     10         16           0       -0.470394    0.361941   -0.725034
     11          8           0       -0.499889    1.780958   -1.091010
     12          8           0       -0.654991   -0.664584   -1.755735
     13          7           0       -1.555420    0.202028    0.552566
     14          6           0       -1.872666   -1.185277    0.947081
     15          6           0       -3.050793   -1.740869    0.146694
     16          8           0       -4.179928   -0.879358    0.241958
     17          6           0       -3.884508    0.413499   -0.273350
     18          6           0       -2.753018    1.065514    0.517520
     19          1           0        1.284859   -3.280890    0.452946
     20          1           0        1.216126   -2.090121    1.762597
     21          1           0        2.497960   -3.315186    1.744594
     22          1           0        3.365766   -1.090363    0.986669
     23          1           0        3.273280   -3.171338   -1.257005
     24          1           0        4.434403   -1.837053   -1.142085
     25          1           0        4.438386   -3.124078    0.076312
     26          1           0        2.633095   -0.137411   -1.189406
     27          1           0        1.434288   -1.426951   -1.358790
     28          1           0        0.517267    1.205969    1.714062
     29          1           0        2.138250    0.524084    1.692990
     30          1           0        2.801158    3.070956   -0.916158
     31          1           0       -2.127460   -1.155008    2.012971
     32          1           0       -0.980505   -1.802755    0.826888
     33          1           0       -2.754925   -1.869675   -0.903728
     34          1           0       -3.365003   -2.707872    0.550841
     35          1           0       -4.803882    1.000064   -0.186089
     36          1           0       -3.608623    0.346644   -1.337977
     37          1           0       -3.064334    1.200679    1.559918
     38          1           0       -2.473653    2.036002    0.106622
 ---------------------------------------------------------------------

 SCF Done:  E(UB3LYP) =  -1277.20263272     A.U. after   33 cycles
 SCF Done:  E(UB3LYP) =  -1277.20263272     a.u. after    1 cycles

 The electronic state is 2-A.
 Alpha  occ. eigenvalues --  -88.99524 -19.08298 -19.05152 -19.03799 -19.03622
 Alpha  occ. eigenvalues --  -19.02844 -14.26767 -14.26496 -10.22041 -10.14433
 Alpha  occ. eigenvalues --  -10.13788 -10.13600 -10.13013 -10.12740 -10.11182
 Alpha  occ. eigenvalues --  -10.08748 -10.06969 -10.06401  -8.05465  -6.01727
 Alpha  occ. eigenvalues --   -6.01700  -6.01657  -1.04813  -1.02405  -0.96783
 Alpha  occ. eigenvalues --   -0.93590  -0.93085  -0.86722  -0.85244  -0.71902
 Alpha  occ. eigenvalues --   -0.70447  -0.66892  -0.64755  -0.59854  -0.59490
 Alpha  occ. eigenvalues --   -0.58572  -0.55091  -0.53589  -0.49129  -0.47768
 Alpha  occ. eigenvalues --   -0.45456  -0.44372  -0.41936  -0.40919  -0.40804
 Alpha  occ. eigenvalues --   -0.40508  -0.40021  -0.39098  -0.38537  -0.37716
 Alpha  occ. eigenvalues --   -0.36821  -0.35531  -0.34941  -0.33809  -0.32822
 Alpha  occ. eigenvalues --   -0.32642  -0.31544  -0.30402  -0.29842  -0.29687
 Alpha  occ. eigenvalues --   -0.29188  -0.28723  -0.28069  -0.26892  -0.25678
 Alpha  occ. eigenvalues --   -0.25447  -0.24732  -0.23828  -0.23638  -0.23232
 Alpha  occ. eigenvalues --   -0.22791  -0.21314  -0.20669  -0.17060  -0.15779
 Alpha  occ. eigenvalues --    0.03923
 Alpha virt. eigenvalues --    0.05912   0.06402   0.07161   0.07269   0.07880
 Alpha virt. eigenvalues --    0.08635   0.08941   0.09433   0.09951   0.10303
 Alpha virt. eigenvalues --    0.10580   0.11158   0.11723   0.12159   0.12708

  Beta  occ. eigenvalues --  -88.99523 -19.08262 -19.05148 -19.03797 -19.03618
  Beta  occ. eigenvalues --  -19.02833 -14.26769 -14.26497 -10.22028 -10.14429
  Beta  occ. eigenvalues --  -10.13780 -10.13568 -10.12998 -10.12718 -10.11172
  Beta  occ. eigenvalues --  -10.08729 -10.06941 -10.06363  -8.05464  -6.01722
  Beta  occ. eigenvalues --   -6.01698  -6.01655  -1.04806  -1.02350  -0.96774
  Beta  occ. eigenvalues --   -0.93549  -0.93080  -0.86714  -0.85236  -0.71865
  Beta  occ. eigenvalues --   -0.70426  -0.66846  -0.64724  -0.59820  -0.59429
  Beta  occ. eigenvalues --   -0.58542  -0.55048  -0.53533  -0.49083  -0.47701
  Beta  occ. eigenvalues --   -0.45429  -0.44355  -0.41909  -0.40892  -0.40785
  Beta  occ. eigenvalues --   -0.40486  -0.39991  -0.39072  -0.38511  -0.37670
  Beta  occ. eigenvalues --   -0.36790  -0.35494  -0.34907  -0.33785  -0.32789
  Beta  occ. eigenvalues --   -0.32608  -0.31510  -0.30366  -0.29818  -0.29663
  Beta  occ. eigenvalues --   -0.29155  -0.28702  -0.28062  -0.26875  -0.25642
  Beta  occ. eigenvalues --   -0.25421  -0.24692  -0.23790  -0.23605  -0.23216
  Beta  occ. eigenvalues --   -0.22779  -0.21296  -0.20645  -0.17040  -0.15762
  Beta virt. eigenvalues --    0.06077   0.06634   0.07153   0.07612   0.07801
  Beta virt. eigenvalues --    0.08136   0.09104   0.09202   0.09843   0.10317
  Beta virt. eigenvalues --    0.10614   0.10704   0.11334   0.12122   0.12196

 Mulliken charges and spin densities:
               1          2
     1  C    0.925274  -1.437953
     2  C   -1.241270   1.931628
     3  C    0.836473  -1.570064
     4  C   -0.196778  -0.964016
     5  N    0.156888   0.101905
     6  C    0.186131  -0.753451
     7  C   -0.275482   0.238041
     8  O   -0.237501   0.023396
     9  O   -0.138185  -0.001498
    10  S    0.695660  -0.375707
    11  O   -0.069289   0.003215
    12  O   -0.154718   0.009301
    13  N   -0.331819   0.103480
    14  C    0.000309  -0.060154
    15  C   -0.008849  -0.586938
    16  O   -0.161005   0.029350
    17  C   -0.107716  -0.247716
    18  C   -0.074971  -0.070432
    19  H   -0.056079   0.200227
    20  H   -0.146462   0.290856
    21  H   -0.484163   0.657841
    22  H   -0.189184   0.344358
    23  H    0.071086   0.056357
    24  H   -0.314697   0.453677
    25  H   -0.194880   0.351572
    26  H    0.456407  -0.212730
    27  H    0.093304   0.122504
    28  H    0.047831   0.241737
    29  H   -0.386237   0.589537
    30  H   -0.193256   0.498480
    31  H   -0.487550   0.720671
    32  H    0.521378  -0.377957
    33  H    0.202125  -0.002985
    34  H   -0.113488   0.305944
    35  H    0.086353   0.109394
    36  H    0.180395  -0.012134
    37  H   -0.049530   0.237895
    38  H    0.153492   0.052369
 Sum of Mulliken charges =  -1.00000   1.00000

 Dipole moment (field-independent basis, Debye):
    X=             -5.5167    Y=              0.9528    Z=             -3.7224  Tot=              6.7230
 Quadrupole moment (field-independent basis, Debye-Ang):
   XX=           -189.0592   YY=           -173.9146   ZZ=           -162.4911
   XY=             -0.4110   XZ=             -0.7830   YZ=              6.5475

 Summary of Natural Population Analysis:

                                       Natural Population
                Natural  -----------------------------------------------
    Atom  No    Charge         Core      Valence    Rydberg      Total
 -----------------------------------------------------------------------
      C    1   -0.28604      0.99965     2.27947    0.00692     3.28604
      C    2   -0.11970      0.99961     2.10998    0.01011     3.11970
      C    3   -0.28218      0.99965     2.27611    0.00643     3.28218
      C    4   -0.08756      0.99956     2.07600    0.01200     3.08756
      N    5   -0.36969      0.99973     2.85431    0.01565     3.86969
      C    6   -0.14240      0.99954     2.12916    0.01370     3.14240
      C    7    0.40618      0.99973     1.56907    0.02502     2.59382
      O    8   -0.30286      0.99987     3.29695    0.00604     4.30286
      O    9   -0.34310      0.99987     3.33630    0.00693     4.34310
      S   10    1.17866      4.99918     1.71913    0.10303     6.82134
      O   11   -0.45850      0.99990     3.45330    0.00530     4.45850
      O   12   -0.46225      0.99990     3.45742    0.00493     4.46225
      N   13   -0.36996      0.99974     2.85423    0.01599     3.86996
      C   14   -0.10688      0.99960     2.09401    0.01327     3.10688
      C   15   -0.02186      0.99957     2.00993    0.01236     3.02186
      O   16   -0.29897      0.99989     3.29010    0.00898     4.29897
      C   17   -0.02032      0.99958     2.00877    0.01197     3.02032
      C   18   -0.10548      0.99960     2.09411    0.01176     3.10548
      H   19    0.09470      0.00000     0.40407    0.00122     0.40530
      H   20    0.10282      0.00000     0.39537    0.00181     0.39718
      H   21    0.10318      0.00000     0.39552    0.00130     0.39682
      H   22    0.09487      0.00000     0.40232    0.00281     0.40513
      H   23    0.09521      0.00000     0.40388    0.00091     0.40479
      H   24    0.10120      0.00000     0.39776    0.00105     0.39880
      H   25    0.10314      0.00000     0.39588    0.00098     0.39686
      H   26    0.10294      0.00000     0.39520    0.00186     0.39706
      H   27    0.11155      0.00000     0.38697    0.00148     0.38845
      H   28    0.12251      0.00000     0.37611    0.00138     0.37749
      H   29    0.12138      0.00000     0.37668    0.00194     0.37862
      H   30    0.24422      0.00000     0.24960    0.00618     0.25578
      H   31    0.10308      0.00000     0.39490    0.00202     0.39692
      H   32    0.11373      0.00000     0.38459    0.00169     0.38627
      H   33    0.08955      0.00000     0.40921    0.00124     0.41045
      H   34    0.09439      0.00000     0.40445    0.00116     0.40561
      H   35    0.09261      0.00000     0.40640    0.00099     0.40739
      H   36    0.08303      0.00000     0.41575    0.00121     0.41697
      H   37    0.10110      0.00000     0.39754    0.00137     0.39890
      H   38    0.11769      0.00000     0.38126    0.00104     0.38231
 =======================================================================
   * Total *   -0.00000     21.99416    52.68181    0.32403    75.00000

 Normal termination of Gaussian 16 at Sat Dec 12 00:19:44 2020.
