 Gaussian 16, Revision A.03,

 -----------------------------------------------------------
 # opt freq B3LYP/6-31G(d) empiricaldispersion=gd3bj scf=xqc
 -----------------------------------------------------------

 ------------------------------
 CID_85843335_JID_7989_neutraal
 ------------------------------
 Symbolic Z-matrix:
 Charge =  0 Multiplicity = 1

 SCF Done:  E(RB3LYP) =  -659.945488676     A.U. after   13 cycles
 SCF Done:  E(RB3LYP) =  -659.946808862     A.U. after   11 cycles
 SCF Done:  E(RB3LYP) =  -659.946865193     A.U. after   11 cycles
 SCF Done:  E(RB3LYP) =  -659.946950799     A.U. after   11 cycles
 SCF Done:  E(RB3LYP) =  -659.946963864     A.U. after   10 cycles
 SCF Done:  E(RB3LYP) =  -659.946983571     A.U. after   11 cycles
 SCF Done:  E(RB3LYP) =  -659.946991178     A.U. after   10 cycles
 SCF Done:  E(RB3LYP) =  -659.947000099     A.U. after   10 cycles
 SCF Done:  E(RB3LYP) =  -659.946999315     A.U. after    9 cycles
 SCF Done:  E(RB3LYP) =  -659.947002348     A.U. after   10 cycles
 SCF Done:  E(RB3LYP) =  -659.947002607     A.U. after    8 cycles
 SCF Done:  E(RB3LYP) =  -659.947002672     A.U. after    8 cycles
 SCF Done:  E(RB3LYP) =  -659.947002745     A.U. after    7 cycles
 SCF Done:  E(RB3LYP) =  -659.947002869     A.U. after    7 cycles
 SCF Done:  E(RB3LYP) =  -659.947002915     A.U. after    6 cycles
 Optimization completed.
    -- Stationary point found.
 Normal termination of Gaussian 16 at Fri Dec 11 13:35:39 2020.

 --------------------------------------------------------------------
 #N Geom=AllCheck Guess=TCheck SCRF=Check GenChk RB3LYP/6-31G(d) Freq
 --------------------------------------------------------------------

 Structure from the checkpoint file:  "JID_7989.chk"
 ------------------------------
 CID_85843335_JID_7989_neutraal
 ------------------------------
 Charge =  0 Multiplicity = 1

 SCF Done:  E(RB3LYP) =  -659.947002915     A.U. after    1 cycles

  Exact polarizability: 225.075   9.250 151.559  22.482  -9.201 129.164
 Approx polarizability: 308.206  16.056 248.486  39.782 -23.117 213.193

                      1                      2                      3
                      A                      A                      A
 Frequencies --     12.8060                24.5501                28.0275
 Red. masses --      4.1175                 1.2548                 2.3480
 Frc consts  --      0.0004                 0.0004                 0.0011
 IR Inten    --      0.0052                 0.1393                 0.1744

                      4                      5                      6
                      A                      A                      A
 Frequencies --     38.2017                56.1252                67.6221
 Red. masses --      3.6681                 3.5910                 4.8575
 Frc consts  --      0.0032                 0.0067                 0.0131
 IR Inten    --      0.0315                 0.0454                 0.0399

                      7                      8                      9
                      A                      A                      A
 Frequencies --    151.5892               156.3985               212.1187
 Red. masses --      3.5177                 3.9194                 3.0361
 Frc consts  --      0.0476                 0.0565                 0.0805
 IR Inten    --      0.5348                 0.2630                 1.3996

                     10                     11                     12
                      A                      A                      A
 Frequencies --    234.2131               274.2764               299.3107
 Red. masses --      3.0491                 2.8321                 2.4603
 Frc consts  --      0.0985                 0.1255                 0.1299
 IR Inten    --      0.4677                 0.9753                 0.1411

                     13                     14                     15
                      A                      A                      A
 Frequencies --    360.7333               378.5791               412.8713
 Red. masses --      2.0849                 2.2548                 2.3094
 Frc consts  --      0.1599                 0.1904                 0.2319
 IR Inten    --      0.1213                 0.1288                 0.2075

                     16                     17                     18
                      A                      A                      A
 Frequencies --    418.2888               447.9664               463.0570
 Red. masses --      2.9635                 2.8446                 2.8393
 Frc consts  --      0.3055                 0.3363                 0.3587
 IR Inten    --      0.0188                 2.1342                 0.8890

                     19                     20                     21
                      A                      A                      A
 Frequencies --    498.1998               522.3812               533.1412
 Red. masses --      3.7151                 4.2290                 4.5629
 Frc consts  --      0.5433                 0.6799                 0.7641
 IR Inten    --      3.5303                 0.5437                 0.5263

                     22                     23                     24
                      A                      A                      A
 Frequencies --    583.1666               620.0594               638.4316
 Red. masses --      3.0904                 3.0910                 6.3136
 Frc consts  --      0.6192                 0.7002                 1.5162
 IR Inten    --      3.4386                 2.3556                 0.0598

                     25                     26                     27
                      A                      A                      A
 Frequencies --    713.8774               716.4310               729.0974
 Red. masses --      1.9318                 2.2328                 2.7222
 Frc consts  --      0.5800                 0.6752                 0.8526
 IR Inten    --     27.5339                 5.9382                 4.0346

                     28                     29                     30
                      A                      A                      A
 Frequencies --    757.4779               759.4238               795.6538
 Red. masses --      1.7001                 2.4401                 1.5481
 Frc consts  --      0.5747                 0.8292                 0.5774
 IR Inten    --     17.2065                13.4117                20.7320

                     31                     32                     33
                      A                      A                      A
 Frequencies --    819.0311               829.4913               860.3746
 Red. masses --      2.5314                 2.1820                 1.2495
 Frc consts  --      1.0005                 0.8846                 0.5449
 IR Inten    --      4.0136                 4.8211                 0.1391

                     34                     35                     36
                      A                      A                      A
 Frequencies --    900.7748               904.2596               912.4534
 Red. masses --      1.4392                 1.8037                 1.4280
 Frc consts  --      0.6880                 0.8690                 0.7005
 IR Inten    --      4.0398                 0.5098                 3.1620

                     37                     38                     39
                      A                      A                      A
 Frequencies --    924.3831               953.4004               964.0212
 Red. masses --      1.5968                 1.9643                 1.6199
 Frc consts  --      0.8039                 1.0520                 0.8870
 IR Inten    --      4.2972                 1.1651                 0.3167

                     40                     41                     42
                      A                      A                      A
 Frequencies --    967.4066               973.8971               992.6583
 Red. masses --      1.6160                 1.2857                 1.2456
 Frc consts  --      0.8911                 0.7185                 0.7232
 IR Inten    --      0.2229                 0.3030                 0.4740

                     43                     44                     45
                      A                      A                      A
 Frequencies --   1020.1518              1021.9547              1027.8319
 Red. masses --      3.4397                 6.0739                 1.8602
 Frc consts  --      2.1091                 3.7375                 1.1579
 IR Inten    --      0.1514                 0.1549                 0.4384

                     46                     47                     48
                      A                      A                      A
 Frequencies --   1032.4199              1061.5332              1063.9408
 Red. masses --      1.7435                 2.1168                 1.9349
 Frc consts  --      1.0949                 1.4054                 1.2904
 IR Inten    --      0.1691                 0.3998                10.7762

                     49                     50                     51
                      A                      A                      A
 Frequencies --   1076.0121              1110.3931              1118.4955
 Red. masses --      1.5247                 2.0159                 2.0765
 Frc consts  --      1.0401                 1.4644                 1.5306
 IR Inten    --      7.8632                 1.4736                 3.0183

                     52                     53                     54
                      A                      A                      A
 Frequencies --   1130.3552              1175.0595              1185.4693
 Red. masses --      1.5900                 1.1707                 1.3673
 Frc consts  --      1.1970                 0.9524                 1.1322
 IR Inten    --      2.5845                 0.6934                 1.5334

                     55                     56                     57
                      A                      A                      A
 Frequencies --   1193.0242              1200.9510              1210.1034
 Red. masses --      1.0971                 1.2915                 1.1585
 Frc consts  --      0.9200                 1.0975                 0.9995
 IR Inten    --      0.0942                 1.4764                 0.5590

                     58                     59                     60
                      A                      A                      A
 Frequencies --   1215.5751              1237.1581              1256.7293
 Red. masses --      1.1368                 2.3679                 1.3316
 Frc consts  --      0.9897                 2.1353                 1.2391
 IR Inten    --      0.2144                 0.2024                 0.3316

                     61                     62                     63
                      A                      A                      A
 Frequencies --   1281.7324              1329.9421              1342.7479
 Red. masses --      3.2744                 1.2170                 1.8446
 Frc consts  --      3.1694                 1.2682                 1.9595
 IR Inten    --      0.2482                 3.0521                 0.5118

                     64                     65                     66
                      A                      A                      A
 Frequencies --   1355.1590              1364.0644              1367.6047
 Red. masses --      2.0330                 2.5865                 2.0225
 Frc consts  --      2.1997                 2.8355                 2.2287
 IR Inten    --      1.4320                 0.3390                 0.0448

                     67                     68                     69
                      A                      A                      A
 Frequencies --   1379.6730              1384.1984              1406.5251
 Red. masses --      1.4986                 1.4208                 1.3466
 Frc consts  --      1.6807                 1.6039                 1.5696
 IR Inten    --      5.8407                 4.7582                14.9642

                     70                     71                     72
                      A                      A                      A
 Frequencies --   1419.4378              1442.2444              1482.2382
 Red. masses --      1.4560                 1.2483                 2.2449
 Frc consts  --      1.7284                 1.5299                 2.9059
 IR Inten    --      1.7588                 0.0684                 2.8476

                     73                     74                     75
                      A                      A                      A
 Frequencies --   1502.3390              1511.0916              1518.1023
 Red. masses --      2.0710                 1.1092                 1.0524
 Frc consts  --      2.7540                 1.4922                 1.4291
 IR Inten    --      5.5499                 1.4807                 4.6727

                     76                     77                     78
                      A                      A                      A
 Frequencies --   1519.6365              1520.6923              1525.5079
 Red. masses --      1.1056                 1.1049                 1.2583
 Frc consts  --      1.5042                 1.5054                 1.7252
 IR Inten    --      9.1133                 9.6494                 4.3763

                     79                     80                     81
                      A                      A                      A
 Frequencies --   1532.7053              1545.2745              1549.1964
 Red. masses --      1.1349                 2.0448                 2.1988
 Frc consts  --      1.5708                 2.8768                 3.1092
 IR Inten    --      5.9960                15.8924                 9.2519

                     82                     83                     84
                      A                      A                      A
 Frequencies --   1646.4083              1650.5992              1668.7521
 Red. masses --      5.4920                 5.3560                 5.6302
 Frc consts  --      8.7711                 8.5975                 9.2376
 IR Inten    --      1.0813                 5.0295                 7.8834

                     85                     86                     87
                      A                      A                      A
 Frequencies --   1670.1213              3037.6045              3041.0956
 Red. masses --      5.7883                 1.0642                 1.0408
 Frc consts  --      9.5126                 5.7853                 5.6713
 IR Inten    --     17.3083                 0.4262                27.0134

                     88                     89                     90
                      A                      A                      A
 Frequencies --   3042.0151              3044.3549              3052.5576
 Red. masses --      1.0647                 1.0636                 1.0628
 Frc consts  --      5.8050                 5.8080                 5.8350
 IR Inten    --     24.8056                62.9691                13.5876

                     91                     92                     93
                      A                      A                      A
 Frequencies --   3076.2333              3085.0077              3096.1326
 Red. masses --      1.1012                 1.0977                 1.1005
 Frc consts  --      6.1400                 6.1554                 6.2153
 IR Inten    --      1.8444                23.8189                97.7219

                     94                     95                     96
                      A                      A                      A
 Frequencies --   3097.4848              3099.1241              3124.9629
 Red. masses --      1.0961                 1.0968                 1.1024
 Frc consts  --      6.1962                 6.2069                 6.3430
 IR Inten    --     22.9958                30.4201                18.0162

                     97                     98                     99
                      A                      A                      A
 Frequencies --   3164.2732              3173.2441              3173.5382
 Red. masses --      1.0893                 1.0856                 1.0854
 Frc consts  --      6.4258                 6.4405                 6.4408
 IR Inten    --     27.0334                11.1691                 0.5172

                    100                    101                    102
                      A                      A                      A
 Frequencies --   3175.6702              3182.0626              3187.7215
 Red. masses --      1.0870                 1.0904                 1.0897
 Frc consts  --      6.4590                 6.5049                 6.5243
 IR Inten    --      7.4399                28.2895                10.4043

                    103                    104                    105
                      A                      A                      A
 Frequencies --   3196.1208              3200.0383              3208.8052
 Red. masses --      1.0938                 1.0963                 1.0979
 Frc consts  --      6.5834                 6.6146                 6.6603
 IR Inten    --     45.8085                30.0587                23.6969

 - Thermochemistry -
 -------------------
 Temperature   298.150 Kelvin.  Pressure   1.00000 Atm.
 Atom     1 has atomic number  6 and mass  12.00000

 Molecular mass:   224.15650 amu.
 Principal axes and moments of inertia in atomic units:
                           1         2         3
     Eigenvalues --  1610.744288883.671629385.45554
           X            0.99996   0.00879   0.00345
           Y           -0.00877   0.99994  -0.00716
           Z           -0.00351   0.00713   0.99997
 This molecule is an asymmetric top.
 Rotational symmetry number  1.
 Warning -- assumption of classical behavior for rotation
           may cause significant error
 Rotational temperatures (Kelvin)      0.05377     0.00975     0.00923
 Rotational constants (GHZ):           1.12044     0.20315     0.19229
 Zero-point vibrational energy     853041.6 (Joules/Mol)
                                  203.88185 (Kcal/Mol)
 Warning -- explicit consideration of  23 degrees of freedom as
           vibrations may cause significant error
 Vibrational temperatures:     18.42    35.32    40.33    54.96    80.75
          (Kelvin)             97.29   218.10   225.02   305.19   336.98
                              394.62   430.64   519.01   544.69   594.03
                              601.82   644.52   666.24   716.80   751.59
                              767.07   839.05   892.13   918.56  1027.11
                             1030.78  1049.01  1089.84  1092.64  1144.77
                             1178.40  1193.45  1237.89  1296.01  1301.03
                             1312.82  1329.98  1371.73  1387.01  1391.88
                             1401.22  1428.21  1467.77  1470.36  1478.82
                             1485.42  1527.31  1530.77  1548.14  1597.61
                             1609.27  1626.33  1690.65  1705.63  1716.50
                             1727.90  1741.07  1748.94  1779.99  1808.15
                             1844.13  1913.49  1931.91  1949.77  1962.58
                             1967.68  1985.04  1991.55  2023.68  2042.25
                             2075.07  2132.61  2161.53  2174.12  2184.21
                             2186.42  2187.94  2194.87  2205.22  2223.31
                             2228.95  2368.81  2374.84  2400.96  2402.93
                             4370.44  4375.46  4376.78  4380.15  4391.95
                             4426.01  4438.64  4454.64  4456.59  4458.95
                             4496.12  4552.68  4565.59  4566.01  4569.08
                             4578.28  4586.42  4598.50  4604.14  4616.75

 Zero-point correction=                           0.324906 (Hartree/Particle)
 Thermal correction to Energy=                    0.340749
 Thermal correction to Enthalpy=                  0.341694
 Thermal correction to Gibbs Free Energy=         0.277745
 Sum of electronic and zero-point Energies=           -659.622097
 Sum of electronic and thermal Energies=              -659.606254
 Sum of electronic and thermal Enthalpies=            -659.605309
 Sum of electronic and thermal Free Energies=         -659.669258

                     E (Thermal)             CV                S
                      KCal/Mol        Cal/Mol-Kelvin    Cal/Mol-Kelvin
 Total                  213.823             61.067            134.591
 Electronic               0.000              0.000              0.000
 Translational            0.889              2.981             42.124
 Rotational               0.889              2.981             33.262
 Vibrational            212.046             55.105             59.205
 Vibration     1          0.593              1.987              7.520
 Vibration     2          0.593              1.985              6.227
 Vibration     3          0.593              1.984              5.964
 Vibration     4          0.594              1.982              5.350
 Vibration     5          0.596              1.975              4.589
 Vibration     6          0.598              1.970              4.221
 Vibration     7          0.619              1.901              2.652
 Vibration     8          0.620              1.896              2.593
 Vibration     9          0.643              1.822              2.025
 Vibration    10          0.654              1.789              1.846
 Vibration    11          0.677              1.721              1.569
 Vibration    12          0.692              1.675              1.421
 Vibration    13          0.735              1.553              1.119
 Vibration    14          0.749              1.516              1.045
 Vibration    15          0.777              1.442              0.917
 Vibration    16          0.781              1.431              0.898
 Vibration    17          0.807              1.365              0.802
 Vibration    18          0.821              1.332              0.757
 Vibration    19          0.854              1.254              0.663
 Vibration    20          0.877              1.200              0.604
 Vibration    21          0.888              1.177              0.580
 Vibration    22          0.940              1.068              0.480
 Vibration    23          0.980              0.990              0.416

 Optimization completed.
    -- Stationary point found.
 Normal termination of Gaussian 16 at Fri Dec 11 13:48:36 2020.

 ----------------------------------------------------------------------
 # B3LYP/6-311++G(d,p) empiricaldispersion=gd3bj scf=xqc pop=npa geom=c
 heck
 ----------------------------------------------------------------------

 --------------------------------------
 CID_85843335_JID_7989_Energie_neutraal
 --------------------------------------
 Structure from the checkpoint file:  "JID_7989.chk"
 Charge =  0 Multiplicity = 1

 SCF Done:  E(RB3LYP) =  -660.116196828     A.U. after   14 cycles
 Normal termination of Gaussian 16 at Fri Dec 11 13:55:01 2020.

 ----------------------------------------------------------------------
 # B3LYP/6-311++G(d,p) empiricaldispersion=gd3bj scf=xqc pop=npa geom=c
 heck
 ----------------------------------------------------------------------

 ------------------------------------
 CID_85843335_JID_7989_Energie_kation
 ------------------------------------
 Structure from the checkpoint file:  "JID_7989.chk"
 Charge =  1 Multiplicity = 2

 SCF Done:  E(UB3LYP) =  -659.821300448     A.U. after   29 cycles
 Normal termination of Gaussian 16 at Fri Dec 11 14:13:52 2020.
 Gaussian 16:  ES64L-G16RevA.03 25-Dec-2016

 ----------------------------------------------------------------------
 # B3LYP/6-311++G(d,p) empiricaldispersion=gd3bj scf=xqc pop=npa geom=c
 heck
 ----------------------------------------------------------------------

 -----------------------------------
 CID_85843335_JID_7989_Energie_anion
 -----------------------------------
 Structure from the checkpoint file:  "JID_7989.chk"
 Charge = -1 Multiplicity = 2

                         Standard orientation:
 ---------------------------------------------------------------------
 Center     Atomic      Atomic             Coordinates (Angstroms)
 Number     Number       Type             X           Y           Z
 ---------------------------------------------------------------------
      1          6           0        3.980814    2.468681    0.394237
      2          6           0        3.605371    1.043653    0.066378
      3          6           0        2.328225    0.738395   -0.421356
      4          6           0        1.936908   -0.572356   -0.706790
      5          6           0        2.863965   -1.603490   -0.501538
      6          6           0        4.140109   -1.320159   -0.022067
      7          6           0        4.509804   -0.004160    0.261322
      8          6           0        0.540050   -0.880329   -1.196931
      9          6           0       -0.309348   -1.657918   -0.171080
     10          6           0       -0.440081   -0.979224    1.197514
     11          6           0       -1.103950    0.412459    1.165957
     12          6           0       -2.479236    0.406866    0.537813
     13          6           0       -2.715927    1.022652   -0.696107
     14          6           0       -3.979172    0.986511   -1.289147
     15          6           0       -5.031760    0.330712   -0.651964
     16          6           0       -4.811436   -0.284857    0.582277
     17          6           0       -3.547786   -0.245554    1.168472
     18          1           0        3.541442    3.173165   -0.320410
     19          1           0        3.622042    2.754123    1.392023
     20          1           0        5.066500    2.608791    0.385077
     21          1           0        1.620181    1.548150   -0.588538
     22          1           0        2.583523   -2.629977   -0.725486
     23          1           0        4.854582   -2.125643    0.126041
     24          1           0        5.508827    0.211163    0.632595
     25          1           0        0.032149    0.053049   -1.462986
     26          1           0        0.593185   -1.473316   -2.119358
     27          1           0       -1.307025   -1.820051   -0.596799
     28          1           0        0.133936   -2.651255   -0.024245
     29          1           0       -1.023632   -1.635436    1.856141
     30          1           0        0.552489   -0.880247    1.653335
     31          1           0       -0.458866    1.114965    0.627318
     32          1           0       -1.169495    0.785691    2.196388
     33          1           0       -1.900999    1.540810   -1.196046
     34          1           0       -4.139465    1.472369   -2.247884
     35          1           0       -6.016436    0.301151   -1.109951
     36          1           0       -5.626748   -0.793539    1.089781
     37          1           0       -3.385487   -0.725248    2.131066
 ---------------------------------------------------------------------

 SCF Done:  E(UB3LYP) =  -660.102026993     A.U. after   33 cycles
 SCF Done:  E(UB3LYP) =  -660.102026993     a.u. after    1 cycles

 The electronic state is 2-A.
 Alpha  occ. eigenvalues --  -10.09358 -10.09063 -10.09039 -10.08523 -10.08502
 Alpha  occ. eigenvalues --  -10.08501 -10.08285 -10.08212 -10.08206 -10.08097
 Alpha  occ. eigenvalues --  -10.08012 -10.08000 -10.07955 -10.07849 -10.07825
 Alpha  occ. eigenvalues --  -10.07657 -10.07590  -0.77311  -0.76960  -0.72111
 Alpha  occ. eigenvalues --   -0.69255  -0.67483  -0.65680  -0.65247  -0.61598
 Alpha  occ. eigenvalues --   -0.59605  -0.56427  -0.51930  -0.51338  -0.50923
 Alpha  occ. eigenvalues --   -0.48623  -0.46026  -0.42232  -0.41652  -0.39117
 Alpha  occ. eigenvalues --   -0.38260  -0.36883  -0.36616  -0.35520  -0.35206
 Alpha  occ. eigenvalues --   -0.33244  -0.33141  -0.32991  -0.32067  -0.30791
 Alpha  occ. eigenvalues --   -0.30760  -0.29801  -0.29157  -0.27548  -0.27127
 Alpha  occ. eigenvalues --   -0.26539  -0.25618  -0.25397  -0.24527  -0.23992
 Alpha  occ. eigenvalues --   -0.23338  -0.22909  -0.16623  -0.16073  -0.15685
 Alpha  occ. eigenvalues --   -0.15164   0.04014
 Alpha virt. eigenvalues --    0.05400   0.06238   0.06481   0.06841   0.07180
 Alpha virt. eigenvalues --    0.07246   0.07427   0.07768   0.08234   0.08470
 Alpha virt. eigenvalues --    0.08769   0.09570   0.10146   0.10192   0.10523

  Beta  occ. eigenvalues --  -10.09360 -10.09055 -10.09036 -10.08511 -10.08492
  Beta  occ. eigenvalues --  -10.08491 -10.08265 -10.08201 -10.08192 -10.08090
  Beta  occ. eigenvalues --  -10.08002 -10.07991 -10.07936 -10.07834 -10.07794
  Beta  occ. eigenvalues --  -10.07650 -10.07582  -0.77292  -0.76932  -0.72090
  Beta  occ. eigenvalues --   -0.69229  -0.67456  -0.65648  -0.65219  -0.61568
  Beta  occ. eigenvalues --   -0.59559  -0.56399  -0.51894  -0.51301  -0.50890
  Beta  occ. eigenvalues --   -0.48587  -0.45994  -0.42179  -0.41609  -0.39099
  Beta  occ. eigenvalues --   -0.38235  -0.36847  -0.36578  -0.35494  -0.35171
  Beta  occ. eigenvalues --   -0.33212  -0.33111  -0.32964  -0.32034  -0.30765
  Beta  occ. eigenvalues --   -0.30733  -0.29778  -0.29127  -0.27514  -0.27104
  Beta  occ. eigenvalues --   -0.26513  -0.25588  -0.25366  -0.24502  -0.23975
  Beta  occ. eigenvalues --   -0.23318  -0.22888  -0.16595  -0.16045  -0.15638
  Beta  occ. eigenvalues --   -0.15136
  Beta virt. eigenvalues --    0.05832   0.06295   0.06730   0.06819   0.07227
  Beta virt. eigenvalues --    0.07315   0.07480   0.07592   0.07936   0.08632
  Beta virt. eigenvalues --    0.08907   0.09125   0.09799   0.10379   0.10435

 Mulliken charges and spin densities:
               1          2
     1  C    1.751364  -2.304831
     2  C   -0.757583   0.990267
     3  C   -2.150179   1.744705
     4  C    0.085134   0.812147
     5  C    0.470126  -0.545028
     6  C    0.079504  -0.452651
     7  C    0.591189  -1.251682
     8  C    0.581847  -0.953865
     9  C   -0.250547  -0.081122
    10  C    0.082691  -0.426935
    11  C    1.485853  -1.934597
    12  C   -0.105066   1.117901
    13  C   -1.408860   0.934354
    14  C    0.116167  -0.555941
    15  C    1.312992  -1.612020
    16  C    0.277090  -0.618061
    17  C   -0.885898   0.832212
    18  H   -0.218613   0.370776
    19  H    0.004331   0.169230
    20  H   -0.237194   0.377900
    21  H    0.070872   0.051894
    22  H   -0.034300   0.180166
    23  H   -0.428577   0.600469
    24  H   -0.349696   0.494967
    25  H    0.042058   0.084771
    26  H   -0.043204   0.229323
    27  H    0.253038  -0.122228
    28  H    0.052730   0.096037
    29  H    0.062588   0.086406
    30  H    0.243280  -0.113587
    31  H   -0.059606   0.185716
    32  H   -0.102847   0.292494
    33  H   -0.173966   0.294343
    34  H   -0.368940   0.555329
    35  H   -0.277683   0.430325
    36  H   -0.562731   0.739881
    37  H   -0.147364   0.300939
 Sum of Mulliken charges =  -1.00000   1.00000

 Dipole moment (field-independent basis, Debye):
    X=              0.7227    Y=             -1.7133    Z=             -0.0457  Tot=              1.8600
 Quadrupole moment (field-independent basis, Debye-Ang):
   XX=           -231.5227   YY=           -145.2032   ZZ=           -139.9267
   XY=             -2.7018   XZ=             -2.5400   YZ=              1.0839

 Summary of Natural Population Analysis:

                                       Natural Population
                Natural  -----------------------------------------------
    Atom  No    Charge         Core      Valence    Rydberg      Total
 -----------------------------------------------------------------------
      C    1   -0.29089      0.99964     2.28624    0.00502     3.29089
      C    2   -0.01374      0.99952     2.00383    0.01040     3.01374
      C    3   -0.10206      0.99946     2.09368    0.00892     3.10206
      C    4   -0.00950      0.99951     1.99987    0.01011     3.00950
      C    5   -0.10733      0.99950     2.09872    0.00911     3.10733
      C    6   -0.09510      0.99957     2.08490    0.01063     3.09510
      C    7   -0.10593      0.99951     2.09671    0.00971     3.10593
      C    8   -0.19885      0.99959     2.19086    0.00839     3.19885
      C    9   -0.18662      0.99962     2.17974    0.00726     3.18662
      C   10   -0.18736      0.99962     2.18003    0.00770     3.18736
      C   11   -0.19941      0.99960     2.19113    0.00869     3.19941
      C   12   -0.01292      0.99951     2.00246    0.01095     3.01292
      C   13   -0.10235      0.99951     2.09345    0.00940     3.10235
      C   14   -0.09882      0.99956     2.08873    0.01053     3.09882
      C   15   -0.10507      0.99956     2.09565    0.00986     3.10507
      C   16   -0.09880      0.99956     2.08869    0.01054     3.09880
      C   17   -0.10201      0.99951     2.09251    0.00999     3.10201
      H   18    0.10380      0.00000     0.39502    0.00118     0.39620
      H   19    0.10547      0.00000     0.39329    0.00124     0.39453
      H   20    0.10257      0.00000     0.39624    0.00119     0.39743
      H   21    0.09806      0.00000     0.40004    0.00190     0.40194
      H   22    0.09882      0.00000     0.39968    0.00151     0.40118
      H   23    0.09990      0.00000     0.39915    0.00095     0.40010
      H   24    0.10011      0.00000     0.39871    0.00118     0.39989
      H   25    0.09992      0.00000     0.39808    0.00200     0.40008
      H   26    0.10338      0.00000     0.39557    0.00105     0.39662
      H   27    0.10167      0.00000     0.39721    0.00112     0.39833
      H   28    0.09625      0.00000     0.40267    0.00107     0.40375
      H   29    0.09651      0.00000     0.40238    0.00110     0.40349
      H   30    0.10203      0.00000     0.39679    0.00118     0.39797
      H   31    0.10010      0.00000     0.39790    0.00200     0.39990
      H   32    0.10434      0.00000     0.39457    0.00109     0.39566
      H   33    0.09971      0.00000     0.39854    0.00175     0.40029
      H   34    0.10118      0.00000     0.39776    0.00106     0.39882
      H   35    0.10144      0.00000     0.39729    0.00128     0.39856
      H   36    0.10122      0.00000     0.39751    0.00127     0.39878
      H   37    0.10028      0.00000     0.39857    0.00115     0.39972
 =======================================================================
   * Total *    0.00000     16.99234    43.82416    0.18350    61.00000

 Normal termination of Gaussian 16 at Fri Dec 11 14:35:39 2020.
