 Gaussian 16, Revision A.03,

 -----------------------------------------------------------
 # opt freq B3LYP/6-31G(d) empiricaldispersion=gd3bj scf=xqc
 -----------------------------------------------------------

 ------------------------------
 CID_66102648_JID_7052_neutraal
 ------------------------------
 Symbolic Z-matrix:
 Charge =  0 Multiplicity = 1

 SCF Done:  E(RB3LYP) =  -1111.45081321     A.U. after   14 cycles
 SCF Done:  E(RB3LYP) =  -1111.45824406     A.U. after   13 cycles
 SCF Done:  E(RB3LYP) =  -1111.45791271     A.U. after   14 cycles
 SCF Done:  E(RB3LYP) =  -1111.45755333     A.U. after   13 cycles
 SCF Done:  E(RB3LYP) =  -1111.44976575     A.U. after   13 cycles
 SCF Done:  E(RB3LYP) =  -1111.45829525     A.U. after   10 cycles
 SCF Done:  E(RB3LYP) =  -1111.46190774     A.U. after   12 cycles
 SCF Done:  E(RB3LYP) =  -1111.46158791     A.U. after   14 cycles
 SCF Done:  E(RB3LYP) =  -1111.46260129     A.U. after   12 cycles
 SCF Done:  E(RB3LYP) =  -1111.46358520     A.U. after   11 cycles
 SCF Done:  E(RB3LYP) =  -1111.46426681     A.U. after   10 cycles
 SCF Done:  E(RB3LYP) =  -1111.46427030     A.U. after    8 cycles
 SCF Done:  E(RB3LYP) =  -1111.46427357     A.U. after    9 cycles
 SCF Done:  E(RB3LYP) =  -1111.46427583     A.U. after    9 cycles
 SCF Done:  E(RB3LYP) =  -1111.46427629     A.U. after    7 cycles
 Optimization completed.
    -- Stationary point found.
 Normal termination of Gaussian 16 at Mon Dec 14 13:29:35 2020.

 --------------------------------------------------------------------
 #N Geom=AllCheck Guess=TCheck SCRF=Check GenChk RB3LYP/6-31G(d) Freq
 --------------------------------------------------------------------

 Structure from the checkpoint file:  "JID_7052.chk"
 ------------------------------
 CID_66102648_JID_7052_neutraal
 ------------------------------
 Charge =  0 Multiplicity = 1

 SCF Done:  E(RB3LYP) =  -1111.46427629     A.U. after    1 cycles

  Exact polarizability: 166.674 -11.998 165.821  -8.431 -10.985 157.082
 Approx polarizability: 243.771 -21.153 248.260 -23.555 -31.189 257.464

                      1                      2                      3
                      A                      A                      A
 Frequencies --     34.0509                38.7673                56.2190
 Red. masses --      4.7800                 4.5320                 4.1166
 Frc consts  --      0.0033                 0.0040                 0.0077
 IR Inten    --      0.2965                 0.4806                 1.1401

                      4                      5                      6
                      A                      A                      A
 Frequencies --     88.4035                93.9166               109.3189
 Red. masses --      4.3142                 3.4688                 3.9671
 Frc consts  --      0.0199                 0.0180                 0.0279
 IR Inten    --      0.5302                 2.3827                 3.0335

                      7                      8                      9
                      A                      A                      A
 Frequencies --    133.1226               150.1713               152.0987
 Red. masses --      3.5379                 3.1608                 3.8310
 Frc consts  --      0.0369                 0.0420                 0.0522
 IR Inten    --      0.8640                 2.1062                 3.5045

                     10                     11                     12
                      A                      A                      A
 Frequencies --    190.6535               215.6022               232.5333
 Red. masses --      2.8401                 2.7160                 3.2347
 Frc consts  --      0.0608                 0.0744                 0.1031
 IR Inten    --      1.2313                 4.1776                 0.5034

                     13                     14                     15
                      A                      A                      A
 Frequencies --    243.8892               256.9965               275.7459
 Red. masses --      2.8136                 1.9381                 2.4587
 Frc consts  --      0.0986                 0.0754                 0.1101
 IR Inten    --     14.6456                 3.7769                 0.3554

                     16                     17                     18
                      A                      A                      A
 Frequencies --    284.4240               300.6797               312.6025
 Red. masses --      1.6838                 1.4025                 3.0741
 Frc consts  --      0.0803                 0.0747                 0.1770
 IR Inten    --      1.7386                10.7955                 8.2539

                     19                     20                     21
                      A                      A                      A
 Frequencies --    324.6175               333.5101               353.2412
 Red. masses --      1.3238                 1.4414                 3.0636
 Frc consts  --      0.0822                 0.0945                 0.2252
 IR Inten    --     73.7267                67.4267                13.4414

                     22                     23                     24
                      A                      A                      A
 Frequencies --    374.5295               415.9764               464.5555
 Red. masses --      1.8264                 2.0985                 4.3704
 Frc consts  --      0.1509                 0.2139                 0.5557
 IR Inten    --     56.0463                 9.5337                 1.2559

                     25                     26                     27
                      A                      A                      A
 Frequencies --    485.2064               516.4978               563.7033
 Red. masses --      5.0292                 4.0636                 4.3657
 Frc consts  --      0.6976                 0.6387                 0.8173
 IR Inten    --      1.7419                 5.9074                 3.0902

                     28                     29                     30
                      A                      A                      A
 Frequencies --    581.3475               595.5343               625.5219
 Red. masses --      3.3033                 4.8709                 4.5038
 Frc consts  --      0.6578                 1.0178                 1.0383
 IR Inten    --      6.6179                 6.6252                12.4825

                     31                     32                     33
                      A                      A                      A
 Frequencies --    712.8453               750.0395               768.7318
 Red. masses --      3.9891                 3.6936                 2.6255
 Frc consts  --      1.1943                 1.2243                 0.9141
 IR Inten    --     11.3118                 1.4431                 1.7699

                     34                     35                     36
                      A                      A                      A
 Frequencies --    778.7827               779.8452               810.3344
 Red. masses --      1.5475                 3.5895                 3.2400
 Frc consts  --      0.5530                 1.2862                 1.2535
 IR Inten    --     59.1361                 1.5368                 0.2222

                     37                     38                     39
                      A                      A                      A
 Frequencies --    825.6976               862.3315               869.2526
 Red. masses --      4.5997                 1.5737                 1.4896
 Frc consts  --      1.8476                 0.6895                 0.6632
 IR Inten    --      3.1233                 5.7365                 2.2994

                     40                     41                     42
                      A                      A                      A
 Frequencies --    900.4826               925.9395               949.4576
 Red. masses --      1.3374                 1.9259                 2.1934
 Frc consts  --      0.6389                 0.9729                 1.1650
 IR Inten    --     73.5705                19.1412                 7.9789

                     43                     44                     45
                      A                      A                      A
 Frequencies --    958.8868               962.4940              1018.2386
 Red. masses --      1.4405                 1.6058                 1.2611
 Frc consts  --      0.7803                 0.8765                 0.7704
 IR Inten    --      1.6972                 0.8668                 2.1307

                     46                     47                     48
                      A                      A                      A
 Frequencies --   1021.5236              1037.6289              1073.1540
 Red. masses --      2.0758                 1.8778                 4.2960
 Frc consts  --      1.2762                 1.1912                 2.9150
 IR Inten    --     31.2994                28.5088                34.7294

                     49                     50                     51
                      A                      A                      A
 Frequencies --   1088.4249              1089.7463              1119.2079
 Red. masses --      2.5493                 1.5181                 2.6816
 Frc consts  --      1.7794                 1.0622                 1.9791
 IR Inten    --     19.0399                 4.2146                11.2247

                     52                     53                     54
                      A                      A                      A
 Frequencies --   1126.4364              1137.4343              1146.7598
 Red. masses --      2.3826                 1.5334                 1.7648
 Frc consts  --      1.7812                 1.1689                 1.3674
 IR Inten    --     32.0742                12.7934                27.3982

                     55                     56                     57
                      A                      A                      A
 Frequencies --   1170.7024              1186.7523              1199.0454
 Red. masses --      1.2734                 1.2712                 1.0989
 Frc consts  --      1.0283                 1.0548                 0.9308
 IR Inten    --      9.0430                 0.6267                 3.5736

                     58                     59                     60
                      A                      A                      A
 Frequencies --   1211.0688              1233.1057              1246.0394
 Red. masses --      1.5476                 1.5153                 1.3563
 Frc consts  --      1.3373                 1.3575                 1.2407
 IR Inten    --      7.4149                 1.0286                 1.5635

                     61                     62                     63
                      A                      A                      A
 Frequencies --   1252.1089              1278.4974              1296.2730
 Red. masses --      1.3194                 1.4163                 1.4880
 Frc consts  --      1.2187                 1.3639                 1.4731
 IR Inten    --      9.9816                15.7235                22.9826

                     64                     65                     66
                      A                      A                      A
 Frequencies --   1301.1742              1310.6156              1339.6418
 Red. masses --      2.5160                 1.4386                 1.6921
 Frc consts  --      2.5098                 1.4559                 1.7892
 IR Inten    --    150.2443                10.3043                11.7297

                     67                     68                     69
                      A                      A                      A
 Frequencies --   1346.6223              1368.3258              1387.3802
 Red. masses --      1.3561                 1.8381                 1.3627
 Frc consts  --      1.4489                 2.0277                 1.5454
 IR Inten    --      3.5756                16.9514                 2.5292

                     70                     71                     72
                      A                      A                      A
 Frequencies --   1399.5393              1408.5880              1435.2806
 Red. masses --      1.8006                 1.3364                 1.2219
 Frc consts  --      2.0780                 1.5623                 1.4831
 IR Inten    --     18.8501                 3.1339                21.9422

                     73                     74                     75
                      A                      A                      A
 Frequencies --   1443.4895              1447.1187              1491.1411
 Red. masses --      1.3760                 1.2614                 1.5132
 Frc consts  --      1.6892                 1.5563                 1.9823
 IR Inten    --     16.1315                 7.2708                23.7403

                     76                     77                     78
                      A                      A                      A
 Frequencies --   1497.4840              1509.3129              1521.3930
 Red. masses --      1.0888                 1.6606                 1.0479
 Frc consts  --      1.4385                 2.2289                 1.4291
 IR Inten    --      5.4719                 1.9395                 4.1339

                     79                     80                     81
                      A                      A                      A
 Frequencies --   1525.2587              1528.8938              1532.6684
 Red. masses --      1.0552                 1.1134                 1.1603
 Frc consts  --      1.4464                 1.5335                 1.6058
 IR Inten    --     13.8300                15.1845                47.1442

                     82                     83                     84
                      A                      A                      A
 Frequencies --   1535.8691              1548.2320              1551.9581
 Red. masses --      1.0823                 1.9195                 1.0531
 Frc consts  --      1.5042                 2.7109                 1.4944
 IR Inten    --      1.5077                27.3764                19.6793

                     85                     86                     87
                      A                      A                      A
 Frequencies --   1641.5412              1656.7936              1685.3975
 Red. masses --      6.0432                 5.7189                 1.0876
 Frc consts  --      9.5944                 9.2491                 1.8203
 IR Inten    --     12.3850                27.9310                50.6392

                     88                     89                     90
                      A                      A                      A
 Frequencies --   2982.6424              2989.6038              3028.3089
 Red. masses --      1.0711                 1.0715                 1.0794
 Frc consts  --      5.6142                 5.6424                 5.8322
 IR Inten    --     81.7596                75.9476                39.3285

                     91                     92                     93
                      A                      A                      A
 Frequencies --   3028.5807              3055.3051              3065.7756
 Red. masses --      1.0391                 1.0397                 1.0916
 Frc consts  --      5.6154                 5.7185                 6.0452
 IR Inten    --     56.1086                28.4292                32.8163

                     94                     95                     96
                      A                      A                      A
 Frequencies --   3070.5131              3088.8963              3089.1525
 Red. masses --      1.0721                 1.0960                 1.1024
 Frc consts  --      5.9553                 6.1612                 6.1980
 IR Inten    --     14.7735                69.4316                22.7479

                     97                     98                     99
                      A                      A                      A
 Frequencies --   3109.4057              3120.2153              3145.6987
 Red. masses --      1.0844                 1.0988                 1.1000
 Frc consts  --      6.1770                 6.3030                 6.4132
 IR Inten    --      3.5529                31.2747                10.7830

                    100                    101                    102
                      A                      A                      A
 Frequencies --   3161.7985              3179.9497              3186.7777
 Red. masses --      1.1000                 1.0909                 1.0863
 Frc consts  --      6.4792                 6.4994                 6.4999
 IR Inten    --     21.1637                 0.6985                 5.9092

                    103                    104                    105
                      A                      A                      A
 Frequencies --   3203.8074              3217.4307              3229.7008
 Red. masses --      1.0924                 1.0941                 1.0918
 Frc consts  --      6.6062                 6.6731                 6.7098
 IR Inten    --     18.9192                 9.4037                14.0821

                    106                    107                    108
                      A                      A                      A
 Frequencies --   3470.4472              3554.0547              3733.7225
 Red. masses --      1.0499                 1.0921                 1.0657
 Frc consts  --      7.4503                 8.1279                 8.7536
 IR Inten    --      1.6163                 0.3073                18.9860

 - Thermochemistry -
 -------------------
 Temperature   298.150 Kelvin.  Pressure   1.00000 Atm.
 Atom     1 has atomic number  6 and mass  12.00000

 Molecular mass:   255.12930 amu.
 Principal axes and moments of inertia in atomic units:
                           1         2         3
     Eigenvalues --  3938.747264733.032245556.54209
           X            0.99965  -0.01776  -0.01964
           Y            0.01925   0.99673   0.07846
           Z            0.01818  -0.07881   0.99672
 This molecule is an asymmetric top.
 Rotational symmetry number  1.
 Warning -- assumption of classical behavior for rotation
           may cause significant error
 Rotational temperatures (Kelvin)      0.02199     0.01830     0.01559
 Rotational constants (GHZ):           0.45820     0.38131     0.32480
 Zero-point vibrational energy     865595.2 (Joules/Mol)
                                  206.88221 (Kcal/Mol)
 Warning -- explicit consideration of  29 degrees of freedom as
           vibrations may cause significant error
 Vibrational temperatures:     48.99    55.78    80.89   127.19   135.13
          (Kelvin)            157.29   191.53   216.06   218.84   274.31
                              310.20   334.56   350.90   369.76   396.74
                              409.22   432.61   449.77   467.05   479.85
                              508.24   538.86   598.50   668.39   698.10
                              743.13   811.04   836.43   856.84   899.99
                             1025.63  1079.14  1106.03  1120.49  1122.02
                             1165.89  1187.99  1240.70  1250.66  1295.59
                             1332.22  1366.06  1379.62  1384.81  1465.02
                             1469.74  1492.92  1544.03  1566.00  1567.90
                             1610.29  1620.69  1636.51  1649.93  1684.38
                             1707.47  1725.16  1742.46  1774.16  1792.77
                             1801.51  1839.47  1865.05  1872.10  1885.68
                             1927.45  1937.49  1968.72  1996.13  2013.62
                             2026.64  2065.05  2076.86  2082.08  2145.42
                             2154.55  2171.56  2188.95  2194.51  2199.74
                             2205.17  2209.77  2227.56  2232.92  2361.81
                             2383.76  2424.91  4291.36  4301.37  4357.06
                             4357.45  4395.90  4410.97  4417.78  4444.23
                             4444.60  4473.74  4489.29  4525.96  4549.12
                             4575.24  4585.06  4609.56  4629.17  4646.82
                             4993.20  5113.49  5371.99

 Zero-point correction=                           0.329688 (Hartree/Particle)
 Thermal correction to Energy=                    0.348180
 Thermal correction to Enthalpy=                  0.349124
 Thermal correction to Gibbs Free Energy=         0.283276
 Sum of electronic and zero-point Energies=          -1111.134589
 Sum of electronic and thermal Energies=             -1111.116096
 Sum of electronic and thermal Enthalpies=           -1111.115152
 Sum of electronic and thermal Free Energies=        -1111.181000

                     E (Thermal)             CV                S
                      KCal/Mol        Cal/Mol-Kelvin    Cal/Mol-Kelvin
 Total                  218.486             69.903            138.590
 Electronic               0.000              0.000              0.000
 Translational            0.889              2.981             42.510
 Rotational               0.889              2.981             33.004
 Vibrational            216.709             63.942             63.076
 Vibration     1          0.594              1.983              5.578
 Vibration     2          0.594              1.981              5.321
 Vibration     3          0.596              1.975              4.586
 Vibration     4          0.601              1.957              3.695
 Vibration     5          0.603              1.954              3.577
 Vibration     6          0.606              1.942              3.281
 Vibration     7          0.613              1.920              2.900
 Vibration     8          0.618              1.902              2.670
 Vibration     9          0.619              1.900              2.646
 Vibration    10          0.634              1.853              2.221
 Vibration    11          0.645              1.817              1.996
 Vibration    12          0.653              1.791              1.859
 Vibration    13          0.659              1.773              1.774
 Vibration    14          0.667              1.751              1.682
 Vibration    15          0.677              1.718              1.560
 Vibration    16          0.683              1.703              1.507
 Vibration    17          0.693              1.672              1.413
 Vibration    18          0.701              1.650              1.349
 Vibration    19          0.709              1.626              1.287
 Vibration    20          0.715              1.609              1.243
 Vibration    21          0.729              1.569              1.152
 Vibration    22          0.746              1.524              1.061
 Vibration    23          0.779              1.436              0.906
 Vibration    24          0.822              1.329              0.753
 Vibration    25          0.841              1.283              0.696
 Vibration    26          0.872              1.213              0.618
 Vibration    27          0.919              1.110              0.516
 Vibration    28          0.938              1.072              0.483
 Vibration    29          0.953              1.041              0.457

 Optimization completed.
    -- Stationary point found.
 Normal termination of Gaussian 16 at Mon Dec 14 13:46:58 2020.

 ----------------------------------------------------------------------
 # B3LYP/6-311++G(d,p) empiricaldispersion=gd3bj scf=xqc pop=npa geom=c
 heck
 ----------------------------------------------------------------------

 --------------------------------------
 CID_66102648_JID_7052_Energie_neutraal
 --------------------------------------
 Structure from the checkpoint file:  "JID_7052.chk"
 Charge =  0 Multiplicity = 1

 SCF Done:  E(RB3LYP) =  -1111.70575531     A.U. after   16 cycles
 Normal termination of Gaussian 16 at Mon Dec 14 13:56:19 2020.

 ----------------------------------------------------------------------
 # B3LYP/6-311++G(d,p) empiricaldispersion=gd3bj scf=xqc pop=npa geom=c
 heck
 ----------------------------------------------------------------------

 ------------------------------------
 CID_66102648_JID_7052_Energie_kation
 ------------------------------------
 Structure from the checkpoint file:  "JID_7052.chk"
 Charge =  1 Multiplicity = 2

 SCF Done:  E(UB3LYP) =  -1111.42486747     A.U. after   29 cycles
 Normal termination of Gaussian 16 at Mon Dec 14 14:20:24 2020.
 Gaussian 16:  ES64L-G16RevA.03 25-Dec-2016

 ----------------------------------------------------------------------
 # B3LYP/6-311++G(d,p) empiricaldispersion=gd3bj scf=xqc pop=npa geom=c
 heck
 ----------------------------------------------------------------------

 -----------------------------------
 CID_66102648_JID_7052_Energie_anion
 -----------------------------------
 Structure from the checkpoint file:  "JID_7052.chk"
 Charge = -1 Multiplicity = 2

                         Standard orientation:
 ---------------------------------------------------------------------
 Center     Atomic      Atomic             Coordinates (Angstroms)
 Number     Number       Type             X           Y           Z
 ---------------------------------------------------------------------
      1          6           0       -0.665870   -1.755477   -1.385513
      2          6           0       -2.025634   -1.055718   -1.289690
      3          6           0       -3.009727   -1.892940   -0.451538
      4          8           0       -2.671943   -1.947525    0.930021
      5          6           0       -1.973679    0.362246   -0.694280
      6         16           0       -0.747957    1.505638   -1.453865
      7          6           0        0.482955    1.809516   -0.071350
      8          6           0        0.025081    2.956657    0.843088
      9          7           0       -1.302319    2.737481    1.424242
     10          6           0        0.901002    0.539837    0.625111
     11          6           0        0.282238    0.078414    1.790217
     12          6           0        0.658527   -1.130052    2.385543
     13          6           0        1.682473   -1.884946    1.821055
     14          6           0        2.332357   -1.439540    0.666665
     15          6           0        1.939110   -0.240405    0.067714
     16          8           0        2.496551    0.248244   -1.078948
     17          6           0        3.495397   -0.521384   -1.725407
     18          1           0       -0.220567   -1.926468   -0.400254
     19          1           0        0.044627   -1.150919   -1.954280
     20          1           0       -0.774692   -2.726730   -1.882474
     21          1           0       -2.442248   -0.992071   -2.305225
     22          1           0       -4.011167   -1.449954   -0.485147
     23          1           0       -3.081291   -2.905764   -0.881572
     24          1           0       -1.743414   -2.220713    1.002264
     25          1           0       -2.958295    0.830149   -0.802494
     26          1           0       -1.768665    0.304852    0.373578
     27          1           0        1.341966    2.176365   -0.638322
     28          1           0        0.745899    3.036912    1.666807
     29          1           0        0.092884    3.888873    0.258517
     30          1           0       -1.516595    3.492971    2.072435
     31          1           0       -1.993080    2.792839    0.677035
     32          1           0       -0.511682    0.680560    2.218943
     33          1           0        0.156529   -1.467265    3.287534
     34          1           0        1.988866   -2.823907    2.273911
     35          1           0        3.128645   -2.035845    0.237863
     36          1           0        3.769190    0.037660   -2.621464
     37          1           0        4.381469   -0.648459   -1.089820
     38          1           0        3.112937   -1.508673   -2.013968
 ---------------------------------------------------------------------

 SCF Done:  E(UB3LYP) =  -1111.69374375     A.U. after   33 cycles
 SCF Done:  E(UB3LYP) =  -1111.69374375     a.u. after    1 cycles

 The electronic state is 2-A.
 Alpha  occ. eigenvalues --  -88.73691 -19.06076 -19.03072 -14.20206 -10.14051
 Alpha  occ. eigenvalues --  -10.12603 -10.12581 -10.11162 -10.10550 -10.09420
 Alpha  occ. eigenvalues --  -10.08660 -10.08548 -10.08174 -10.07658 -10.07479
 Alpha  occ. eigenvalues --  -10.07388 -10.05988  -7.82295  -5.78686  -5.78323
 Alpha  occ. eigenvalues --   -5.77665  -0.97757  -0.93207  -0.79899  -0.76326
 Alpha  occ. eigenvalues --   -0.72236  -0.69779  -0.65933  -0.64664  -0.61988
 Alpha  occ. eigenvalues --   -0.59961  -0.59181  -0.55176  -0.52571  -0.49964
 Alpha  occ. eigenvalues --   -0.48111  -0.46332  -0.43717  -0.41339  -0.40427
 Alpha  occ. eigenvalues --   -0.40172  -0.38745  -0.37981  -0.37705  -0.36565
 Alpha  occ. eigenvalues --   -0.35462  -0.34923  -0.33833  -0.32673  -0.32412
 Alpha  occ. eigenvalues --   -0.31656  -0.30476  -0.29267  -0.28721  -0.28530
 Alpha  occ. eigenvalues --   -0.27869  -0.25926  -0.25861  -0.25226  -0.24530
 Alpha  occ. eigenvalues --   -0.23711  -0.23381  -0.22774  -0.20353  -0.18660
 Alpha  occ. eigenvalues --   -0.16391  -0.15232  -0.13196  -0.12486   0.04070
 Alpha virt. eigenvalues --    0.05655   0.06461   0.06971   0.07123   0.08047
 Alpha virt. eigenvalues --    0.08572   0.08740   0.08902   0.09032   0.09637
 Alpha virt. eigenvalues --    0.10315   0.10624   0.10866   0.11315   0.11824

  Beta  occ. eigenvalues --  -88.73682 -19.06066 -19.03067 -14.20177 -10.14055
  Beta  occ. eigenvalues --  -10.12595 -10.12533 -10.11158 -10.10537 -10.09412
  Beta  occ. eigenvalues --  -10.08655 -10.08524 -10.08145 -10.07635 -10.07478
  Beta  occ. eigenvalues --  -10.07374 -10.05972  -7.82285  -5.78669  -5.78317
  Beta  occ. eigenvalues --   -5.77659  -0.97736  -0.93195  -0.79854  -0.76287
  Beta  occ. eigenvalues --   -0.72212  -0.69738  -0.65898  -0.64619  -0.61950
  Beta  occ. eigenvalues --   -0.59902  -0.59155  -0.55130  -0.52514  -0.49923
  Beta  occ. eigenvalues --   -0.48080  -0.46302  -0.43676  -0.41310  -0.40397
  Beta  occ. eigenvalues --   -0.40134  -0.38712  -0.37942  -0.37673  -0.36520
  Beta  occ. eigenvalues --   -0.35441  -0.34888  -0.33807  -0.32641  -0.32378
  Beta  occ. eigenvalues --   -0.31624  -0.30443  -0.29235  -0.28680  -0.28515
  Beta  occ. eigenvalues --   -0.27832  -0.25896  -0.25838  -0.25196  -0.24506
  Beta  occ. eigenvalues --   -0.23667  -0.23363  -0.22728  -0.20323  -0.18647
  Beta  occ. eigenvalues --   -0.16319  -0.15161  -0.13147  -0.12455
  Beta virt. eigenvalues --    0.06055   0.06745   0.06902   0.07344   0.07450
  Beta virt. eigenvalues --    0.08344   0.08951   0.08976   0.09169   0.09404
  Beta virt. eigenvalues --    0.09670   0.10643   0.11055   0.11126   0.11440

 Mulliken charges and spin densities:
               1          2
     1  C   -0.123084  -0.282043
     2  C   -0.245978   0.338430
     3  C   -0.325252  -0.327123
     4  O   -0.221766   0.004817
     5  C    0.192965  -0.445577
     6  S    0.165938  -0.329808
     7  C    0.180856   0.182668
     8  C   -0.118056  -0.657261
     9  N   -0.380583  -0.026734
    10  C    0.197834   0.155697
    11  C   -0.356427   0.094330
    12  C   -0.272993  -0.230226
    13  C    0.689372  -1.040321
    14  C    0.056181  -0.251491
    15  C   -0.878061   0.629398
    16  O   -0.083722   0.023419
    17  C    1.058205  -1.358364
    18  H    0.171365  -0.040339
    19  H    0.085530   0.042859
    20  H   -0.200705   0.370643
    21  H    0.000292   0.167345
    22  H    0.096844   0.058469
    23  H    0.016707   0.128625
    24  H    0.210582   0.041136
    25  H    0.091643   0.156543
    26  H    0.212858  -0.030845
    27  H    0.311982   0.013593
    28  H   -0.016877   0.184523
    29  H   -0.106936   0.241021
    30  H   -0.117487   0.373101
    31  H    0.140664   0.088017
    32  H    0.381615  -0.098958
    33  H    0.006817   0.157902
    34  H   -0.385863   0.552078
    35  H   -0.412249   0.616215
    36  H   -0.383917   0.549241
    37  H   -0.364462   0.517986
    38  H   -0.273833   0.431033
 Sum of Mulliken charges =  -1.00000   1.00000

 Dipole moment (field-independent basis, Debye):
    X=             -3.8710    Y=              1.5249    Z=              0.4298  Tot=              4.1827
 Quadrupole moment (field-independent basis, Debye-Ang):
   XX=           -177.6898   YY=           -166.7111   ZZ=           -156.5401
   XY=             13.2160   XZ=             10.8998   YZ=             -3.3873

 Summary of Natural Population Analysis:

                                       Natural Population
                Natural  -----------------------------------------------
    Atom  No    Charge         Core      Valence    Rydberg      Total
 -----------------------------------------------------------------------
      C    1   -0.29690      0.99964     2.28902    0.00824     3.29690
      C    2   -0.12872      0.99959     2.11858    0.01055     3.12872
      C    3   -0.00433      0.99957     1.99271    0.01204     3.00433
      O    4   -0.37144      0.99990     3.36484    0.00670     4.37144
      C    5   -0.26155      0.99954     2.25057    0.01144     3.26155
      S    6    0.08420      4.99962     2.90126    0.01492     7.91580
      C    7   -0.16603      0.99950     2.15212    0.01441     3.16603
      C    8   -0.09068      0.99959     2.07837    0.01272     3.09068
      N    9   -0.42864      0.99977     2.91781    0.01107     3.92864
      C   10   -0.04482      0.99944     2.03345    0.01193     3.04482
      C   11   -0.10038      0.99952     2.09106    0.00980     3.10038
      C   12   -0.12464      0.99955     2.11472    0.01036     3.12464
      C   13   -0.09163      0.99957     2.08138    0.01068     3.09163
      C   14   -0.14394      0.99951     2.13435    0.01008     3.14394
      C   15    0.16953      0.99934     1.81671    0.01442     2.83047
      O   16   -0.27424      0.99986     3.26474    0.00965     4.27424
      C   17   -0.09916      0.99960     2.09059    0.00897     3.09916
      H   18    0.09771      0.00000     0.39996    0.00232     0.40229
      H   19    0.11177      0.00000     0.38662    0.00161     0.38823
      H   20    0.09829      0.00000     0.40065    0.00106     0.40171
      H   21    0.09704      0.00000     0.40174    0.00122     0.40296
      H   22    0.08435      0.00000     0.41446    0.00118     0.41565
      H   23    0.07628      0.00000     0.42250    0.00122     0.42372
      H   24    0.23130      0.00000     0.26514    0.00356     0.26870
      H   25    0.10131      0.00000     0.39758    0.00111     0.39869
      H   26    0.12147      0.00000     0.37577    0.00276     0.37853
      H   27    0.11963      0.00000     0.37875    0.00162     0.38037
      H   28    0.09492      0.00000     0.40382    0.00125     0.40508
      H   29    0.08353      0.00000     0.41481    0.00166     0.41647
      H   30    0.17728      0.00000     0.32052    0.00221     0.32272
      H   31    0.17791      0.00000     0.32002    0.00208     0.32209
      H   32    0.12013      0.00000     0.37795    0.00192     0.37987
      H   33    0.10133      0.00000     0.39787    0.00079     0.39867
      H   34    0.10152      0.00000     0.39746    0.00103     0.39848
      H   35    0.10953      0.00000     0.38842    0.00205     0.39047
      H   36    0.09448      0.00000     0.40435    0.00117     0.40552
      H   37    0.08662      0.00000     0.41132    0.00206     0.41338
      H   38    0.08694      0.00000     0.41098    0.00208     0.41306
 =======================================================================
   * Total *    0.00000     20.99309    47.78297    0.22394    69.00000

 Normal termination of Gaussian 16 at Mon Dec 14 14:48:08 2020.
