 Gaussian 16, Revision A.03,

 -----------------------------------------------------------
 # opt freq B3LYP/6-31G(d) empiricaldispersion=gd3bj scf=xqc
 -----------------------------------------------------------

 ------------------------------
 CID_84623856_JID_6803_neutraal
 ------------------------------
 Symbolic Z-matrix:
 Charge =  0 Multiplicity = 1

 SCF Done:  E(RB3LYP) =  -746.805044435     A.U. after   15 cycles
 SCF Done:  E(RB3LYP) =  -746.808091904     A.U. after   11 cycles
 SCF Done:  E(RB3LYP) =  -746.808392288     A.U. after   12 cycles
 SCF Done:  E(RB3LYP) =  -746.808489239     A.U. after   12 cycles
 SCF Done:  E(RB3LYP) =  -746.808866795     A.U. after   10 cycles
 SCF Done:  E(RB3LYP) =  -746.809413740     A.U. after   12 cycles
 SCF Done:  E(RB3LYP) =  -746.809603560     A.U. after   12 cycles
 SCF Done:  E(RB3LYP) =  -746.809639423     A.U. after   11 cycles
 SCF Done:  E(RB3LYP) =  -746.809658106     A.U. after   10 cycles
 SCF Done:  E(RB3LYP) =  -746.809666262     A.U. after    9 cycles
 SCF Done:  E(RB3LYP) =  -746.809675570     A.U. after    8 cycles
 SCF Done:  E(RB3LYP) =  -746.809675673     A.U. after    7 cycles
 SCF Done:  E(RB3LYP) =  -746.809675795     A.U. after    8 cycles
 SCF Done:  E(RB3LYP) =  -746.809675917     A.U. after    7 cycles
 SCF Done:  E(RB3LYP) =  -746.809675970     A.U. after    7 cycles
 Optimization completed.
    -- Stationary point found.
 Normal termination of Gaussian 16 at Fri Dec 11 00:47:16 2020.

 --------------------------------------------------------------------
 #N Geom=AllCheck Guess=TCheck SCRF=Check GenChk RB3LYP/6-31G(d) Freq
 --------------------------------------------------------------------

 Structure from the checkpoint file:  "JID_6803.chk"
 ------------------------------
 CID_84623856_JID_6803_neutraal
 ------------------------------
 Charge =  0 Multiplicity = 1

 SCF Done:  E(RB3LYP) =  -746.809675970     A.U. after    1 cycles

  Exact polarizability: 185.585  -4.784 136.448  14.627   3.418  94.079
 Approx polarizability: 247.479  -4.165 220.661  29.355   7.444 149.451

                      1                      2                      3
                      A                      A                      A
 Frequencies --     25.6439                37.5544                39.1459
 Red. masses --      4.2616                 1.3109                 3.4520
 Frc consts  --      0.0017                 0.0011                 0.0031
 IR Inten    --      1.1719                 0.1038                 0.7016

                      4                      5                      6
                      A                      A                      A
 Frequencies --     60.1012               105.9253               120.5050
 Red. masses --      5.2531                 2.7259                 1.0802
 Frc consts  --      0.0112                 0.0180                 0.0092
 IR Inten    --      0.7873                 0.3662                 0.2015

                      7                      8                      9
                      A                      A                      A
 Frequencies --    164.9127               175.3508               211.5189
 Red. masses --      3.6329                 4.6323                 3.5954
 Frc consts  --      0.0582                 0.0839                 0.0948
 IR Inten    --      9.5612                 5.2002                 2.4974

                     10                     11                     12
                      A                      A                      A
 Frequencies --    221.3890               249.1045               269.2985
 Red. masses --      3.3470                 3.0310                 2.5324
 Frc consts  --      0.0967                 0.1108                 0.1082
 IR Inten    --      3.7960                 3.8580                 7.8420

                     13                     14                     15
                      A                      A                      A
 Frequencies --    324.3347               343.3104               369.4982
 Red. masses --      1.8353                 3.1810                 3.9471
 Frc consts  --      0.1137                 0.2209                 0.3175
 IR Inten    --     59.8212                 0.5082                10.3818

                     16                     17                     18
                      A                      A                      A
 Frequencies --    405.6809               464.1035               484.9800
 Red. masses --      3.8100                 4.2914                 3.6541
 Frc consts  --      0.3694                 0.5446                 0.5064
 IR Inten    --     29.0814                19.2184                 6.8148

                     19                     20                     21
                      A                      A                      A
 Frequencies --    505.1260               516.7329               520.4427
 Red. masses --      2.3685                 4.2572                 2.4984
 Frc consts  --      0.3561                 0.6697                 0.3987
 IR Inten    --     29.6628                20.2264                 6.1427

                     22                     23                     24
                      A                      A                      A
 Frequencies --    552.0666               576.5270               593.1826
 Red. masses --      3.7463                 3.8163                 3.9384
 Frc consts  --      0.6727                 0.7474                 0.8165
 IR Inten    --     14.1289                 3.1296                 0.4852

                     25                     26                     27
                      A                      A                      A
 Frequencies --    610.9286               645.0109               684.5376
 Red. masses --      3.5734                 4.0800                 1.4408
 Frc consts  --      0.7858                 1.0001                 0.3978
 IR Inten    --     21.0340                40.0795                83.2015

                     28                     29                     30
                      A                      A                      A
 Frequencies --    734.3149               744.7431               793.5047
 Red. masses --      5.4425                 4.3977                 3.1456
 Frc consts  --      1.7291                 1.4371                 1.1670
 IR Inten    --      0.3501                 8.3520                 9.5492

                     31                     32                     33
                      A                      A                      A
 Frequencies --    846.7863               859.2822               865.4803
 Red. masses --      1.2995                 2.4128                 1.4991
 Frc consts  --      0.5490                 1.0497                 0.6616
 IR Inten    --     22.7309                 5.9291                 1.0903

                     34                     35                     36
                      A                      A                      A
 Frequencies --    912.8330               964.7664               974.8467
 Red. masses --      3.0897                 2.5121                 3.4380
 Frc consts  --      1.5169                 1.3776                 1.9250
 IR Inten    --      0.8551                11.9568                 7.0410

                     37                     38                     39
                      A                      A                      A
 Frequencies --   1002.1370              1031.8889              1038.1544
 Red. masses --      1.9549                 2.3996                 2.2147
 Frc consts  --      1.1567                 1.5054                 1.4064
 IR Inten    --     22.0083                 3.6706                14.6007

                     40                     41                     42
                      A                      A                      A
 Frequencies --   1053.4032              1071.9369              1075.0254
 Red. masses --      1.6433                 1.4831                 1.4853
 Frc consts  --      1.0744                 1.0041                 1.0113
 IR Inten    --      1.9452                10.4199                 3.1764

                     43                     44                     45
                      A                      A                      A
 Frequencies --   1089.6349              1118.4567              1159.0421
 Red. masses --      3.0207                 2.9803                 2.0648
 Frc consts  --      2.1131                 2.1966                 1.6343
 IR Inten    --     10.9345                74.7964               133.9288

                     46                     47                     48
                      A                      A                      A
 Frequencies --   1179.5456              1203.7939              1218.6044
 Red. masses --      2.1740                 1.9917                 1.4493
 Frc consts  --      1.7822                 1.7005                 1.2681
 IR Inten    --    161.2101                18.4154                 4.7788

                     49                     50                     51
                      A                      A                      A
 Frequencies --   1247.1642              1282.4172              1293.6087
 Red. masses --      2.2408                 1.4473                 1.2631
 Frc consts  --      2.0536                 1.4024                 1.2454
 IR Inten    --     88.8674                 8.4552                20.3833

                     52                     53                     54
                      A                      A                      A
 Frequencies --   1306.5100              1341.5173              1360.1664
 Red. masses --      1.3474                 2.5439                 2.2634
 Frc consts  --      1.3551                 2.6974                 2.4672
 IR Inten    --     11.7840                 7.2419                51.5421

                     55                     56                     57
                      A                      A                      A
 Frequencies --   1381.5603              1389.6117              1407.9654
 Red. masses --      1.7543                 3.3685                 1.4095
 Frc consts  --      1.9729                 3.8325                 1.6462
 IR Inten    --     24.7824                44.2311                10.6635

                     58                     59                     60
                      A                      A                      A
 Frequencies --   1432.5466              1441.9068              1444.7923
 Red. masses --      2.0798                 1.2441                 1.2708
 Frc consts  --      2.5147                 1.5240                 1.5629
 IR Inten    --    172.7143                 0.5651                 0.1649

                     61                     62                     63
                      A                      A                      A
 Frequencies --   1454.6491              1484.5896              1496.0666
 Red. masses --      2.1617                 1.1198                 1.8131
 Frc consts  --      2.6950                 1.4542                 2.3909
 IR Inten    --      5.7753                 7.3981                55.0032

                     64                     65                     66
                      A                      A                      A
 Frequencies --   1508.5749              1516.9992              1519.3629
 Red. masses --      1.0471                 1.0774                 1.1612
 Frc consts  --      1.4040                 1.4608                 1.5794
 IR Inten    --      6.2713                 2.0349                 3.3067

                     67                     68                     69
                      A                      A                      A
 Frequencies --   1530.5909              1537.0104              1556.8011
 Red. masses --      1.1349                 1.3721                 2.0998
 Frc consts  --      1.5665                 1.9097                 2.9985
 IR Inten    --      2.8150                58.9475                65.9747

                     70                     71                     72
                      A                      A                      A
 Frequencies --   1657.5521              1668.1987              1834.0204
 Red. masses --      7.1958                 5.8635                 9.4243
 Frc consts  --     11.6483                 9.6140                18.6771
 IR Inten    --     44.9897                20.2201               245.5449

                     73                     74                     75
                      A                      A                      A
 Frequencies --   3036.6837              3038.4033              3049.5513
 Red. masses --      1.0703                 1.0410                 1.0365
 Frc consts  --      5.8152                 5.6623                 5.6794
 IR Inten    --     50.1911                45.4425                29.6515

                     76                     77                     78
                      A                      A                      A
 Frequencies --   3078.1346              3093.6416              3098.4386
 Red. masses --      1.0615                 1.0961                 1.0875
 Frc consts  --      5.9256                 6.1808                 6.1515
 IR Inten    --      5.1046                24.1979                17.4383

                     79                     80                     81
                      A                      A                      A
 Frequencies --   3101.4914              3117.8304              3121.4182
 Red. masses --      1.0999                 1.0999                 1.1022
 Frc consts  --      6.2337                 6.2996                 6.3271
 IR Inten    --     18.5695                 7.1465                18.2489

                     82                     83                     84
                      A                      A                      A
 Frequencies --   3132.1135              3165.0623              3170.1199
 Red. masses --      1.1026                 1.0958                 1.0897
 Frc consts  --      6.3731                 6.4677                 6.4521
 IR Inten    --     19.5530                16.3415                20.5375

                     85                     86                     87
                      A                      A                      A
 Frequencies --   3176.7607              3588.6691              3681.1057
 Red. masses --      1.0899                 1.0765                 1.0639
 Frc consts  --      6.4804                 8.1686                 8.4942
 IR Inten    --     17.1081                11.2306                47.0957

 - Thermochemistry -
 -------------------
 Temperature   298.150 Kelvin.  Pressure   1.00000 Atm.
 Atom     1 has atomic number  6 and mass  12.00000

 Molecular mass:   221.10519 amu.
 Principal axes and moments of inertia in atomic units:
                           1         2         3
     Eigenvalues --  1604.122886400.157117156.47171
           X            0.99999  -0.00227   0.00469
           Y            0.00224   0.99998   0.00649
           Z           -0.00470  -0.00648   0.99997
 This molecule is an asymmetric top.
 Rotational symmetry number  1.
 Warning -- assumption of classical behavior for rotation
           may cause significant error
 Rotational temperatures (Kelvin)      0.05399     0.01353     0.01210
 Rotational constants (GHZ):           1.12506     0.28198     0.25218
 Zero-point vibrational energy     675643.1 (Joules/Mol)
                                  161.48257 (Kcal/Mol)
 Warning -- explicit consideration of  25 degrees of freedom as
           vibrations may cause significant error
 Vibrational temperatures:     36.90    54.03    56.32    86.47   152.40
          (Kelvin)            173.38   237.27   252.29   304.33   318.53
                              358.41   387.46   466.65   493.95   531.63
                              583.68   667.74   697.78   726.76   743.46
                              748.80   794.30   829.49   853.46   878.99
                              928.03   984.90  1056.52  1071.52  1141.68
                             1218.34  1236.32  1245.23  1313.36  1388.08
                             1402.59  1441.85  1484.66  1493.67  1515.61
                             1542.28  1546.72  1567.74  1609.21  1667.60
                             1697.10  1731.99  1753.30  1794.39  1845.11
                             1861.21  1879.78  1930.14  1956.98  1987.76
                             1999.34  2025.75  2061.11  2074.58  2078.73
                             2092.92  2135.99  2152.51  2170.50  2182.62
                             2186.02  2202.18  2211.42  2239.89  2384.85
                             2400.17  2638.75  4369.11  4371.58  4387.62
                             4428.75  4451.06  4457.96  4462.35  4485.86
                             4491.02  4506.41  4553.82  4561.10  4570.65
                             5163.29  5296.29

 Zero-point correction=                           0.257339 (Hartree/Particle)
 Thermal correction to Energy=                    0.272778
 Thermal correction to Enthalpy=                  0.273722
 Thermal correction to Gibbs Free Energy=         0.212986
 Sum of electronic and zero-point Energies=           -746.552337
 Sum of electronic and thermal Energies=              -746.536898
 Sum of electronic and thermal Enthalpies=            -746.535954
 Sum of electronic and thermal Free Energies=         -746.596690

                     E (Thermal)             CV                S
                      KCal/Mol        Cal/Mol-Kelvin    Cal/Mol-Kelvin
 Total                  171.171             57.978            127.830
 Electronic               0.000              0.000              0.000
 Translational            0.889              2.981             42.083
 Rotational               0.889              2.981             32.663
 Vibrational            169.393             52.016             53.084
 Vibration     1          0.593              1.985              6.141
 Vibration     2          0.594              1.982              5.384
 Vibration     3          0.594              1.981              5.302
 Vibration     4          0.597              1.973              4.454
 Vibration     5          0.605              1.944              3.342
 Vibration     6          0.609              1.932              3.092
 Vibration     7          0.623              1.886              2.493
 Vibration     8          0.627              1.873              2.377
 Vibration     9          0.643              1.823              2.031
 Vibration    10          0.648              1.809              1.948
 Vibration    11          0.662              1.764              1.737
 Vibration    12          0.674              1.730              1.601
 Vibration    13          0.709              1.627              1.288
 Vibration    14          0.722              1.589              1.197
 Vibration    15          0.742              1.535              1.082
 Vibration    16          0.771              1.458              0.942
 Vibration    17          0.822              1.330              0.754
 Vibration    18          0.841              1.283              0.697
 Vibration    19          0.860              1.239              0.645
 Vibration    20          0.872              1.213              0.618
 Vibration    21          0.875              1.205              0.609
 Vibration    22          0.907              1.135              0.540
 Vibration    23          0.933              1.082              0.492
 Vibration    24          0.951              1.046              0.462
 Vibration    25          0.970              1.009              0.431

 Optimization completed.
    -- Stationary point found.
 Normal termination of Gaussian 16 at Fri Dec 11 00:57:19 2020.

 ----------------------------------------------------------------------
 # B3LYP/6-311++G(d,p) empiricaldispersion=gd3bj scf=xqc pop=npa geom=c
 heck
 ----------------------------------------------------------------------

 --------------------------------------
 CID_84623856_JID_6803_Energie_neutraal
 --------------------------------------
 Structure from the checkpoint file:  "JID_6803.chk"
 Charge =  0 Multiplicity = 1

 SCF Done:  E(RB3LYP) =  -747.026140972     A.U. after   15 cycles
 Normal termination of Gaussian 16 at Fri Dec 11 01:02:01 2020.

 ----------------------------------------------------------------------
 # B3LYP/6-311++G(d,p) empiricaldispersion=gd3bj scf=xqc pop=npa geom=c
 heck
 ----------------------------------------------------------------------

 ------------------------------------
 CID_84623856_JID_6803_Energie_kation
 ------------------------------------
 Structure from the checkpoint file:  "JID_6803.chk"
 Charge =  1 Multiplicity = 2

 SCF Done:  E(UB3LYP) =  -746.759015696     A.U. after   24 cycles
 Normal termination of Gaussian 16 at Fri Dec 11 01:12:34 2020.
 Gaussian 16:  ES64L-G16RevA.03 25-Dec-2016

 ----------------------------------------------------------------------
 # B3LYP/6-311++G(d,p) empiricaldispersion=gd3bj scf=xqc pop=npa geom=c
 heck
 ----------------------------------------------------------------------

 -----------------------------------
 CID_84623856_JID_6803_Energie_anion
 -----------------------------------
 Structure from the checkpoint file:  "JID_6803.chk"
 Charge = -1 Multiplicity = 2

                         Standard orientation:
 ---------------------------------------------------------------------
 Center     Atomic      Atomic             Coordinates (Angstroms)
 Number     Number       Type             X           Y           Z
 ---------------------------------------------------------------------
      1          6           0        4.581969   -1.441105    0.478678
      2          6           0        3.266442   -0.731648    0.263714
      3          6           0        3.181670    0.663329    0.376516
      4          6           0        1.989260    1.346752    0.138297
      5          6           0        0.854160    0.605056   -0.211701
      6          6           0        0.894971   -0.795801   -0.289265
      7          6           0        2.115062   -1.446655   -0.058666
      8          7           0       -0.275830   -1.530084   -0.544477
      9          6           0       -1.518220   -0.787264   -0.741953
     10          6           0       -1.204677    0.591356   -1.333590
     11          8           0       -0.312219    1.298467   -0.473255
     12          6           0       -2.265383   -0.661514    0.594093
     13          6           0       -3.686575   -0.182187    0.430471
     14          8           0       -4.246361    0.040784   -0.623303
     15          8           0       -4.306089   -0.034034    1.625174
     16          6           0        1.894817    2.847317    0.230573
     17          1           0        4.433312   -2.504731    0.691768
     18          1           0        5.139055   -1.004508    1.315144
     19          1           0        5.225136   -1.370775   -0.408710
     20          1           0        4.068046    1.233374    0.644998
     21          1           0        2.145299   -2.532832   -0.115762
     22          1           0       -0.142953   -2.316817   -1.165791
     23          1           0       -2.149969   -1.334562   -1.447435
     24          1           0       -0.747198    0.472526   -2.325533
     25          1           0       -2.102718    1.202892   -1.419823
     26          1           0       -2.282400   -1.632251    1.101649
     27          1           0       -1.734313    0.023629    1.264115
     28          1           0       -5.212567    0.266598    1.424046
     29          1           0        1.188165    3.156101    1.010210
     30          1           0        2.870865    3.285276    0.458679
     31          1           0        1.529432    3.279120   -0.708141
 ---------------------------------------------------------------------

 SCF Done:  E(UB3LYP) =  -747.015093807     A.U. after   33 cycles
 SCF Done:  E(UB3LYP) =  -747.015093807     a.u. after    1 cycles

 The electronic state is 2-A.
 Alpha  occ. eigenvalues --  -19.07388 -19.05306 -19.02277 -14.22189 -10.21422
 Alpha  occ. eigenvalues --  -10.12628 -10.12391 -10.11778 -10.11350 -10.08779
 Alpha  occ. eigenvalues --  -10.08552 -10.08318 -10.07845 -10.07699 -10.06844
 Alpha  occ. eigenvalues --  -10.06767  -1.01599  -0.97204  -0.92709  -0.83629
 Alpha  occ. eigenvalues --   -0.76177  -0.70163  -0.68847  -0.65121  -0.62222
 Alpha  occ. eigenvalues --   -0.59693  -0.58203  -0.55098  -0.51159  -0.49659
 Alpha  occ. eigenvalues --   -0.45153  -0.43780  -0.42534  -0.40734  -0.40051
 Alpha  occ. eigenvalues --   -0.39042  -0.38115  -0.35852  -0.34899  -0.34467
 Alpha  occ. eigenvalues --   -0.33979  -0.32899  -0.32490  -0.31822  -0.31027
 Alpha  occ. eigenvalues --   -0.30255  -0.29833  -0.29206  -0.28053  -0.27432
 Alpha  occ. eigenvalues --   -0.26018  -0.25847  -0.23679  -0.23172  -0.21078
 Alpha  occ. eigenvalues --   -0.19234  -0.18914  -0.13028  -0.10459   0.04182
 Alpha virt. eigenvalues --    0.05881   0.06461   0.07056   0.08180   0.08661
 Alpha virt. eigenvalues --    0.08734   0.08808   0.09411   0.09843   0.10374
 Alpha virt. eigenvalues --    0.11157   0.11255   0.11522   0.11660   0.13017

  Beta  occ. eigenvalues --  -19.07334 -19.05302 -19.02263 -14.22145 -10.21420
  Beta  occ. eigenvalues --  -10.12614 -10.12388 -10.11761 -10.11346 -10.08755
  Beta  occ. eigenvalues --  -10.08551 -10.08318 -10.07831 -10.07690 -10.06830
  Beta  occ. eigenvalues --  -10.06762  -1.01530  -0.97196  -0.92652  -0.83570
  Beta  occ. eigenvalues --   -0.76162  -0.70127  -0.68833  -0.65081  -0.62185
  Beta  occ. eigenvalues --   -0.59672  -0.58156  -0.55050  -0.51087  -0.49608
  Beta  occ. eigenvalues --   -0.45107  -0.43735  -0.42488  -0.40702  -0.40019
  Beta  occ. eigenvalues --   -0.39015  -0.38068  -0.35819  -0.34869  -0.34437
  Beta  occ. eigenvalues --   -0.33950  -0.32874  -0.32474  -0.31798  -0.31002
  Beta  occ. eigenvalues --   -0.30212  -0.29797  -0.29185  -0.28031  -0.27405
  Beta  occ. eigenvalues --   -0.25998  -0.25823  -0.23645  -0.23140  -0.21059
  Beta  occ. eigenvalues --   -0.19199  -0.18880  -0.13012  -0.10422
  Beta virt. eigenvalues --    0.06064   0.06978   0.07258   0.07908   0.08291
  Beta virt. eigenvalues --    0.08714   0.08826   0.09056   0.09561   0.10189
  Beta virt. eigenvalues --    0.10673   0.11234   0.11401   0.11691   0.11976

 Mulliken charges and spin densities:
               1          2
     1  C    1.440593  -1.816593
     2  C    0.753844  -0.133859
     3  C   -2.315439   0.858061
     4  C    0.483676   0.178192
     5  C    0.760382  -0.450756
     6  C    0.206041  -0.575342
     7  C   -0.490492   0.015289
     8  N   -0.063308   0.105174
     9  C   -0.873397   0.507617
    10  C    0.379076  -0.560222
    11  O   -0.105594   0.012733
    12  C    0.876894  -1.012931
    13  C   -0.033958  -0.071197
    14  O   -0.273670  -0.004330
    15  O   -0.173719   0.028354
    16  C   -0.044055  -0.401297
    17  H   -0.023364   0.166542
    18  H    0.016644   0.115601
    19  H    0.057508   0.104803
    20  H   -0.041682   0.126823
    21  H   -0.472984   0.605068
    22  H   -0.369188   0.672357
    23  H   -0.522373   0.770926
    24  H   -0.034168   0.193228
    25  H    0.067249   0.149300
    26  H   -0.012565   0.231471
    27  H    0.053052   0.174456
    28  H   -0.476708   0.769265
    29  H    0.107707   0.058450
    30  H    0.035263   0.109099
    31  H    0.088736   0.073716
 Sum of Mulliken charges =  -1.00000   1.00000

 Dipole moment (field-independent basis, Debye):
    X=              5.8210    Y=              3.8427    Z=              0.5237  Tot=              6.9947
 Quadrupole moment (field-independent basis, Debye-Ang):
   XX=           -182.6034   YY=           -135.5399   ZZ=           -128.8543
   XY=              3.1311   XZ=              6.8453   YZ=             -6.4965

 Summary of Natural Population Analysis:

                                       Natural Population
                Natural  -----------------------------------------------
    Atom  No    Charge         Core      Valence    Rydberg      Total
 -----------------------------------------------------------------------
      C    1   -0.28904      0.99964     2.28454    0.00485     3.28904
      C    2   -0.01894      0.99952     2.01098    0.00843     3.01894
      C    3   -0.11660      0.99948     2.10860    0.00851     3.11660
      C    4   -0.02469      0.99949     2.01720    0.00800     3.02469
      C    5    0.12904      0.99929     1.85875    0.01293     2.87096
      C    6    0.06675      0.99944     1.92231    0.01150     2.93325
      C    7   -0.11366      0.99949     2.10448    0.00970     3.11366
      N    8   -0.32048      0.99968     2.80719    0.01361     3.82048
      C    9   -0.02260      0.99959     2.00845    0.01456     3.02260
      C   10   -0.01478      0.99954     2.00276    0.01248     3.01478
      O   11   -0.28269      0.99987     3.27434    0.00848     4.28269
      C   12   -0.24658      0.99955     2.23688    0.01016     3.24658
      C   13    0.40970      0.99972     1.56581    0.02477     2.59030
      O   14   -0.31107      0.99987     3.30499    0.00621     4.31107
      O   15   -0.34295      0.99988     3.33649    0.00658     4.34295
      C   16   -0.29015      0.99964     2.28538    0.00513     3.29015
      H   17    0.10182      0.00000     0.39718    0.00100     0.39818
      H   18    0.09928      0.00000     0.39959    0.00113     0.40072
      H   19    0.10118      0.00000     0.39749    0.00133     0.39882
      H   20    0.09390      0.00000     0.40480    0.00130     0.40610
      H   21    0.10113      0.00000     0.39726    0.00161     0.39887
      H   22    0.19725      0.00000     0.29085    0.01190     0.30275
      H   23    0.11171      0.00000     0.38600    0.00229     0.38829
      H   24    0.08650      0.00000     0.41228    0.00123     0.41350
      H   25    0.10195      0.00000     0.39685    0.00120     0.39805
      H   26    0.12245      0.00000     0.37620    0.00135     0.37755
      H   27    0.11920      0.00000     0.37930    0.00150     0.38080
      H   28    0.24409      0.00000     0.23742    0.01848     0.25591
      H   29    0.10520      0.00000     0.39345    0.00135     0.39480
      H   30    0.09740      0.00000     0.40175    0.00084     0.40260
      H   31    0.10567      0.00000     0.39287    0.00145     0.39433
 =======================================================================
   * Total *    0.00000     15.99368    42.79245    0.21387    59.00000

 Normal termination of Gaussian 16 at Fri Dec 11 01:27:08 2020.
