 Gaussian 16, Revision A.03,

 -----------------------------------------------------------
 # opt freq B3LYP/6-31G(d) empiricaldispersion=gd3bj scf=xqc
 -----------------------------------------------------------

 ------------------------------
 CID_55248642_JID_7575_neutraal
 ------------------------------
 Symbolic Z-matrix:
 Charge =  0 Multiplicity = 1

 SCF Done:  E(RB3LYP) =  -805.803228651     A.U. after   14 cycles
 SCF Done:  E(RB3LYP) =  -805.809292147     A.U. after   12 cycles
 SCF Done:  E(RB3LYP) =  -805.808319321     A.U. after   12 cycles
 SCF Done:  E(RB3LYP) =  -805.811340405     A.U. after   11 cycles
 SCF Done:  E(RB3LYP) =  -805.812147269     A.U. after   12 cycles
 SCF Done:  E(RB3LYP) =  -805.812141008     A.U. after   12 cycles
 SCF Done:  E(RB3LYP) =  -805.812965466     A.U. after   11 cycles
 SCF Done:  E(RB3LYP) =  -805.813083231     A.U. after   11 cycles
 SCF Done:  E(RB3LYP) =  -805.813121055     A.U. after   10 cycles
 SCF Done:  E(RB3LYP) =  -805.813133171     A.U. after   10 cycles
 SCF Done:  E(RB3LYP) =  -805.813146273     A.U. after    7 cycles
 SCF Done:  E(RB3LYP) =  -805.813146416     A.U. after    7 cycles
 SCF Done:  E(RB3LYP) =  -805.813146453     A.U. after    7 cycles
 SCF Done:  E(RB3LYP) =  -805.813146475     A.U. after    6 cycles
 SCF Done:  E(RB3LYP) =  -805.813146499     A.U. after    7 cycles
 Optimization completed.
    -- Stationary point found.
 Normal termination of Gaussian 16 at Mon Dec 14 16:46:30 2020.

 --------------------------------------------------------------------
 #N Geom=AllCheck Guess=TCheck SCRF=Check GenChk RB3LYP/6-31G(d) Freq
 --------------------------------------------------------------------

 Structure from the checkpoint file:  "JID_7575.chk"
 ------------------------------
 CID_55248642_JID_7575_neutraal
 ------------------------------
 Charge =  0 Multiplicity = 1

 SCF Done:  E(RB3LYP) =  -805.813146499     A.U. after    1 cycles

  Exact polarizability: 168.784  -4.848 145.599  -4.175   1.111 119.703
 Approx polarizability: 210.269  -5.068 202.666 -11.569  15.120 192.300

                      1                      2                      3
                      A                      A                      A
 Frequencies --     26.6141                30.5306                41.4952
 Red. masses --      4.0447                 6.1471                 4.6233
 Frc consts  --      0.0017                 0.0034                 0.0047
 IR Inten    --      0.5315                 1.9439                 0.8768

                      4                      5                      6
                      A                      A                      A
 Frequencies --     52.2222                77.2912               101.0573
 Red. masses --      3.7263                 6.2665                 4.0650
 Frc consts  --      0.0060                 0.0221                 0.0245
 IR Inten    --      1.4520                 3.7906                 1.3811

                      7                      8                      9
                      A                      A                      A
 Frequencies --    125.7665               145.6038               148.5697
 Red. masses --      2.8064                 3.0836                 4.1689
 Frc consts  --      0.0262                 0.0385                 0.0542
 IR Inten    --      0.6146                 1.2809                 1.1845

                     10                     11                     12
                      A                      A                      A
 Frequencies --    179.3746               221.7136               237.5214
 Red. masses --      2.8374                 2.8960                 1.1520
 Frc consts  --      0.0538                 0.0839                 0.0383
 IR Inten    --      1.5798                 4.2497                 0.2142

                     13                     14                     15
                      A                      A                      A
 Frequencies --    243.3248               279.5671               300.1365
 Red. masses --      1.1613                 2.9473                 2.0169
 Frc consts  --      0.0405                 0.1357                 0.1070
 IR Inten    --      0.8870                 0.4649                 0.3126

                     16                     17                     18
                      A                      A                      A
 Frequencies --    304.3465               325.5187               334.5775
 Red. masses --      2.1431                 3.2730                 2.7947
 Frc consts  --      0.1170                 0.2043                 0.1843
 IR Inten    --      0.5347                 1.5036                 2.2029

                     19                     20                     21
                      A                      A                      A
 Frequencies --    352.3256               402.4380               413.5909
 Red. masses --      3.3188                 3.4637                 2.0259
 Frc consts  --      0.2427                 0.3305                 0.2042
 IR Inten    --      2.6222                 3.9007                 0.6763

                     22                     23                     24
                      A                      A                      A
 Frequencies --    450.2449               461.9862               472.8369
 Red. masses --      3.2368                 2.5983                 2.1551
 Frc consts  --      0.3866                 0.3267                 0.2839
 IR Inten    --      5.4041                 9.4792                 3.1150

                     25                     26                     27
                      A                      A                      A
 Frequencies --    527.6598               559.7546               574.4813
 Red. masses --      2.5890                 2.2899                 2.3956
 Frc consts  --      0.4247                 0.4227                 0.4658
 IR Inten    --      4.3773                 7.4399                60.2017

                     28                     29                     30
                      A                      A                      A
 Frequencies --    618.6848               652.2204               701.2302
 Red. masses --      3.7846                 2.4549                 2.7268
 Frc consts  --      0.8535                 0.6153                 0.7900
 IR Inten    --     21.3439                38.8449                 7.6579

                     31                     32                     33
                      A                      A                      A
 Frequencies --    725.7686               756.9039               794.3503
 Red. masses --      1.9510                 3.0055                 2.5648
 Frc consts  --      0.6055                 1.0145                 0.9535
 IR Inten    --     77.2004                28.0839                 1.1936

                     34                     35                     36
                      A                      A                      A
 Frequencies --    825.7985               859.9264               877.6291
 Red. masses --      2.8613                 1.4496                 2.1283
 Frc consts  --      1.1496                 0.6316                 0.9658
 IR Inten    --     55.8850                 2.4281                 3.1718

                     37                     38                     39
                      A                      A                      A
 Frequencies --    890.3811               919.9112               920.7409
 Red. masses --      2.5696                 1.8046                 1.9752
 Frc consts  --      1.2002                 0.8998                 0.9866
 IR Inten    --      9.5210                18.4004                11.1504

                     40                     41                     42
                      A                      A                      A
 Frequencies --    941.6007               949.4523               959.1207
 Red. masses --      1.7605                 2.1183                 1.6822
 Frc consts  --      0.9197                 1.1251                 0.9117
 IR Inten    --      2.8896                 4.6195                 0.1667

                     43                     44                     45
                      A                      A                      A
 Frequencies --    981.7745               996.3248              1026.0106
 Red. masses --      1.7190                 1.5208                 1.5920
 Frc consts  --      0.9762                 0.8895                 0.9874
 IR Inten    --      1.8867                10.5040                 1.7453

                     46                     47                     48
                      A                      A                      A
 Frequencies --   1059.0746              1078.7734              1097.0530
 Red. masses --      2.7394                 2.5553                 2.5096
 Frc consts  --      1.8103                 1.7521                 1.7796
 IR Inten    --      2.5581                 2.5678                 2.4745

                     49                     50                     51
                      A                      A                      A
 Frequencies --   1106.9588              1115.5754              1136.5613
 Red. masses --      2.4274                 1.9140                 2.1338
 Frc consts  --      1.7525                 1.4034                 1.6240
 IR Inten    --     31.2867                99.1457                 8.8845

                     52                     53                     54
                      A                      A                      A
 Frequencies --   1156.4741              1180.9550              1181.7283
 Red. masses --      1.8918                 2.1365                 1.8965
 Frc consts  --      1.4908                 1.7556                 1.5604
 IR Inten    --      2.1895                52.5202                82.1095

                     55                     56                     57
                      A                      A                      A
 Frequencies --   1195.7449              1204.9711              1247.0943
 Red. masses --      2.0071                 2.0186                 1.6142
 Frc consts  --      1.6908                 1.7268                 1.4791
 IR Inten    --     92.2735                33.1245                66.4870

                     58                     59                     60
                      A                      A                      A
 Frequencies --   1252.8273              1271.8883              1308.5004
 Red. masses --      1.5528                 1.5016                 1.3407
 Frc consts  --      1.4360                 1.4312                 1.3524
 IR Inten    --     67.7316                 8.7831                26.8359

                     61                     62                     63
                      A                      A                      A
 Frequencies --   1315.9182              1320.2078              1331.7065
 Red. masses --      1.3031                 1.4538                 1.2185
 Frc consts  --      1.3295                 1.4930                 1.2732
 IR Inten    --     22.6782                63.4971                27.9271

                     64                     65                     66
                      A                      A                      A
 Frequencies --   1359.0224              1364.1325              1372.2693
 Red. masses --      1.3032                 1.6646                 1.2929
 Frc consts  --      1.4181                 1.8250                 1.4345
 IR Inten    --     12.2083                 8.0074                10.8250

                     67                     68                     69
                      A                      A                      A
 Frequencies --   1383.7979              1396.8588              1411.9318
 Red. masses --      1.2582                 1.3815                 1.4821
 Frc consts  --      1.4196                 1.5882                 1.7409
 IR Inten    --      3.6483                 3.3732                 7.7899

                     70                     71                     72
                      A                      A                      A
 Frequencies --   1420.3648              1427.0936              1432.0957
 Red. masses --      1.4554                 1.5780                 1.8150
 Frc consts  --      1.7299                 1.8935                 2.1932
 IR Inten    --      0.1210                35.2950                91.7511

                     73                     74                     75
                      A                      A                      A
 Frequencies --   1438.8051              1441.5174              1449.6569
 Red. masses --      1.3082                 1.2507                 1.4644
 Frc consts  --      1.5956                 1.5312                 1.8132
 IR Inten    --      2.0175                 8.4614                65.6123

                     76                     77                     78
                      A                      A                      A
 Frequencies --   1456.9127              1488.5297              1503.8570
 Red. masses --      2.0483                 1.3078                 1.1494
 Frc consts  --      2.5616                 1.7073                 1.5316
 IR Inten    --    248.3170                19.5870                 6.5245

                     79                     80                     81
                      A                      A                      A
 Frequencies --   1505.2860              1511.7239              1519.5503
 Red. masses --      1.0966                 1.0917                 1.0991
 Frc consts  --      1.4640                 1.4700                 1.4952
 IR Inten    --      3.2397                 6.1223                 5.0565

                     82                     83                     84
                      A                      A                      A
 Frequencies --   1523.2538              1526.6074              1529.0142
 Red. masses --      1.0603                 1.0757                 1.0454
 Frc consts  --      1.4495                 1.4770                 1.4400
 IR Inten    --      1.9624                 3.9288                 6.4520

                     85                     86                     87
                      A                      A                      A
 Frequencies --   1531.4726              1536.9129              1542.8735
 Red. masses --      1.0598                 1.0936                 1.0831
 Frc consts  --      1.4644                 1.5220                 1.5190
 IR Inten    --      3.4725                 3.7160                12.3155

                     88                     89                     90
                      A                      A                      A
 Frequencies --   1768.9497              1839.6661              2994.7394
 Red. masses --      7.3206                 9.5312                 1.0820
 Frc consts  --     13.4968                19.0052                 5.7175
 IR Inten    --    363.9068               283.8074                 5.9409

                     91                     92                     93
                      A                      A                      A
 Frequencies --   3009.7096              3015.3373              3018.5453
 Red. masses --      1.0738                 1.0692                 1.0697
 Frc consts  --      5.7307                 5.7277                 5.7427
 IR Inten    --     36.2391                 4.5279                45.5112

                     94                     95                     96
                      A                      A                      A
 Frequencies --   3036.4143              3041.3375              3042.1321
 Red. masses --      1.0493                 1.0652                 1.0475
 Frc consts  --      5.7001                 5.8054                 5.7119
 IR Inten    --      9.9004                11.9826                65.3725

                     97                     98                     99
                      A                      A                      A
 Frequencies --   3046.8944              3063.0325              3063.9090
 Red. masses --      1.0368                 1.0944                 1.0616
 Frc consts  --      5.6708                 6.0497                 5.8718
 IR Inten    --     16.2343                53.1385                11.9788

                    100                    101                    102
                      A                      A                      A
 Frequencies --   3076.5441              3080.7139              3103.9839
 Red. masses --      1.1034                 1.1032                 1.1012
 Frc consts  --      6.1534                 6.1687                 6.2510
 IR Inten    --     16.0037                60.2841                51.0539

                    103                    104                    105
                      A                      A                      A
 Frequencies --   3109.2430              3110.4220              3111.6349
 Red. masses --      1.0992                 1.1008                 1.1025
 Frc consts  --      6.2611                 6.2745                 6.2896
 IR Inten    --     18.5038                 2.2682                37.9843

                    106                    107                    108
                      A                      A                      A
 Frequencies --   3122.4178              3130.5603              3143.4662
 Red. masses --      1.0896                 1.1009                 1.0889
 Frc consts  --      6.2591                 6.3569                 6.3396
 IR Inten    --     16.3102                22.4165                19.7319

                    109                    110                    111
                      A                      A                      A
 Frequencies --   3177.4153              3524.3400              3677.1124
 Red. masses --      1.0887                 1.0737                 1.0638
 Frc consts  --      6.4763                 7.8579                 8.4743
 IR Inten    --      1.4315                 7.6187                44.2366

 - Thermochemistry -
 -------------------
 Temperature   298.150 Kelvin.  Pressure   1.00000 Atm.
 Atom     1 has atomic number  6 and mass  12.00000

 Molecular mass:   242.16304 amu.
 Principal axes and moments of inertia in atomic units:
                           1         2         3
     Eigenvalues --  2706.171716601.763018269.89376
           X            0.99956  -0.02929   0.00545
           Y            0.02944   0.99909  -0.03070
           Z           -0.00455   0.03085   0.99951
 This molecule is an asymmetric top.
 Rotational symmetry number  1.
 Warning -- assumption of classical behavior for rotation
           may cause significant error
 Rotational temperatures (Kelvin)      0.03201     0.01312     0.01047
 Rotational constants (GHZ):           0.66690     0.27337     0.21823
 Zero-point vibrational energy     907561.6 (Joules/Mol)
                                  216.91243 (Kcal/Mol)
 Warning -- explicit consideration of  28 degrees of freedom as
           vibrations may cause significant error
 Vibrational temperatures:     38.29    43.93    59.70    75.14   111.20
          (Kelvin)            145.40   180.95   209.49   213.76   258.08
                              319.00   341.74   350.09   402.23   431.83
                              437.89   468.35   481.38   506.92   579.02
                              595.07   647.80   664.70   680.31   759.18
                              805.36   826.55   890.15   938.40  1008.91
                             1044.22  1089.02  1142.89  1188.14  1237.24
                             1262.71  1281.06  1323.55  1324.74  1354.75
                             1366.05  1379.96  1412.55  1433.49  1476.20
                             1523.77  1552.11  1578.41  1592.67  1605.06
                             1635.26  1663.91  1699.13  1700.24  1720.41
                             1733.68  1794.29  1802.54  1829.96  1882.64
                             1893.31  1899.48  1916.03  1955.33  1962.68
                             1974.39  1990.98  2009.77  2031.45  2043.59
                             2053.27  2060.47  2070.12  2074.02  2085.73
                             2096.17  2141.66  2163.71  2165.77  2175.03
                             2186.29  2191.62  2196.45  2199.91  2203.45
                             2211.27  2219.85  2545.12  2646.87  4308.76
                             4330.30  4338.40  4343.01  4368.72  4375.81
                             4376.95  4383.80  4407.02  4408.28  4426.46
                             4432.46  4465.94  4473.51  4475.20  4476.95
                             4492.46  4504.18  4522.75  4571.59  5070.74
                             5290.54

 Zero-point correction=                           0.345672 (Hartree/Particle)
 Thermal correction to Energy=                    0.363631
 Thermal correction to Enthalpy=                  0.364576
 Thermal correction to Gibbs Free Energy=         0.298303
 Sum of electronic and zero-point Energies=           -805.467475
 Sum of electronic and thermal Energies=              -805.449515
 Sum of electronic and thermal Enthalpies=            -805.448571
 Sum of electronic and thermal Free Energies=         -805.514843

                     E (Thermal)             CV                S
                      KCal/Mol        Cal/Mol-Kelvin    Cal/Mol-Kelvin
 Total                  228.182             67.413            139.481
 Electronic               0.000              0.000              0.000
 Translational            0.889              2.981             42.354
 Rotational               0.889              2.981             33.357
 Vibrational            226.405             61.451             63.770
 Vibration     1          0.593              1.984              6.067
 Vibration     2          0.594              1.984              5.795
 Vibration     3          0.594              1.981              5.186
 Vibration     4          0.596              1.977              4.731
 Vibration     5          0.599              1.964              3.959
 Vibration     6          0.604              1.948              3.434
 Vibration     7          0.611              1.927              3.010
 Vibration     8          0.617              1.907              2.729
 Vibration     9          0.618              1.904              2.690
 Vibration    10          0.629              1.868              2.335
 Vibration    11          0.648              1.808              1.945
 Vibration    12          0.656              1.783              1.821
 Vibration    13          0.659              1.774              1.778
 Vibration    14          0.680              1.711              1.536
 Vibration    15          0.693              1.673              1.416
 Vibration    16          0.695              1.665              1.393
 Vibration    17          0.710              1.624              1.282
 Vibration    18          0.716              1.606              1.238
 Vibration    19          0.729              1.570              1.156
 Vibration    20          0.768              1.465              0.954
 Vibration    21          0.777              1.441              0.914
 Vibration    22          0.809              1.360              0.795
 Vibration    23          0.820              1.334              0.760
 Vibration    24          0.830              1.310              0.730
 Vibration    25          0.883              1.189              0.592
 Vibration    26          0.915              1.118              0.524
 Vibration    27          0.931              1.086              0.496
 Vibration    28          0.979              0.992              0.419

                           ! Non-Optimized Parameters !
 Normal termination of Gaussian 16 at Mon Dec 14 17:01:39 2020.

 ----------------------------------------------------------------------
 # B3LYP/6-311++G(d,p) empiricaldispersion=gd3bj scf=xqc pop=npa geom=c
 heck
 ----------------------------------------------------------------------

 --------------------------------------
 CID_55248642_JID_7575_Energie_neutraal
 --------------------------------------
 Structure from the checkpoint file:  "JID_7575.chk"
 Charge =  0 Multiplicity = 1

 SCF Done:  E(RB3LYP) =  -806.055899058     A.U. after   15 cycles
 Normal termination of Gaussian 16 at Mon Dec 14 17:09:53 2020.

 ----------------------------------------------------------------------
 # B3LYP/6-311++G(d,p) empiricaldispersion=gd3bj scf=xqc pop=npa geom=c
 heck
 ----------------------------------------------------------------------

 ------------------------------------
 CID_55248642_JID_7575_Energie_kation
 ------------------------------------
 Structure from the checkpoint file:  "JID_7575.chk"
 Charge =  1 Multiplicity = 2

 SCF Done:  E(UB3LYP) =  -805.749808306     A.U. after   27 cycles
 Normal termination of Gaussian 16 at Mon Dec 14 17:32:07 2020.
 Gaussian 16:  ES64L-G16RevA.03 25-Dec-2016

 ----------------------------------------------------------------------
 # B3LYP/6-311++G(d,p) empiricaldispersion=gd3bj scf=xqc pop=npa geom=c
 heck
 ----------------------------------------------------------------------

 -----------------------------------
 CID_55248642_JID_7575_Energie_anion
 -----------------------------------
 Structure from the checkpoint file:  "JID_7575.chk"
 Charge = -1 Multiplicity = 2

                         Standard orientation:
 ---------------------------------------------------------------------
 Center     Atomic      Atomic             Coordinates (Angstroms)
 Number     Number       Type             X           Y           Z
 ---------------------------------------------------------------------
      1          6           0       -4.181952    2.297325   -0.118450
      2          6           0       -3.196018    1.227858    0.366562
      3          6           0       -3.863862   -0.153366    0.352693
      4          6           0       -2.969227   -1.334857    0.748743
      5          6           0       -1.912672   -1.715340   -0.293092
      6          7           0       -0.677005   -0.928528   -0.214512
      7          6           0       -0.717652    0.490820    0.149971
      8          6           0       -1.892188    1.283322   -0.445084
      9          6           0        0.403740   -1.488234   -0.853199
     10          8           0        0.314785   -2.494943   -1.552838
     11          7           0        1.647319   -0.842995   -0.671378
     12          6           0        2.184440   -0.671003    0.691750
     13          6           0        2.464748   -2.007121    1.386425
     14          6           0        3.444529    0.195102    0.593243
     15          6           0        3.121971    1.573635    0.059591
     16          8           0        2.187137    2.259400    0.415133
     17          8           0        4.020567    1.989102   -0.861397
     18          1           0       -3.750729    3.301930   -0.040480
     19          1           0       -5.107871    2.280451    0.468113
     20          1           0       -4.451186    2.130200   -1.169226
     21          1           0       -2.930685    1.459460    1.410538
     22          1           0       -4.734687   -0.123477    1.020952
     23          1           0       -4.260185   -0.345125   -0.656083
     24          1           0       -3.611195   -2.214001    0.883168
     25          1           0       -2.492174   -1.155685    1.721512
     26          1           0       -2.348669   -1.644191   -1.300647
     27          1           0       -1.619832   -2.759805   -0.169006
     28          1           0        0.212808    0.935087   -0.197303
     29          1           0       -0.735112    0.606095    1.243838
     30          1           0       -2.068887    0.966650   -1.482084
     31          1           0       -1.569666    2.331172   -0.494704
     32          1           0        2.309596   -1.349994   -1.254069
     33          1           0        1.448449   -0.112526    1.272063
     34          1           0        3.220207   -2.583641    0.838987
     35          1           0        2.827672   -1.852392    2.409134
     36          1           0        1.551707   -2.608572    1.433487
     37          1           0        3.884088    0.319522    1.590806
     38          1           0        4.201256   -0.281502   -0.038259
     39          1           0        3.737838    2.883696   -1.131596
 ---------------------------------------------------------------------

 SCF Done:  E(UB3LYP) =  -806.045526638     A.U. after   33 cycles
 SCF Done:  E(UB3LYP) =  -806.045526638     a.u. after    1 cycles

 The electronic state is 2-A.
 Alpha  occ. eigenvalues --  -19.07785 -19.02198 -18.98975 -14.24410 -14.22948
 Alpha  occ. eigenvalues --  -10.21484 -10.19552 -10.12737 -10.10934 -10.10843
 Alpha  occ. eigenvalues --  -10.09572 -10.08855 -10.08347 -10.08088 -10.07995
 Alpha  occ. eigenvalues --  -10.07666 -10.07460  -1.01812  -0.95461  -0.92837
 Alpha  occ. eigenvalues --   -0.84580  -0.82299  -0.73425  -0.70177  -0.68891
 Alpha  occ. eigenvalues --   -0.64120  -0.63434  -0.59919  -0.56052  -0.54654
 Alpha  occ. eigenvalues --   -0.52119  -0.50121  -0.47970  -0.46475  -0.43327
 Alpha  occ. eigenvalues --   -0.40968  -0.40117  -0.39790  -0.38519  -0.37363
 Alpha  occ. eigenvalues --   -0.37077  -0.36695  -0.35937  -0.34593  -0.33108
 Alpha  occ. eigenvalues --   -0.32828  -0.32143  -0.31853  -0.31104  -0.30743
 Alpha  occ. eigenvalues --   -0.29889  -0.29657  -0.28950  -0.28483  -0.27682
 Alpha  occ. eigenvalues --   -0.26776  -0.25728  -0.25340  -0.24043  -0.23559
 Alpha  occ. eigenvalues --   -0.23200  -0.22772  -0.19282  -0.18967  -0.15492
 Alpha  occ. eigenvalues --   -0.14853   0.03930
 Alpha virt. eigenvalues --    0.05380   0.06216   0.06968   0.07369   0.08022
 Alpha virt. eigenvalues --    0.08291   0.09016   0.09410   0.09654   0.10350
 Alpha virt. eigenvalues --    0.10436   0.10921   0.11210   0.11858   0.12324

  Beta  occ. eigenvalues --  -19.07733 -19.02182 -18.98972 -14.24409 -14.22941
  Beta  occ. eigenvalues --  -10.21462 -10.19550 -10.12734 -10.10930 -10.10836
  Beta  occ. eigenvalues --  -10.09534 -10.08848 -10.08331 -10.08081 -10.07980
  Beta  occ. eigenvalues --  -10.07651 -10.07427  -1.01734  -0.95455  -0.92778
  Beta  occ. eigenvalues --   -0.84573  -0.82287  -0.73406  -0.70136  -0.68867
  Beta  occ. eigenvalues --   -0.64098  -0.63365  -0.59895  -0.56020  -0.54580
  Beta  occ. eigenvalues --   -0.52083  -0.50034  -0.47935  -0.46452  -0.43307
  Beta  occ. eigenvalues --   -0.40915  -0.40092  -0.39760  -0.38487  -0.37315
  Beta  occ. eigenvalues --   -0.37046  -0.36659  -0.35908  -0.34561  -0.33075
  Beta  occ. eigenvalues --   -0.32797  -0.32115  -0.31830  -0.31080  -0.30707
  Beta  occ. eigenvalues --   -0.29846  -0.29634  -0.28926  -0.28457  -0.27649
  Beta  occ. eigenvalues --   -0.26743  -0.25708  -0.25312  -0.24011  -0.23515
  Beta  occ. eigenvalues --   -0.23176  -0.22737  -0.19245  -0.18956  -0.15481
  Beta  occ. eigenvalues --   -0.14846
  Beta virt. eigenvalues --    0.05831   0.06525   0.06946   0.07447   0.07800
  Beta virt. eigenvalues --    0.08337   0.08597   0.09342   0.09643   0.10011
  Beta virt. eigenvalues --    0.10491   0.10544   0.11059   0.11365   0.12054

 Mulliken charges and spin densities:
               1          2
     1  C    0.356011  -1.053574
     2  C   -0.426731   1.020032
     3  C   -0.159962  -0.255502
     4  C   -0.109337  -0.208170
     5  C   -0.065512  -0.269242
     6  N    0.132492   0.071670
     7  C   -1.056571   0.595728
     8  C    0.761423  -1.651539
     9  C    0.191834  -0.201003
    10  O   -0.324351   0.013976
    11  N   -0.000648  -0.043066
    12  C   -1.698424   1.677470
    13  C    0.618327  -1.161323
    14  C    2.144404  -2.543944
    15  C   -0.968897   0.835180
    16  O   -0.241451   0.001465
    17  O   -0.117202   0.029828
    18  H    0.006855   0.122704
    19  H   -0.135008   0.283443
    20  H    0.099730   0.029437
    21  H    0.004844   0.163178
    22  H   -0.200636   0.345023
    23  H    0.077476   0.066314
    24  H   -0.228000   0.408365
    25  H   -0.011600   0.172487
    26  H    0.153004   0.023444
    27  H    0.170557   0.027666
    28  H    0.507173  -0.164514
    29  H   -0.062196   0.210413
    30  H    0.117306   0.058550
    31  H    0.081227   0.093764
    32  H    0.219703   0.070236
    33  H    0.388222  -0.179105
    34  H    0.101342   0.039818
    35  H   -0.357005   0.525530
    36  H   -0.079915   0.250133
    37  H   -0.567445   0.772090
    38  H    0.144290   0.070414
    39  H   -0.465329   0.752625
 Sum of Mulliken charges =  -1.00000   1.00000

 Dipole moment (field-independent basis, Debye):
    X=             -3.6461    Y=             -1.3905    Z=             -1.6501  Tot=              4.2368
 Quadrupole moment (field-independent basis, Debye-Ang):
   XX=           -193.2693   YY=           -159.3434   ZZ=           -144.9668
   XY=            -10.6793   XZ=              2.7689   YZ=              0.5086

 Summary of Natural Population Analysis:

                                       Natural Population
                Natural  -----------------------------------------------
    Atom  No    Charge         Core      Valence    Rydberg      Total
 -----------------------------------------------------------------------
      C    1   -0.28066      0.99965     2.27625    0.00476     3.28066
      C    2   -0.11280      0.99960     2.10331    0.00989     3.11280
      C    3   -0.18754      0.99961     2.17805    0.00988     3.18754
      C    4   -0.19872      0.99962     2.19076    0.00834     3.19872
      C    5   -0.08434      0.99961     2.07346    0.01127     3.08434
      N    6   -0.26361      0.99963     2.75501    0.00897     3.76361
      C    7   -0.09231      0.99959     2.08218    0.01054     3.09231
      C    8   -0.19456      0.99960     2.18779    0.00717     3.19456
      C    9    0.41521      0.99966     1.56219    0.02293     2.58479
      O   10   -0.33918      0.99988     3.33446    0.00485     4.33918
      N   11   -0.34552      0.99969     2.83614    0.00969     3.84552
      C   12   -0.01469      0.99959     2.00320    0.01190     3.01469
      C   13   -0.29079      0.99965     2.28527    0.00587     3.29079
      C   14   -0.23936      0.99955     2.22948    0.01033     3.23936
      C   15    0.41571      0.99972     1.55917    0.02540     2.58429
      O   16   -0.31200      0.99987     3.30590    0.00624     4.31200
      O   17   -0.34173      0.99988     3.33508    0.00677     4.34173
      H   18    0.09883      0.00000     0.40029    0.00088     0.40117
      H   19    0.09950      0.00000     0.39953    0.00097     0.40050
      H   20    0.09500      0.00000     0.40408    0.00092     0.40500
      H   21    0.09240      0.00000     0.40574    0.00187     0.40760
      H   22    0.10045      0.00000     0.39839    0.00115     0.39955
      H   23    0.09138      0.00000     0.40744    0.00118     0.40862
      H   24    0.10297      0.00000     0.39614    0.00089     0.39703
      H   25    0.10012      0.00000     0.39858    0.00130     0.39988
      H   26    0.09027      0.00000     0.40867    0.00106     0.40973
      H   27    0.10886      0.00000     0.39016    0.00098     0.39114
      H   28    0.12034      0.00000     0.37758    0.00208     0.37966
      H   29    0.09071      0.00000     0.40757    0.00172     0.40929
      H   30    0.09790      0.00000     0.40104    0.00106     0.40210
      H   31    0.10530      0.00000     0.39368    0.00102     0.39470
      H   32    0.18742      0.00000     0.31045    0.00213     0.31258
      H   33    0.10531      0.00000     0.39187    0.00283     0.39469
      H   34    0.09721      0.00000     0.40180    0.00099     0.40279
      H   35    0.10470      0.00000     0.39409    0.00121     0.39530
      H   36    0.10451      0.00000     0.39448    0.00100     0.39549
      H   37    0.12172      0.00000     0.37587    0.00241     0.37828
      H   38    0.10805      0.00000     0.39057    0.00138     0.39195
      H   39    0.24396      0.00000     0.24217    0.01387     0.25604
 =======================================================================
   * Total *   -0.00000     16.99438    48.78791    0.21770    66.00000

 Normal termination of Gaussian 16 at Mon Dec 14 17:58:16 2020.
