 Gaussian 16, Revision A.03,

 -----------------------------------------------------------
 # opt freq B3LYP/6-31G(d) empiricaldispersion=gd3bj scf=xqc
 -----------------------------------------------------------

 ------------------------------
 CID_150377742_JID_335_neutraal
 ------------------------------
 Symbolic Z-matrix:
 Charge =  0 Multiplicity = 1

 SCF Done:  E(RB3LYP) =  -437.548158326     A.U. after   15 cycles
 SCF Done:  E(RB3LYP) =  -437.558452266     A.U. after   14 cycles
 SCF Done:  E(RB3LYP) =  -437.558746110     A.U. after   15 cycles
 SCF Done:  E(RB3LYP) =  -437.559970950     A.U. after   13 cycles
 SCF Done:  E(RB3LYP) =  -437.560053771     A.U. after   12 cycles
 SCF Done:  E(RB3LYP) =  -437.560088288     A.U. after   11 cycles
 SCF Done:  E(RB3LYP) =  -437.560094320     A.U. after    9 cycles
 SCF Done:  E(RB3LYP) =  -437.560098613     A.U. after   10 cycles
 SCF Done:  E(RB3LYP) =  -437.560101095     A.U. after   10 cycles
 SCF Done:  E(RB3LYP) =  -437.560102733     A.U. after   10 cycles
 SCF Done:  E(RB3LYP) =  -437.560104043     A.U. after   10 cycles
 SCF Done:  E(RB3LYP) =  -437.560104195     A.U. after    8 cycles
 SCF Done:  E(RB3LYP) =  -437.560104227     A.U. after    7 cycles
 Optimization completed.
    -- Stationary point found.

 1\1\GINC-NODE100\FOpt\RB3LYP\6-31G(d)\C7H11N3\VSC10255\08-Dec-2020\0\\
 # opt freq B3LYP/6-31G(d) empiricaldispersion=gd3bj scf=xqc\\CID_15037
 7742_JID_335_neutraal\\0,1\C,1.0696343487,-0.0427357794,-0.0357317635\
 C,0.5060358243,0.3486161311,-1.3978027507\C,0.190138318,1.8705834203,-
 1.5832968777\C,-1.2971058269,1.779056288,-1.9813967176\C,-1.295255835,
 0.5869771961,-2.9803310863\C,-0.9148495966,-0.1990610587,-1.7041954725
 \C,-1.8526345424,0.7751111603,-0.9333983225\N,-1.0711682271,-1.6496281
 564,-1.6995417176\N,-1.3732535793,-2.1576450263,-0.6164774275\N,-1.668

 Normal termination of Gaussian 16 at Tue Dec  8 10:24:20 2020.

 --------------------------------------------------------------------
 #N Geom=AllCheck Guess=TCheck SCRF=Check GenChk RB3LYP/6-31G(d) Freq
 --------------------------------------------------------------------

 Structure from the checkpoint file:  "JID_335.chk"
 ------------------------------
 CID_150377742_JID_335_neutraal
 ------------------------------
 Charge =  0 Multiplicity = 1

 SCF Done:  E(RB3LYP) =  -437.560104227     A.U. after    1 cycles

  Exact polarizability: 107.153   4.105  79.088  10.318   1.545  74.874
 Approx polarizability: 170.618  12.953 109.845  36.531   9.903 131.578

                      1                      2                      3
                      A                      A                      A
 Frequencies --     27.7863               112.2232               190.8030
 Red. masses --      6.5595                 4.5969                 2.8081
 Frc consts  --      0.0030                 0.0341                 0.0602
 IR Inten    --      0.0240                 0.5370                 0.4354

                      4                      5                      6
                      A                      A                      A
 Frequencies --    235.5193               243.5594               351.2609
 Red. masses --      1.0874                 3.3718                 3.7100
 Frc consts  --      0.0355                 0.1178                 0.2697
 IR Inten    --      0.0160                 1.6151                 2.8229

                      7                      8                      9
                      A                      A                      A
 Frequencies --    371.2918               420.4117               479.7308
 Red. masses --      3.0802                 1.8333                 3.7563
 Frc consts  --      0.2502                 0.1909                 0.5093
 IR Inten    --      2.2045                 0.2440                 0.3531

                     10                     11                     12
                      A                      A                      A
 Frequencies --    513.3868               540.0909               562.2536
 Red. masses --      3.7070                 2.0449                13.1890
 Frc consts  --      0.5757                 0.3514                 2.4566
 IR Inten    --      1.8863                 0.3209                 9.4872

                     13                     14                     15
                      A                      A                      A
 Frequencies --    629.4483               737.3210               794.2790
 Red. masses --      3.3887                 6.7360                 2.9093
 Frc consts  --      0.7910                 2.1576                 1.0814
 IR Inten    --      1.1947                 8.7559                 1.5711

                     16                     17                     18
                      A                      A                      A
 Frequencies --    842.2033               856.4212               898.0932
 Red. masses --      2.5857                 2.6236                 2.5068
 Frc consts  --      1.0806                 1.1338                 1.1913
 IR Inten    --      0.9701                 0.3738                 1.4831

                     19                     20                     21
                      A                      A                      A
 Frequencies --    914.8410               952.7678               985.4140
 Red. masses --      1.3718                 2.0146                 1.6958
 Frc consts  --      0.6764                 1.0775                 0.9702
 IR Inten    --      2.9509                 1.4473                 6.3066

                     22                     23                     24
                      A                      A                      A
 Frequencies --    989.0852              1019.3358              1033.0963
 Red. masses --      1.7760                 1.6734                 1.1232
 Frc consts  --      1.0237                 1.0244                 0.7063
 IR Inten    --      6.0123                 3.2503                 0.4048

                     25                     26                     27
                      A                      A                      A
 Frequencies --   1081.1474              1110.9315              1118.6840
 Red. masses --      1.4470                 2.1025                 1.3100
 Frc consts  --      0.9966                 1.5288                 0.9659
 IR Inten    --      2.2784                 0.4906                 4.4083

                     28                     29                     30
                      A                      A                      A
 Frequencies --   1134.9675              1168.4668              1185.8976
 Red. masses --      2.9488                 2.0540                 1.7713
 Frc consts  --      2.2380                 1.6523                 1.4677
 IR Inten    --     23.0006                 3.1254                 0.5325

                     31                     32                     33
                      A                      A                      A
 Frequencies --   1221.9780              1225.7024              1262.7279
 Red. masses --      1.4466                 2.2012                 1.7384
 Frc consts  --      1.2727                 1.9484                 1.6331
 IR Inten    --      0.4893                10.8952                16.0632

                     34                     35                     36
                      A                      A                      A
 Frequencies --   1280.2822              1284.2330              1329.7827
 Red. masses --      1.5156                 1.6643                 1.5672
 Frc consts  --      1.4637                 1.6172                 1.6328
 IR Inten    --      1.0768                 0.6397                 3.8629

                     37                     38                     39
                      A                      A                      A
 Frequencies --   1335.3030              1358.4557              1398.5569
 Red. masses --      1.7678                 6.0661                 1.4075
 Frc consts  --      1.8572                 6.5956                 1.6220
 IR Inten    --     15.3284               163.5664                 6.5967

                     40                     41                     42
                      A                      A                      A
 Frequencies --   1442.1246              1516.0484              1524.0773
 Red. masses --      1.2660                 1.0921                 1.0737
 Frc consts  --      1.5513                 1.4789                 1.4694
 IR Inten    --      4.3522                 1.0742                 3.2692

                     43                     44                     45
                      A                      A                      A
 Frequencies --   1529.4810              1534.1423              1557.5385
 Red. masses --      1.0696                 1.0508                 1.1304
 Frc consts  --      1.4742                 1.4571                 1.6158
 IR Inten    --      1.0207                 7.1695                 3.9578

                     46                     47                     48
                      A                      A                      A
 Frequencies --   2262.0756              3048.4243              3058.1780
 Red. masses --     13.9701                 1.0360                 1.0817
 Frc consts  --     42.1176                 5.6721                 5.9606
 IR Inten    --    539.6233                16.2130                15.6611

                     49                     50                     51
                      A                      A                      A
 Frequencies --   3063.8276              3076.8583              3085.1219
 Red. masses --      1.0633                 1.0584                 1.0579
 Frc consts  --      5.8805                 5.9034                 5.9326
 IR Inten    --     35.9267                44.4157                 5.8939

                     52                     53                     54
                      A                      A                      A
 Frequencies --   3108.2531              3114.8536              3118.4824
 Red. masses --      1.1060                 1.1017                 1.1019
 Frc consts  --      6.2957                 6.2979                 6.3138
 IR Inten    --     22.6100                31.5638                38.0615

                     55                     56                     57
                      A                      A                      A
 Frequencies --   3139.4151              3140.7080              3145.3812
 Red. masses --      1.0958                 1.1085                 1.1038
 Frc consts  --      6.3635                 6.4425                 6.4342
 IR Inten    --     38.4405                19.7243                50.0385

 - Thermochemistry -
 -------------------
 Temperature   298.150 Kelvin.  Pressure   1.00000 Atm.
 Atom     1 has atomic number  6 and mass  12.00000

 Molecular mass:   137.09530 amu.
 Principal axes and moments of inertia in atomic units:
                           1         2         3
     Eigenvalues --   764.339811568.354761900.49842
           X            0.99993   0.01168   0.00162
           Y           -0.01167   0.99993  -0.00361
           Z           -0.00167   0.00359   0.99999
 This molecule is an asymmetric top.
 Rotational symmetry number  1.
 Warning -- assumption of classical behavior for rotation
           may cause significant error
 Rotational temperatures (Kelvin)      0.11332     0.05523     0.04557
 Rotational constants (GHZ):           2.36118     1.15072     0.94961
 Zero-point vibrational energy     470507.6 (Joules/Mol)
                                  112.45402 (Kcal/Mol)
 Warning -- explicit consideration of  12 degrees of freedom as
           vibrations may cause significant error
 Vibrational temperatures:     39.98   161.46   274.52   338.86   350.43
          (Kelvin)            505.39   534.21   604.88   690.23   738.65
                              777.07   808.96   905.64  1060.84  1142.79
                             1211.74  1232.20  1292.16  1316.25  1370.82
                             1417.79  1423.07  1466.60  1486.40  1555.53
                             1598.38  1609.54  1632.97  1681.16  1706.24
                             1758.15  1763.51  1816.78  1842.04  1847.72
                             1913.26  1921.20  1954.51  2012.21  2074.90
                             2181.26  2192.81  2200.58  2207.29  2240.95
                             3254.62  4386.00  4400.04  4408.16  4426.91
                             4438.80  4472.08  4481.58  4486.80  4516.92
                             4518.78  4525.50

 Zero-point correction=                           0.179207 (Hartree/Particle)
 Thermal correction to Energy=                    0.188043
 Thermal correction to Enthalpy=                  0.188987
 Thermal correction to Gibbs Free Energy=         0.144761
 Sum of electronic and zero-point Energies=           -437.380897
 Sum of electronic and thermal Energies=              -437.372062
 Sum of electronic and thermal Enthalpies=            -437.371117
 Sum of electronic and thermal Free Energies=         -437.415343

                     E (Thermal)             CV                S
                      KCal/Mol        Cal/Mol-Kelvin    Cal/Mol-Kelvin
 Total                  117.999             34.360             93.081
 Electronic               0.000              0.000              0.000
 Translational            0.889              2.981             40.658
 Rotational               0.889              2.981             29.212
 Vibrational            116.221             28.398             23.211
 Vibration     1          0.593              1.984              5.982
 Vibration     2          0.607              1.939              3.230
 Vibration     3          0.634              1.853              2.220
 Vibration     4          0.655              1.786              1.836
 Vibration     5          0.659              1.773              1.777
 Vibration     6          0.728              1.573              1.161
 Vibration     7          0.743              1.531              1.074
 Vibration     8          0.783              1.426              0.891
 Vibration     9          0.836              1.295              0.711
 Vibration    10          0.868              1.220              0.625
 Vibration    11          0.895              1.161              0.565
 Vibration    12          0.918              1.113              0.519

 Optimization completed.
    -- Stationary point found.

 1\1\GINC-NODE100\Freq\RB3LYP\6-31G(d)\C7H11N3\VSC10255\08-Dec-2020\0\\
 #N Geom=AllCheck Guess=TCheck SCRF=Check GenChk RB3LYP/6-31G(d) Freq\\
 CID_150377742_JID_335_neutraal\\0,1\C,1.0696343487,-0.0427357794,-0.03
 57317635\C,0.5060358243,0.3486161311,-1.3978027507\C,0.190138318,1.870
 5834203,-1.5832968777\C,-1.2971058269,1.779056288,-1.9813967176\C,-1.2
 95255835,0.5869771961,-2.9803310863\C,-0.9148495966,-0.1990610587,-1.7
 041954725\C,-1.8526345424,0.7751111603,-0.9333983225\N,-1.0711682271,-
 1.6496281564,-1.6995417176\N,-1.3732535793,-2.1576450263,-0.6164774275

 Normal termination of Gaussian 16 at Tue Dec  8 10:28:23 2020.

 ----------------------------------------------------------------------
 # B3LYP/6-311++G(d,p) empiricaldispersion=gd3bj scf=xqc pop=npa geom=c
 heck
 ----------------------------------------------------------------------

 --------------------------------------
 CID_150377742_JID_335_Energie_neutraal
 --------------------------------------
 Structure from the checkpoint file:  "JID_335.chk"
 Charge =  0 Multiplicity = 1

 SCF Done:  E(RB3LYP) =  -437.675665546     A.U. after   14 cycles
 Normal termination of Gaussian 16 at Tue Dec  8 10:29:41 2020.

 ----------------------------------------------------------------------
 # B3LYP/6-311++G(d,p) empiricaldispersion=gd3bj scf=xqc pop=npa geom=c
 heck
 ----------------------------------------------------------------------

 ------------------------------------
 CID_150377742_JID_335_Energie_kation
 ------------------------------------
 Structure from the checkpoint file:  "JID_335.chk"
 Charge =  1 Multiplicity = 2

 SCF Done:  E(UB3LYP) =  -437.346422618     A.U. after   23 cycles
 Normal termination of Gaussian 16 at Tue Dec  8 10:35:53 2020.
 Gaussian 16:  ES64L-G16RevA.03 25-Dec-2016

 -----------------------------------
 CID_150377742_JID_335_Energie_anion
 -----------------------------------
 Structure from the checkpoint file:  "JID_335.chk"
 Charge = -1 Multiplicity = 2

                         Standard orientation:
 ---------------------------------------------------------------------
 Center     Atomic      Atomic             Coordinates (Angstroms)
 Number     Number       Type             X           Y           Z
 ---------------------------------------------------------------------
      1          6           0        0.081375    2.162715    0.035411
      2          6           0       -0.682777    0.977156   -0.544726
      3          6           0       -2.065953    0.675953    0.123619
      4          6           0       -1.844202   -0.796957    0.523767
      5          6           0       -1.150609   -1.378357   -0.741076
      6          6           0       -0.027103   -0.410167   -0.303550
      7          6           0       -0.427844   -0.750555    1.161415
      8          7           0        1.314946   -0.601376   -0.842943
      9          7           0        2.247309   -0.301048   -0.092698
     10          7           0        3.189533   -0.075097    0.513806
     11          1           0        1.056682    2.280557   -0.450063
     12          1           0        0.250788    2.052109    1.112571
     13          1           0       -0.478735    3.092351   -0.115564
     14          1           0       -0.795090    1.125196   -1.625160
     15          1           0       -2.247082    1.316059    0.994518
     16          1           0       -2.904259    0.800148   -0.569418
     17          1           0       -2.667411   -1.320204    1.012294
     18          1           0       -0.860677   -2.426012   -0.628668
     19          1           0       -1.616986   -1.207533   -1.717063
     20          1           0       -0.231951   -0.012648    1.945188
     21          1           0       -0.065125   -1.736105    1.465050
 ---------------------------------------------------------------------

 SCF Done:  E(UB3LYP) =  -437.661355574     A.U. after   31 cycles

 The electronic state is 2-A.
 Alpha  occ. eigenvalues --  -14.34526 -14.24571 -14.23358 -10.11037 -10.06982
 Alpha  occ. eigenvalues --  -10.06670 -10.06241 -10.05761 -10.05497 -10.05465
 Alpha  occ. eigenvalues --   -1.01132  -0.85741  -0.78560  -0.65492  -0.60510
 Alpha  occ. eigenvalues --   -0.56701  -0.54753  -0.48269  -0.44186  -0.41703
 Alpha  occ. eigenvalues --   -0.38995  -0.38392  -0.36300  -0.34656  -0.33078
 Alpha  occ. eigenvalues --   -0.31107  -0.29901  -0.27395  -0.26651  -0.26035
 Alpha  occ. eigenvalues --   -0.24206  -0.22109  -0.21385  -0.21074  -0.20252
 Alpha  occ. eigenvalues --   -0.17302  -0.12601   0.05049
 Alpha virt. eigenvalues --    0.07309   0.07806   0.08878   0.09225   0.10672
 Alpha virt. eigenvalues --    0.10867   0.11170   0.12074   0.12573   0.13234
 Alpha virt. eigenvalues --    0.14037   0.14875   0.15203   0.16853   0.17494

  Beta  occ. eigenvalues --  -14.34316 -14.24306 -14.23405 -10.10991 -10.06965
  Beta  occ. eigenvalues --  -10.06664 -10.06229 -10.05739 -10.05469 -10.05448
  Beta  occ. eigenvalues --   -1.00738  -0.85566  -0.78498  -0.65463  -0.60400
  Beta  occ. eigenvalues --   -0.56649  -0.54676  -0.48134  -0.44117  -0.41629
  Beta  occ. eigenvalues --   -0.38563  -0.37843  -0.36190  -0.34615  -0.32459
  Beta  occ. eigenvalues --   -0.31004  -0.29865  -0.27253  -0.26604  -0.25998
  Beta  occ. eigenvalues --   -0.24157  -0.22055  -0.21291  -0.21003  -0.20164
  Beta  occ. eigenvalues --   -0.16984  -0.12529
  Beta virt. eigenvalues --    0.07717   0.08618   0.08993   0.09759   0.10182
  Beta virt. eigenvalues --    0.11250   0.11348   0.11567   0.12695   0.13082
  Beta virt. eigenvalues --    0.13477   0.14467   0.15153   0.15281   0.16968

 Mulliken charges and spin densities:
               1          2
     1  C    0.084342  -0.792401
     2  C   -0.804849   1.104802
     3  C    2.581164  -3.399446
     4  C   -2.026178   2.753881
     5  C    1.041523  -1.620438
     6  C   -0.145874   0.016751
     7  C    1.097106  -1.838857
     8  N   -0.227112   0.032272
     9  N    0.564187   0.088358
    10  N   -0.388427   0.078140
    11  H    0.003973   0.133542
    12  H    0.064547   0.077239
    13  H   -0.066373   0.213393
    14  H   -0.257015   0.476605
    15  H   -0.236406   0.382004
    16  H   -0.394485   0.546088
    17  H   -1.441960   1.683859
    18  H   -0.210811   0.373745
    19  H   -0.285430   0.440375
    20  H    0.075420   0.049647
    21  H   -0.027342   0.200442
 Sum of Mulliken charges =  -1.00000   1.00000

 Dipole moment (field-independent basis, Debye):
    X=              4.1588    Y=              1.4489    Z=              0.3706  Tot=              4.4195
 Quadrupole moment (field-independent basis, Debye-Ang):
   XX=           -122.7234   YY=            -94.6935   ZZ=            -89.5649
   XY=             -1.7049   XZ=              1.5000   YZ=              2.5771

 Summary of Natural Population Analysis:

                                       Natural Population
                Natural  -----------------------------------------------
    Atom  No    Charge         Core      Valence    Rydberg      Total
 -----------------------------------------------------------------------
      C    1   -0.28760      0.99964     2.28130    0.00666     3.28760
      C    2   -0.11144      0.99955     2.09974    0.01214     3.11144
      C    3   -0.18585      0.99962     2.17632    0.00991     3.18585
      C    4   -0.10546      0.99961     2.09133    0.01452     3.10546
      C    5   -0.17868      0.99958     2.16769    0.01141     3.17868
      C    6    0.05469      0.99942     1.92680    0.01910     2.94531
      C    7   -0.19176      0.99958     2.18320    0.00897     3.19176
      N    8   -0.19495      0.99963     2.68131    0.01401     3.69495
      N    9    0.13674      0.99969     2.34809    0.01548     3.36326
      N   10   -0.03497      0.99982     2.52180    0.01336     3.53497
      H   11    0.10080      0.00000     0.39827    0.00093     0.39920
      H   12    0.09622      0.00000     0.40278    0.00100     0.40378
      H   13    0.10076      0.00000     0.39842    0.00082     0.39924
      H   14    0.10033      0.00000     0.39801    0.00166     0.39967
      H   15    0.09704      0.00000     0.40129    0.00166     0.40296
      H   16    0.10348      0.00000     0.39392    0.00260     0.39652
      H   17    0.10225      0.00000     0.39299    0.00476     0.39775
      H   18    0.10199      0.00000     0.39622    0.00179     0.39801
      H   19    0.09748      0.00000     0.40091    0.00161     0.40252
      H   20    0.09610      0.00000     0.40280    0.00110     0.40390
      H   21    0.10284      0.00000     0.39576    0.00140     0.39716
 =======================================================================
   * Total *   -0.00000      9.99615    26.85898    0.14487    37.00000

 Normal termination of Gaussian 16 at Tue Dec  8 10:47:07 2020.
