 Gaussian 16, Revision A.03,

 -----------------------------------------------------------
 # opt freq B3LYP/6-31G(d) empiricaldispersion=gd3bj scf=xqc
 -----------------------------------------------------------

 -------------------------------
 CID_150006174_JID_2631_neutraal
 -------------------------------
 Symbolic Z-matrix:
 Charge =  0 Multiplicity = 1

 SCF Done:  E(RB3LYP) =  -626.275304720     A.U. after   16 cycles
 SCF Done:  E(RB3LYP) =  -626.282661166     A.U. after   14 cycles
 SCF Done:  E(RB3LYP) =  -626.284380379     A.U. after   14 cycles
 SCF Done:  E(RB3LYP) =  -626.284807640     A.U. after   14 cycles
 SCF Done:  E(RB3LYP) =  -626.285048041     A.U. after   13 cycles
 SCF Done:  E(RB3LYP) =  -626.285114820     A.U. after   12 cycles
 SCF Done:  E(RB3LYP) =  -626.285132506     A.U. after   10 cycles
 SCF Done:  E(RB3LYP) =  -626.285138853     A.U. after   11 cycles
 SCF Done:  E(RB3LYP) =  -626.285144059     A.U. after   13 cycles
 SCF Done:  E(RB3LYP) =  -626.285150844     A.U. after   13 cycles
 SCF Done:  E(RB3LYP) =  -626.285290385     A.U. after   13 cycles
 SCF Done:  E(RB3LYP) =  -626.285300290     A.U. after   12 cycles
 SCF Done:  E(RB3LYP) =  -626.285300932     A.U. after    9 cycles
 SCF Done:  E(RB3LYP) =  -626.285301018     A.U. after    9 cycles
 SCF Done:  E(RB3LYP) =  -626.285301112     A.U. after    8 cycles
 Optimization completed.
    -- Stationary point found.
 Normal termination of Gaussian 16 at Wed Dec  9 17:54:31 2020.

 --------------------------------------------------------------------
 #N Geom=AllCheck Guess=TCheck SCRF=Check GenChk RB3LYP/6-31G(d) Freq
 --------------------------------------------------------------------

 Structure from the checkpoint file:  "JID_2631.chk"
 -------------------------------
 CID_150006174_JID_2631_neutraal
 -------------------------------
 Charge =  0 Multiplicity = 1

 SCF Done:  E(RB3LYP) =  -626.285301112     A.U. after    1 cycles

  Exact polarizability: 135.493   0.191  81.871  -7.074  -0.002  75.039
 Approx polarizability: 196.429  -3.308 114.480 -20.250   4.166 117.444

                      1                      2                      3
                      A                      A                      A
 Frequencies --     15.5245                32.5920                60.2712
 Red. masses --      8.5439                 5.1097                 5.0223
 Frc consts  --      0.0012                 0.0032                 0.0107
 IR Inten    --      0.1496                 0.1149                 0.3370

                      4                      5                      6
                      A                      A                      A
 Frequencies --     81.2142               108.4068               136.3144
 Red. masses --      3.8261                 3.0905                 5.8563
 Frc consts  --      0.0149                 0.0214                 0.0641
 IR Inten    --      1.2832                 2.2322                 1.5083

                      7                      8                      9
                      A                      A                      A
 Frequencies --    166.1861               221.6717               239.2235
 Red. masses --      1.6733                 4.5783                 1.9076
 Frc consts  --      0.0272                 0.1325                 0.0643
 IR Inten    --      0.1457                 1.2278                 0.1459

                     10                     11                     12
                      A                      A                      A
 Frequencies --    253.9613               295.9185               313.8740
 Red. masses --      3.0311                 1.1317                 4.5534
 Frc consts  --      0.1152                 0.0584                 0.2643
 IR Inten    --      1.2204               158.4687                11.4845

                     13                     14                     15
                      A                      A                      A
 Frequencies --    322.5640               359.8404               390.3227
 Red. masses --      2.4629                 2.1807                 2.1184
 Frc consts  --      0.1510                 0.1664                 0.1902
 IR Inten    --      8.9289                 5.1117                 6.3727

                     16                     17                     18
                      A                      A                      A
 Frequencies --    423.4973               450.4479               494.3922
 Red. masses --      1.5941                 3.5132                 2.6854
 Frc consts  --      0.1685                 0.4200                 0.3867
 IR Inten    --     29.1561                34.4737                36.8158

                     19                     20                     21
                      A                      A                      A
 Frequencies --    510.7140               539.5293               612.0859
 Red. masses --     13.3580                 2.1693                 3.8293
 Frc consts  --      2.0528                 0.3721                 0.8453
 IR Inten    --      4.7661                15.6751                53.5023

                     22                     23                     24
                      A                      A                      A
 Frequencies --    693.6145               745.4706               788.5867
 Red. masses --     10.1576                 1.5213                 2.0544
 Frc consts  --      2.8792                 0.4981                 0.7527
 IR Inten    --      4.8279                14.3840                 0.7812

                     25                     26                     27
                      A                      A                      A
 Frequencies --    825.3348               893.0113               902.9930
 Red. masses --      2.2950                 1.8683                 2.8454
 Frc consts  --      0.9211                 0.8778                 1.3670
 IR Inten    --      5.3305                17.4694                39.9143

                     28                     29                     30
                      A                      A                      A
 Frequencies --    926.5144               983.1238               994.3507
 Red. masses --      2.9928                 1.8209                 1.7876
 Frc consts  --      1.5137                 1.0369                 1.0414
 IR Inten    --     20.6386                30.7806                 6.5847

                     31                     32                     33
                      A                      A                      A
 Frequencies --   1042.7463              1074.5726              1093.5434
 Red. masses --      2.4613                 1.8212                 3.4204
 Frc consts  --      1.5768                 1.2390                 2.4099
 IR Inten    --    159.6353                26.4172                68.9863

                     34                     35                     36
                      A                      A                      A
 Frequencies --   1107.3984              1117.4747              1155.4605
 Red. masses --      2.4578                 1.6684                 2.4928
 Frc consts  --      1.7758                 1.2275                 1.9609
 IR Inten    --     53.6766                33.2707                21.0116

                     37                     38                     39
                      A                      A                      A
 Frequencies --   1172.1585              1221.3745              1237.3917
 Red. masses --      2.0853                 4.9184                 1.5073
 Frc consts  --      1.6881                 4.3229                 1.3598
 IR Inten    --     27.7771                14.5490                23.9080

                     40                     41                     42
                      A                      A                      A
 Frequencies --   1245.4947              1296.0045              1337.8774
 Red. masses --      1.1626                 1.3026                 1.2000
 Frc consts  --      1.0626                 1.2891                 1.2655
 IR Inten    --     35.6925                17.4574                 2.8924

                     43                     44                     45
                      A                      A                      A
 Frequencies --   1360.8175              1383.2740              1407.9471
 Red. masses --      1.3158                 1.3663                 1.5404
 Frc consts  --      1.4356                 1.5403                 1.7991
 IR Inten    --      7.8130                16.0346                 3.9342

                     46                     47                     48
                      A                      A                      A
 Frequencies --   1411.4430              1437.5079              1442.4049
 Red. masses --      1.3541                 1.5860                 1.3010
 Frc consts  --      1.5894                 1.9310                 1.5948
 IR Inten    --     15.0644                 6.5793                 3.0137

                     49                     50                     51
                      A                      A                      A
 Frequencies --   1454.9427              1510.8534              1519.2287
 Red. masses --      1.9336                 1.0861                 1.0674
 Frc consts  --      2.4116                 1.4607                 1.4516
 IR Inten    --     46.5716                 0.8085                 1.8811

                     52                     53                     54
                      A                      A                      A
 Frequencies --   1523.5231              1532.3619              1537.4613
 Red. masses --      1.0828                 1.0628                 1.0620
 Frc consts  --      1.4807                 1.4704                 1.4790
 IR Inten    --      6.2627                10.1476                 3.4640

                     55                     56                     57
                      A                      A                      A
 Frequencies --   1549.1365              2198.5503              3035.4225
 Red. masses --      1.0806                13.9861                 1.0648
 Frc consts  --      1.5279                39.8310                 5.7803
 IR Inten    --     18.6617               392.2399                26.5698

                     58                     59                     60
                      A                      A                      A
 Frequencies --   3041.4510              3043.0859              3046.1837
 Red. masses --      1.0651                 1.0441                 1.0647
 Frc consts  --      5.8051                 5.6968                 5.8206
 IR Inten    --     32.8180                11.9971                47.3404

                     61                     62                     63
                      A                      A                      A
 Frequencies --   3054.4708              3076.9008              3093.5209
 Red. masses --      1.0673                 1.0951                 1.0956
 Frc consts  --      5.8666                 6.1083                 6.1776
 IR Inten    --     11.8721                43.7988                10.4271

                     64                     65                     66
                      A                      A                      A
 Frequencies --   3112.4440              3115.3704              3116.4990
 Red. masses --      1.1003                 1.0996                 1.0993
 Frc consts  --      6.2800                 6.2881                 6.2905
 IR Inten    --     86.4915                35.0239                34.4764

                     67                     68                     69
                      A                      A                      A
 Frequencies --   3117.1955              3718.0033              3736.8783
 Red. masses --      1.0966                 1.0653                 1.0654
 Frc consts  --      6.2783                 8.6767                 8.7659
 IR Inten    --     16.3257                11.4123                17.9826

 - Thermochemistry -
 -------------------
 Temperature   298.150 Kelvin.  Pressure   1.00000 Atm.
 Atom     1 has atomic number  6 and mass  12.00000

 Molecular mass:   175.09569 amu.
 Principal axes and moments of inertia in atomic units:
                           1         2         3
     Eigenvalues --  1064.235314095.446244627.30370
           X            0.99975  -0.02189   0.00329
           Y            0.02193   0.99970  -0.01070
           Z           -0.00305   0.01077   0.99994
 This molecule is an asymmetric top.
 Rotational symmetry number  1.
 Warning -- assumption of classical behavior for rotation
           may cause significant error
 Rotational temperatures (Kelvin)      0.08139     0.02115     0.01872
 Rotational constants (GHZ):           1.69581     0.44067     0.39002
 Zero-point vibrational energy     541070.5 (Joules/Mol)
                                  129.31896 (Kcal/Mol)
 Warning -- explicit consideration of  21 degrees of freedom as
           vibrations may cause significant error
 Vibrational temperatures:     22.34    46.89    86.72   116.85   155.97
          (Kelvin)            196.13   239.10   318.94   344.19   365.39
                              425.76   451.59   464.10   517.73   561.59
                              609.32   648.09   711.32   734.80   776.26
                              880.66   997.96  1072.57  1134.60  1187.47
                             1284.84  1299.21  1333.05  1414.50  1430.65
                             1500.28  1546.07  1573.37  1593.30  1607.80
                             1662.45  1686.47  1757.29  1780.33  1791.99
                             1864.66  1924.91  1957.91  1990.22  2025.72
                             2030.75  2068.25  2075.30  2093.34  2173.78
                             2185.83  2192.01  2204.73  2212.06  2228.86
                             3163.22  4367.30  4375.97  4378.32  4382.78
                             4394.70  4426.97  4450.89  4478.11  4482.32
                             4483.95  4484.95  5349.38  5376.53

 Zero-point correction=                           0.206083 (Hartree/Particle)
 Thermal correction to Energy=                    0.219939
 Thermal correction to Enthalpy=                  0.220883
 Thermal correction to Gibbs Free Energy=         0.163636
 Sum of electronic and zero-point Energies=           -626.079218
 Sum of electronic and thermal Energies=              -626.065362
 Sum of electronic and thermal Enthalpies=            -626.064418
 Sum of electronic and thermal Free Energies=         -626.121665

                     E (Thermal)             CV                S
                      KCal/Mol        Cal/Mol-Kelvin    Cal/Mol-Kelvin
 Total                  138.014             49.385            120.486
 Electronic               0.000              0.000              0.000
 Translational            0.889              2.981             41.388
 Rotational               0.889              2.981             31.378
 Vibrational            136.236             43.424             47.720
 Vibration     1          0.593              1.986              7.137
 Vibration     2          0.594              1.983              5.665
 Vibration     3          0.597              1.973              4.448
 Vibration     4          0.600              1.962              3.861
 Vibration     5          0.606              1.942              3.297
 Vibration     6          0.614              1.917              2.855
 Vibration     7          0.624              1.884              2.478
 Vibration     8          0.648              1.808              1.945
 Vibration     9          0.657              1.780              1.809
 Vibration    10          0.665              1.756              1.703
 Vibration    11          0.690              1.681              1.440
 Vibration    12          0.702              1.647              1.342
 Vibration    13          0.708              1.630              1.297
 Vibration    14          0.734              1.555              1.123
 Vibration    15          0.758              1.491              0.999
 Vibration    16          0.786              1.419              0.880
 Vibration    17          0.809              1.360              0.794
 Vibration    18          0.850              1.262              0.672
 Vibration    19          0.866              1.226              0.632
 Vibration    20          0.895              1.163              0.566
 Vibration    21          0.971              1.006              0.429

                           ! Non-Optimized Parameters !
 Normal termination of Gaussian 16 at Wed Dec  9 18:00:14 2020.

 ----------------------------------------------------------------------
 # B3LYP/6-311++G(d,p) empiricaldispersion=gd3bj scf=xqc pop=npa geom=c
 heck
 ----------------------------------------------------------------------

 ---------------------------------------
 CID_150006174_JID_2631_Energie_neutraal
 ---------------------------------------
 Structure from the checkpoint file:  "JID_2631.chk"
 Charge =  0 Multiplicity = 1

 SCF Done:  E(RB3LYP) =  -626.485650419     A.U. after   14 cycles
 Normal termination of Gaussian 16 at Wed Dec  9 18:02:13 2020.

 ----------------------------------------------------------------------
 # B3LYP/6-311++G(d,p) empiricaldispersion=gd3bj scf=xqc pop=npa geom=c
 heck
 ----------------------------------------------------------------------

 -------------------------------------
 CID_150006174_JID_2631_Energie_kation
 -------------------------------------
 Structure from the checkpoint file:  "JID_2631.chk"
 Charge =  1 Multiplicity = 2

 SCF Done:  E(UB3LYP) =  -626.142660984     A.U. after   29 cycles
 Normal termination of Gaussian 16 at Wed Dec  9 18:08:37 2020.
 Gaussian 16:  ES64L-G16RevA.03 25-Dec-2016

 ----------------------------------------------------------------------
 # B3LYP/6-311++G(d,p) empiricaldispersion=gd3bj scf=xqc pop=npa geom=c
 heck
 ----------------------------------------------------------------------

 ------------------------------------
 CID_150006174_JID_2631_Energie_anion
 ------------------------------------
 Structure from the checkpoint file:  "JID_2631.chk"
 Charge = -1 Multiplicity = 2

                         Standard orientation:
 ---------------------------------------------------------------------
 Center     Atomic      Atomic             Coordinates (Angstroms)
 Number     Number       Type             X           Y           Z
 ---------------------------------------------------------------------
      1          6           0        3.954509   -0.774663   -0.034503
      2          6           0        2.610673   -1.386444   -0.440159
      3          6           0        1.524803   -1.276170    0.642064
      4          6           0        1.126748    0.139767    1.083382
      5          6           0        0.505557    1.044143    0.013277
      6          6           0       -0.638321    0.384063   -0.765154
      7          8           0       -1.597070   -0.064281    0.190948
      8          7           0       -2.540548   -0.903165   -0.507719
      9          7           0       -3.679348   -0.629035   -0.067097
     10          7           0       -4.767171   -0.517827    0.263280
     11          8           0        0.064287    2.192922    0.709430
     12          8           0        1.413301    1.416978   -1.013238
     13          1           0        3.880669    0.309620    0.107914
     14          1           0        4.716192   -0.949951   -0.802047
     15          1           0        4.320635   -1.204490    0.906175
     16          1           0        2.266163   -0.915049   -1.366291
     17          1           0        2.757979   -2.451147   -0.664006
     18          1           0        0.625195   -1.810001    0.311707
     19          1           0        1.871377   -1.808048    1.538650
     20          1           0        0.397502    0.065164    1.895155
     21          1           0        1.989232    0.679319    1.495916
     22          1           0       -1.085526    1.113713   -1.453849
     23          1           0       -0.263350   -0.460737   -1.349898
     24          1           0       -0.289695    2.805601    0.043084
     25          1           0        2.175141    1.827069   -0.572315
 ---------------------------------------------------------------------

 SCF Done:  E(UB3LYP) =  -626.496004268     A.U. after   33 cycles
 SCF Done:  E(UB3LYP) =  -626.496004268     a.u. after    1 cycles

 The electronic state is 2-A.
 Alpha  occ. eigenvalues --  -19.03283 -19.02673 -19.00935 -14.27024 -14.22403
 Alpha  occ. eigenvalues --  -14.18892 -10.17192 -10.09619 -10.06323 -10.06297
 Alpha  occ. eigenvalues --  -10.06263 -10.06238  -0.97772  -0.96952  -0.90665
 Alpha  occ. eigenvalues --   -0.89827  -0.76301  -0.70028  -0.64788  -0.59861
 Alpha  occ. eigenvalues --   -0.55982  -0.49840  -0.46502  -0.44168  -0.41589
 Alpha  occ. eigenvalues --   -0.38564  -0.36833  -0.35683  -0.34157  -0.33898
 Alpha  occ. eigenvalues --   -0.32819  -0.32660  -0.30030  -0.29289  -0.28342
 Alpha  occ. eigenvalues --   -0.27724  -0.27435  -0.26665  -0.24248  -0.22980
 Alpha  occ. eigenvalues --   -0.22623  -0.22210  -0.20965  -0.19014  -0.17811
 Alpha  occ. eigenvalues --   -0.14963  -0.07376   0.04568
 Alpha virt. eigenvalues --    0.05860   0.07655   0.08682   0.08844   0.10191
 Alpha virt. eigenvalues --    0.11468   0.11554   0.11854   0.12752   0.13639
 Alpha virt. eigenvalues --    0.14452   0.15281   0.16191   0.16598   0.16859

  Beta  occ. eigenvalues --  -19.03265 -19.02665 -19.00618 -14.26585 -14.22419
  Beta  occ. eigenvalues --  -14.18080 -10.17190 -10.09599 -10.06313 -10.06272
  Beta  occ. eigenvalues --  -10.06255 -10.06227  -0.97369  -0.96469  -0.90075
  Beta  occ. eigenvalues --   -0.89554  -0.75649  -0.69992  -0.64703  -0.59682
  Beta  occ. eigenvalues --   -0.55908  -0.49765  -0.46269  -0.44012  -0.41221
  Beta  occ. eigenvalues --   -0.38506  -0.36672  -0.35208  -0.33907  -0.33156
  Beta  occ. eigenvalues --   -0.32685  -0.32237  -0.29587  -0.29170  -0.28206
  Beta  occ. eigenvalues --   -0.27428  -0.26264  -0.25456  -0.24222  -0.22939
  Beta  occ. eigenvalues --   -0.22590  -0.22095  -0.20937  -0.18272  -0.17522
  Beta  occ. eigenvalues --   -0.14380  -0.07051
  Beta virt. eigenvalues --    0.06407   0.07875   0.08844   0.08908   0.10332
  Beta virt. eigenvalues --    0.11370   0.11519   0.11752   0.12341   0.13204
  Beta virt. eigenvalues --    0.13711   0.14423   0.15354   0.16303   0.16577

 Mulliken charges and spin densities:
               1          2
     1  C    0.799150  -1.369283
     2  C   -1.017993   0.766850
     3  C    0.263164  -0.266294
     4  C   -0.260799  -0.070507
     5  C   -0.238953  -0.400707
     6  C   -0.124306  -0.174901
     7  O    0.037740   0.058765
     8  N   -0.603286   0.197133
     9  N    0.319762   0.088414
    10  N   -0.304057   0.382420
    11  O   -0.190095   0.018568
    12  O   -0.168659   0.018583
    13  H   -0.136962   0.238267
    14  H   -0.261948   0.397815
    15  H   -0.086787   0.215438
    16  H    0.247024  -0.076952
    17  H   -0.094911   0.233901
    18  H    0.092147   0.068427
    19  H    0.029401   0.120698
    20  H    0.217775   0.008942
    21  H    0.022619   0.131364
    22  H    0.062102   0.072086
    23  H    0.030458   0.168940
    24  H    0.216793   0.050816
    25  H    0.150619   0.121217
 Sum of Mulliken charges =  -1.00000   1.00000

 Dipole moment (field-independent basis, Debye):
    X=              5.4168    Y=              2.2048    Z=             -0.4348  Tot=              5.8645
 Quadrupole moment (field-independent basis, Debye-Ang):
   XX=           -159.2061   YY=            -88.8227   ZZ=            -88.7346
   XY=             -2.5685   XZ=              4.0849   YZ=             -3.3390

 Summary of Natural Population Analysis:

                                       Natural Population
                Natural  -----------------------------------------------
    Atom  No    Charge         Core      Valence    Rydberg      Total
 -----------------------------------------------------------------------
      C    1   -0.28604      0.99967     2.28083    0.00554     3.28604
      C    2   -0.19743      0.99964     2.18797    0.00982     3.19743
      C    3   -0.19282      0.99962     2.18490    0.00830     3.19282
      C    4   -0.20811      0.99956     2.19860    0.00994     3.20811
      C    5    0.26985      0.99957     1.71209    0.01849     2.73015
      C    6   -0.02131      0.99952     2.00805    0.01374     3.02131
      O    7   -0.21062      0.99989     3.20146    0.00927     4.21062
      N    8   -0.10454      0.99973     2.58820    0.01661     3.60454
      N    9    0.12497      0.99972     2.35869    0.01662     3.37503
      N   10    0.05736      0.99982     2.42923    0.01360     3.44264
      O   11   -0.37210      0.99988     3.36579    0.00643     4.37210
      O   12   -0.37867      0.99988     3.37157    0.00722     4.37867
      H   13    0.09105      0.00000     0.40758    0.00137     0.40895
      H   14    0.09830      0.00000     0.40068    0.00102     0.40170
      H   15    0.09412      0.00000     0.40474    0.00114     0.40588
      H   16    0.10234      0.00000     0.39629    0.00136     0.39766
      H   17    0.09243      0.00000     0.40657    0.00099     0.40757
      H   18    0.10692      0.00000     0.39142    0.00167     0.39308
      H   19    0.09339      0.00000     0.40549    0.00111     0.40661
      H   20    0.11725      0.00000     0.38133    0.00142     0.38275
      H   21    0.09467      0.00000     0.40394    0.00140     0.40533
      H   22    0.08101      0.00000     0.41684    0.00215     0.41899
      H   23    0.09119      0.00000     0.40664    0.00217     0.40881
      H   24    0.22841      0.00000     0.26891    0.00268     0.27159
      H   25    0.22838      0.00000     0.26866    0.00296     0.27162
 =======================================================================
   * Total *   -0.00000     11.99651    34.84647    0.15702    47.00000

 Normal termination of Gaussian 16 at Wed Dec  9 18:15:19 2020.
