 Gaussian 16, Revision A.03,

 -----------------------------------------------------------
 # opt freq B3LYP/6-31G(d) empiricaldispersion=gd3bj scf=xqc
 -----------------------------------------------------------

 -------------------------------
 CID_117360219_JID_8142_neutraal
 -------------------------------
 Symbolic Z-matrix:
 Charge =  0 Multiplicity = 1

 SCF Done:  E(RB3LYP) =  -783.141175366     A.U. after   14 cycles
 SCF Done:  E(RB3LYP) =  -783.148734730     A.U. after   13 cycles
 SCF Done:  E(RB3LYP) =  -783.149709934     A.U. after   13 cycles
 SCF Done:  E(RB3LYP) =  -783.151424958     A.U. after   12 cycles
 SCF Done:  E(RB3LYP) =  -783.152219393     A.U. after   12 cycles
 SCF Done:  E(RB3LYP) =  -783.152761769     A.U. after   12 cycles
 SCF Done:  E(RB3LYP) =  -783.152994596     A.U. after   11 cycles
 SCF Done:  E(RB3LYP) =  -783.153096108     A.U. after   11 cycles
 SCF Done:  E(RB3LYP) =  -783.153174229     A.U. after   11 cycles
 SCF Done:  E(RB3LYP) =  -783.153193726     A.U. after   10 cycles
 SCF Done:  E(RB3LYP) =  -783.153196488     A.U. after    9 cycles
 SCF Done:  E(RB3LYP) =  -783.153196913     A.U. after    9 cycles
 SCF Done:  E(RB3LYP) =  -783.153197062     A.U. after    8 cycles
 SCF Done:  E(RB3LYP) =  -783.153197073     A.U. after    7 cycles
 Optimization completed.
    -- Stationary point found.
 Normal termination of Gaussian 16 at Fri Dec 11 18:52:43 2020.

 --------------------------------------------------------------------
 #N Geom=AllCheck Guess=TCheck SCRF=Check GenChk RB3LYP/6-31G(d) Freq
 --------------------------------------------------------------------

 Structure from the checkpoint file:  "JID_8142.chk"
 -------------------------------
 CID_117360219_JID_8142_neutraal
 -------------------------------
 Charge =  0 Multiplicity = 1

 SCF Done:  E(RB3LYP) =  -783.153197073     A.U. after    1 cycles

  Exact polarizability: 237.043   3.561 173.597   7.283  11.693  99.259
 Approx polarizability: 322.063   2.272 273.587  13.222  28.783 159.165

                      1                      2                      3
                      A                      A                      A
 Frequencies --     21.6924                35.2201                54.4502
 Red. masses --      4.1518                 4.4105                 2.7160
 Frc consts  --      0.0012                 0.0032                 0.0047
 IR Inten    --      0.1825                 1.0413                 2.1778

                      4                      5                      6
                      A                      A                      A
 Frequencies --     57.8234                66.7281                85.5616
 Red. masses --      3.1538                 3.5550                 3.9246
 Frc consts  --      0.0062                 0.0093                 0.0169
 IR Inten    --      0.6611                 0.2517                 0.3298

                      7                      8                      9
                      A                      A                      A
 Frequencies --    114.2212               130.3817               157.3281
 Red. masses --      4.0160                 4.0557                 3.6562
 Frc consts  --      0.0309                 0.0406                 0.0533
 IR Inten    --      1.6760                 1.8232                 0.5698

                     10                     11                     12
                      A                      A                      A
 Frequencies --    185.4194               212.3732               252.0125
 Red. masses --      2.9168                 1.3666                 3.9130
 Frc consts  --      0.0591                 0.0363                 0.1464
 IR Inten    --      0.2225                 0.9874                 0.3294

                     13                     14                     15
                      A                      A                      A
 Frequencies --    282.7972               328.4662               340.4508
 Red. masses --      3.7050                 4.8986                 4.9244
 Frc consts  --      0.1746                 0.3114                 0.3363
 IR Inten    --      1.2084                 2.4750                 2.3783

                     16                     17                     18
                      A                      A                      A
 Frequencies --    380.3400               424.0811               435.5737
 Red. masses --      3.3549                 3.0739                 2.5015
 Frc consts  --      0.2859                 0.3257                 0.2796
 IR Inten    --      0.5602                 0.6425                13.2098

                     19                     20                     21
                      A                      A                      A
 Frequencies --    439.0717               485.2031               549.7683
 Red. masses --      3.2989                 3.8382                 4.1979
 Frc consts  --      0.3747                 0.5324                 0.7476
 IR Inten    --      1.5945                 6.2415                 6.7476

                     22                     23                     24
                      A                      A                      A
 Frequencies --    572.3279               623.8477               652.1844
 Red. masses --      3.2877                 2.8790                 6.3099
 Frc consts  --      0.6345                 0.6602                 1.5813
 IR Inten    --      7.7764                12.4056                 1.1196

                     25                     26                     27
                      A                      A                      A
 Frequencies --    661.3430               671.6962               699.3946
 Red. masses --      3.5491                 5.1230                 3.3098
 Frc consts  --      0.9146                 1.3618                 0.9539
 IR Inten    --     17.0725                 0.5570                 2.4315

                     28                     29                     30
                      A                      A                      A
 Frequencies --    756.2640               781.8005               802.5821
 Red. masses --      3.9540                 1.2170                 1.5672
 Frc consts  --      1.3324                 0.4382                 0.5948
 IR Inten    --      4.7340                24.2542                 3.6183

                     31                     32                     33
                      A                      A                      A
 Frequencies --    810.6517               835.3929               838.9880
 Red. masses --      2.0989                 1.4771                 2.7870
 Frc consts  --      0.8126                 0.6074                 1.1558
 IR Inten    --     19.3628                14.8228                 2.9673

                     34                     35                     36
                      A                      A                      A
 Frequencies --    851.5812               867.9876               877.6457
 Red. masses --      1.2795                 1.7975                 1.3162
 Frc consts  --      0.5467                 0.7979                 0.5973
 IR Inten    --      2.6143                13.2524                 4.1580

                     37                     38                     39
                      A                      A                      A
 Frequencies --    909.9438               934.4097               946.6488
 Red. masses --      3.0885                 3.6439                 2.3176
 Frc consts  --      1.5067                 1.8745                 1.2237
 IR Inten    --     14.3035                 7.8283               128.8842

                     40                     41                     42
                      A                      A                      A
 Frequencies --    949.5273               965.2416               967.7073
 Red. masses --      3.7288                 1.3376                 1.3301
 Frc consts  --      1.9808                 0.7343                 0.7339
 IR Inten    --     12.8569                 6.2637                 0.9137

                     43                     44                     45
                      A                      A                      A
 Frequencies --    998.4541              1031.2455              1050.1309
 Red. masses --      3.4997                 4.6403                 2.4271
 Frc consts  --      2.0556                 2.9075                 1.5770
 IR Inten    --     40.4432                21.3849                 8.1127

                     46                     47                     48
                      A                      A                      A
 Frequencies --   1066.2868              1077.4559              1081.1719
 Red. masses --      1.3341                 1.6205                 3.8722
 Frc consts  --      0.8937                 1.1084                 2.6668
 IR Inten    --     10.0879                 6.2463                55.3929

                     49                     50                     51
                      A                      A                      A
 Frequencies --   1093.5002              1112.3431              1126.3801
 Red. masses --      1.3513                 1.5023                 2.5755
 Frc consts  --      0.9520                 1.0952                 1.9252
 IR Inten    --      2.4243                 1.8130                 9.9152

                     52                     53                     54
                      A                      A                      A
 Frequencies --   1139.6515              1141.6343              1160.4948
 Red. masses --      1.1599                 1.7764                 1.3741
 Frc consts  --      0.8876                 1.3641                 1.0903
 IR Inten    --      3.1402                27.4291                18.8923

                     55                     56                     57
                      A                      A                      A
 Frequencies --   1190.3737              1212.4404              1216.7578
 Red. masses --      1.2698                 1.3854                 1.1436
 Frc consts  --      1.0601                 1.1999                 0.9976
 IR Inten    --      1.7644                 0.6230                 1.1346

                     58                     59                     60
                      A                      A                      A
 Frequencies --   1221.2669              1228.1202              1238.2814
 Red. masses --      1.5012                 2.2528                 2.8933
 Frc consts  --      1.3192                 2.0019                 2.6138
 IR Inten    --      1.6107                 4.5909                 5.0098

                     61                     62                     63
                      A                      A                      A
 Frequencies --   1254.1225              1282.6455              1291.6073
 Red. masses --      1.6745                 3.2927                 1.4421
 Frc consts  --      1.5517                 3.1917                 1.4174
 IR Inten    --     11.9201                 2.2742                 7.2174

                     64                     65                     66
                      A                      A                      A
 Frequencies --   1355.6072              1370.2772              1377.3100
 Red. masses --      1.7002                 2.4516                 1.4362
 Frc consts  --      1.8409                 2.7122                 1.6052
 IR Inten    --      1.1288                 6.9090                32.0542

                     67                     68                     69
                      A                      A                      A
 Frequencies --   1385.4575              1406.1538              1439.1892
 Red. masses --      3.3031                 2.4851                 3.1683
 Frc consts  --      3.7356                 2.8950                 3.8664
 IR Inten    --      3.0836                17.3582               100.6379

                     70                     71                     72
                      A                      A                      A
 Frequencies --   1472.0249              1480.5530              1488.7591
 Red. masses --      2.7745                 1.1319                 1.1215
 Frc consts  --      3.5421                 1.4619                 1.4645
 IR Inten    --     12.9221                 1.8045                 8.6078

                     73                     74                     75
                      A                      A                      A
 Frequencies --   1492.3029              1504.4148              1510.1956
 Red. masses --      1.0926                 1.0614                 1.1532
 Frc consts  --      1.4337                 1.4154                 1.5495
 IR Inten    --      1.9772                 6.6088                 6.6300

                     76                     77                     78
                      A                      A                      A
 Frequencies --   1511.8970              1536.5111              1539.1507
 Red. masses --      2.6345                 1.6153                 1.0555
 Frc consts  --      3.5481                 2.2468                 1.4732
 IR Inten    --     12.2603                 1.3975                13.2344

                     79                     80                     81
                      A                      A                      A
 Frequencies --   1569.9672              1601.0572              1641.9824
 Red. masses --      2.8133                 6.2094                 6.9310
 Frc consts  --      4.0856                 9.3780                11.0099
 IR Inten    --    104.6293                15.8333                 4.2633

                     82                     83                     84
                      A                      A                      A
 Frequencies --   1673.8906              3023.3336              3059.6540
 Red. masses --      5.8445                 1.0323                 1.0615
 Frc consts  --      9.6483                 5.5592                 5.8548
 IR Inten    --     29.0156                72.9131                38.0075

                     85                     86                     87
                      A                      A                      A
 Frequencies --   3083.8471              3109.1269              3131.1169
 Red. masses --      1.1053                 1.1035                 1.1025
 Frc consts  --      6.1934                 6.2850                 6.3683
 IR Inten    --     57.0966                16.0815                26.6516

                     88                     89                     90
                      A                      A                      A
 Frequencies --   3148.5402              3159.2373              3166.0154
 Red. masses --      1.0528                 1.0568                 1.0878
 Frc consts  --      6.1492                 6.2144                 6.4245
 IR Inten    --     13.1310                14.3396                 4.2330

                     91                     92                     93
                      A                      A                      A
 Frequencies --   3178.1984              3215.4846              3229.2602
 Red. masses --      1.0896                 1.0891                 1.1200
 Frc consts  --      6.4843                 6.6346                 6.8811
 IR Inten    --     19.7686                 8.6151                 0.4577

                     94                     95                     96
                      A                      A                      A
 Frequencies --   3240.1766              3241.1880              3244.0216
 Red. masses --      1.0924                 1.0930                 1.1161
 Frc consts  --      6.7572                 6.7651                 6.9202
 IR Inten    --      1.4032                 2.9345                16.9711

                     97                     98                     99
                      A                      A                      A
 Frequencies --   3254.0078              3281.6774              3444.1314
 Red. masses --      1.0935                 1.0997                 1.0753
 Frc consts  --      6.8222                 6.9780                 7.5154
 IR Inten    --     10.1408                 4.9955                 0.7885

 - Thermochemistry -
 -------------------
 Temperature   298.150 Kelvin.  Pressure   1.00000 Atm.
 Atom     1 has atomic number  6 and mass  12.00000

 Molecular mass:   243.13716 amu.
 Principal axes and moments of inertia in atomic units:
                           1         2         3
     Eigenvalues --  2302.118618447.60883**********
           X            0.99998  -0.00589   0.00208
           Y            0.00587   0.99994   0.00875
           Z           -0.00213  -0.00874   0.99996
 This molecule is an asymmetric top.
 Rotational symmetry number  1.
 Warning -- assumption of classical behavior for rotation
           may cause significant error
 Rotational temperatures (Kelvin)      0.03762     0.01025     0.00840
 Rotational constants (GHZ):           0.78395     0.21364     0.17511
 Zero-point vibrational energy     770372.4 (Joules/Mol)
                                  184.12343 (Kcal/Mol)
 Warning -- explicit consideration of  22 degrees of freedom as
           vibrations may cause significant error
 Vibrational temperatures:     31.21    50.67    78.34    83.19    96.01
          (Kelvin)            123.10   164.34   187.59   226.36   266.78
                              305.56   362.59   406.88   472.59   489.83
                              547.22   610.16   626.69   631.73   698.10
                              790.99   823.45   897.58   938.35   951.53
                              966.42  1006.27  1088.10  1124.84  1154.74
                             1166.35  1201.94  1207.12  1225.24  1248.84
                             1262.74  1309.21  1344.41  1362.02  1366.16
                             1388.77  1392.32  1436.55  1483.73  1510.90
                             1534.15  1550.22  1555.57  1573.30  1600.41
                             1620.61  1639.70  1642.56  1669.69  1712.68
                             1744.43  1750.64  1757.13  1766.99  1781.61
                             1804.40  1845.44  1858.33  1950.42  1971.52
                             1981.64  1993.36  2023.14  2070.67  2117.92
                             2130.19  2141.99  2147.09  2164.52  2172.83
                             2175.28  2210.70  2214.49  2258.83  2303.56
                             2362.45  2408.36  4349.90  4402.16  4436.97
                             4473.34  4504.98  4530.05  4545.44  4555.19
                             4572.72  4626.37  4646.19  4661.89  4663.35
                             4667.42  4681.79  4721.60  4955.34

 Zero-point correction=                           0.293419 (Hartree/Particle)
 Thermal correction to Energy=                    0.309933
 Thermal correction to Enthalpy=                  0.310877
 Thermal correction to Gibbs Free Energy=         0.246828
 Sum of electronic and zero-point Energies=           -782.859778
 Sum of electronic and thermal Energies=              -782.843264
 Sum of electronic and thermal Enthalpies=            -782.842320
 Sum of electronic and thermal Free Energies=         -782.906370

                     E (Thermal)             CV                S
                      KCal/Mol        Cal/Mol-Kelvin    Cal/Mol-Kelvin
 Total                  194.486             62.497            134.804
 Electronic               0.000              0.000              0.000
 Translational            0.889              2.981             42.366
 Rotational               0.889              2.981             33.660
 Vibrational            192.708             56.536             58.777
 Vibration     1          0.593              1.985              6.473
 Vibration     2          0.594              1.982              5.511
 Vibration     3          0.596              1.976              4.649
 Vibration     4          0.596              1.974              4.530
 Vibration     5          0.598              1.970              4.248
 Vibration     6          0.601              1.959              3.759
 Vibration     7          0.607              1.938              3.196
 Vibration     8          0.612              1.923              2.940
 Vibration     9          0.621              1.894              2.582
 Vibration    10          0.631              1.860              2.273
 Vibration    11          0.643              1.822              2.023
 Vibration    12          0.664              1.759              1.716
 Vibration    13          0.682              1.706              1.517
 Vibration    14          0.712              1.619              1.268
 Vibration    15          0.720              1.595              1.210
 Vibration    16          0.750              1.512              1.038
 Vibration    17          0.786              1.418              0.878
 Vibration    18          0.796              1.393              0.841
 Vibration    19          0.799              1.385              0.830
 Vibration    20          0.841              1.283              0.696
 Vibration    21          0.905              1.140              0.545
 Vibration    22          0.929              1.091              0.500

                           ! Non-Optimized Parameters !
 Normal termination of Gaussian 16 at Fri Dec 11 19:06:44 2020.

 ----------------------------------------------------------------------
 # B3LYP/6-311++G(d,p) empiricaldispersion=gd3bj scf=xqc pop=npa geom=c
 heck
 ----------------------------------------------------------------------

 ---------------------------------------
 CID_117360219_JID_8142_Energie_neutraal
 ---------------------------------------
 Structure from the checkpoint file:  "JID_8142.chk"
 Charge =  0 Multiplicity = 1

 SCF Done:  E(RB3LYP) =  -783.363081693     A.U. after   15 cycles
 Normal termination of Gaussian 16 at Fri Dec 11 19:12:11 2020.

 ----------------------------------------------------------------------
 # B3LYP/6-311++G(d,p) empiricaldispersion=gd3bj scf=xqc pop=npa geom=c
 heck
 ----------------------------------------------------------------------

 -------------------------------------
 CID_117360219_JID_8142_Energie_kation
 -------------------------------------
 Structure from the checkpoint file:  "JID_8142.chk"
 Charge =  1 Multiplicity = 2

 SCF Done:  E(UB3LYP) =  -783.075913568     A.U. after   27 cycles
 Normal termination of Gaussian 16 at Fri Dec 11 19:25:36 2020.
 Gaussian 16:  ES64L-G16RevA.03 25-Dec-2016

 ----------------------------------------------------------------------
 # B3LYP/6-311++G(d,p) empiricaldispersion=gd3bj scf=xqc pop=npa geom=c
 heck
 ----------------------------------------------------------------------

 ------------------------------------
 CID_117360219_JID_8142_Energie_anion
 ------------------------------------
 Structure from the checkpoint file:  "JID_8142.chk"
 Charge = -1 Multiplicity = 2

                         Standard orientation:
 ---------------------------------------------------------------------
 Center     Atomic      Atomic             Coordinates (Angstroms)
 Number     Number       Type             X           Y           Z
 ---------------------------------------------------------------------
      1          6           0        5.184620    1.831815   -0.103551
      2          8           0        3.998227    1.127382   -0.431999
      3          7           0        4.347299   -0.258881   -0.642997
      4          6           0        3.658201   -1.055811    0.389872
      5          6           0        2.148312   -1.009585    0.347380
      6          6           0        1.422258   -2.034242   -0.272933
      7          6           0        0.035994   -1.978481   -0.377576
      8          6           0       -0.650906   -0.883568    0.154064
      9          6           0        0.053425    0.136923    0.800962
     10          6           0        1.441629    0.072826    0.884410
     11          7           0       -2.064992   -0.843066    0.049102
     12          6           0       -2.883771    0.236433   -0.202427
     13          6           0       -4.170191   -0.272394   -0.251382
     14          6           0       -4.031210   -1.659650   -0.030804
     15          7           0       -2.762641   -2.011610    0.141112
     16          6           0       -2.380905    1.610844   -0.404953
     17          6           0       -3.350883    2.753280   -0.569884
     18          6           0       -2.531737    2.659893    0.687673
     19          1           0        4.875522    2.869399    0.056887
     20          1           0        5.919090    1.784852   -0.917382
     21          1           0        5.648037    1.443279    0.813630
     22          1           0        3.898012   -0.457962   -1.539531
     23          1           0        4.009429   -2.085521    0.249660
     24          1           0        4.039081   -0.709329    1.355972
     25          1           0        1.950645   -2.891375   -0.684480
     26          1           0       -0.528375   -2.772640   -0.851200
     27          1           0       -0.483048    0.962667    1.251605
     28          1           0        1.986443    0.872188    1.375089
     29          1           0       -5.076227    0.281107   -0.448052
     30          1           0       -4.803420   -2.416962    0.007720
     31          1           0       -1.462971    1.674397   -0.984433
     32          1           0       -3.099959    3.520507   -1.295955
     33          1           0       -4.412316    2.536876   -0.500657
     34          1           0       -3.037039    2.352500    1.598468
     35          1           0       -1.715410    3.362175    0.833030
 ---------------------------------------------------------------------

 SCF Done:  E(UB3LYP) =  -783.353006477     A.U. after   33 cycles
 SCF Done:  E(UB3LYP) =  -783.353006477     a.u. after    1 cycles

 The electronic state is 2-A.
 Alpha  occ. eigenvalues --  -19.04676 -14.28514 -14.25017 -14.21843 -10.10889
 Alpha  occ. eigenvalues --  -10.10778 -10.10124 -10.09864 -10.09616 -10.08936
 Alpha  occ. eigenvalues --  -10.08661 -10.08627 -10.06794 -10.06629 -10.06314
 Alpha  occ. eigenvalues --  -10.06280 -10.06218 -10.06100  -0.96441  -0.94335
 Alpha  occ. eigenvalues --   -0.77997  -0.77029  -0.75384  -0.71692  -0.68335
 Alpha  occ. eigenvalues --   -0.64153  -0.63612  -0.58261  -0.54947  -0.53879
 Alpha  occ. eigenvalues --   -0.52137  -0.51160  -0.50218  -0.48041  -0.45643
 Alpha  occ. eigenvalues --   -0.43645  -0.41549  -0.39896  -0.39128  -0.37385
 Alpha  occ. eigenvalues --   -0.36476  -0.36076  -0.34360  -0.34312  -0.33952
 Alpha  occ. eigenvalues --   -0.32425  -0.32006  -0.31562  -0.31077  -0.29057
 Alpha  occ. eigenvalues --   -0.28423  -0.27703  -0.27110  -0.25843  -0.25396
 Alpha  occ. eigenvalues --   -0.23950  -0.22434  -0.22276  -0.18692  -0.18291
 Alpha  occ. eigenvalues --   -0.17067  -0.15304  -0.14756  -0.13886  -0.12179
 Alpha  occ. eigenvalues --    0.04419
 Alpha virt. eigenvalues --    0.06319   0.06789   0.07419   0.07870   0.08218
 Alpha virt. eigenvalues --    0.08646   0.08963   0.09011   0.10016   0.10403
 Alpha virt. eigenvalues --    0.10537   0.11279   0.11615   0.11683   0.12244

  Beta  occ. eigenvalues --  -19.04674 -14.28525 -14.24984 -14.21734 -10.10790
  Beta  occ. eigenvalues --  -10.10738 -10.09975 -10.09869 -10.09613 -10.08923
  Beta  occ. eigenvalues --  -10.08642 -10.08594 -10.06801 -10.06624 -10.06280
  Beta  occ. eigenvalues --  -10.06262 -10.06093 -10.06038  -0.96424  -0.94229
  Beta  occ. eigenvalues --   -0.77944  -0.76858  -0.75267  -0.71562  -0.68182
  Beta  occ. eigenvalues --   -0.64030  -0.63437  -0.58168  -0.54824  -0.53804
  Beta  occ. eigenvalues --   -0.52069  -0.51082  -0.50112  -0.47972  -0.45517
  Beta  occ. eigenvalues --   -0.43585  -0.41505  -0.39822  -0.39053  -0.37299
  Beta  occ. eigenvalues --   -0.36371  -0.35969  -0.34277  -0.34244  -0.33786
  Beta  occ. eigenvalues --   -0.32369  -0.31945  -0.31478  -0.30997  -0.28979
  Beta  occ. eigenvalues --   -0.28386  -0.27651  -0.27000  -0.25594  -0.25229
  Beta  occ. eigenvalues --   -0.23878  -0.22389  -0.22134  -0.18563  -0.17869
  Beta  occ. eigenvalues --   -0.17031  -0.15137  -0.14509  -0.13457  -0.11679
  Beta virt. eigenvalues --    0.06477   0.06897   0.07615   0.08004   0.08087
  Beta virt. eigenvalues --    0.08472   0.08769   0.09099   0.09306   0.10206
  Beta virt. eigenvalues --    0.10409   0.10778   0.11653   0.11806   0.11944

 Mulliken charges and spin densities:
               1          2
     1  C    0.803200  -1.057358
     2  O   -0.086275   0.053344
     3  N   -0.272752   0.030615
     4  C   -0.216553  -0.655043
     5  C    0.955264  -0.030673
     6  C   -0.285289  -0.274685
     7  C    0.064737  -0.192247
     8  C   -0.289306  -0.176036
     9  C   -0.510072   0.502127
    10  C   -0.466206   0.308471
    11  N    0.523123   0.001401
    12  C    0.046627  -0.283521
    13  C   -0.305499   0.331096
    14  C   -0.236199  -0.091018
    15  N   -0.219558   0.039994
    16  C   -0.494376   0.607156
    17  C    0.240196  -0.622438
    18  C    0.026796  -0.554498
    19  H   -0.230468   0.356964
    20  H   -0.216859   0.349990
    21  H   -0.318171   0.458721
    22  H    0.185432   0.065086
    23  H   -0.060463   0.217052
    24  H   -0.032983   0.198631
    25  H    0.043963   0.091071
    26  H    0.168967   0.014240
    27  H    0.024620   0.156168
    28  H   -0.109145   0.301023
    29  H    0.076353   0.065981
    30  H    0.117529   0.008785
    31  H    0.183027   0.087233
    32  H   -0.164112   0.324444
    33  H    0.120399  -0.011819
    34  H    0.044021   0.127538
    35  H   -0.109969   0.252208
 Sum of Mulliken charges =  -1.00000   1.00000

 Dipole moment (field-independent basis, Debye):
    X=             -5.5537    Y=             -2.3931    Z=             -1.5126  Tot=              6.2336
 Quadrupole moment (field-independent basis, Debye-Ang):
   XX=           -191.8662   YY=           -152.3287   ZZ=           -129.7489
   XY=            -11.2082   XZ=             -2.6145   YZ=              1.6045

 Summary of Natural Population Analysis:

                                       Natural Population
                Natural  -----------------------------------------------
    Atom  No    Charge         Core      Valence    Rydberg      Total
 -----------------------------------------------------------------------
      C    1   -0.09285      0.99963     2.08368    0.00953     3.09285
      O    2   -0.23450      0.99990     3.22411    0.01049     4.23450
      N    3   -0.17367      0.99975     2.66056    0.01336     3.67367
      C    4   -0.10376      0.99959     2.09063    0.01355     3.10376
      C    5   -0.01249      0.99950     2.00301    0.00997     3.01249
      C    6   -0.10139      0.99953     2.09331    0.00855     3.10139
      C    7   -0.09248      0.99953     2.08488    0.00807     3.09248
      C    8    0.09617      0.99946     1.89256    0.01181     2.90383
      C    9   -0.10815      0.99953     2.09998    0.00864     3.10815
      C   10   -0.08387      0.99952     2.07449    0.00986     3.08387
      N   11   -0.10847      0.99959     2.59622    0.01266     3.60847
      C   12    0.10342      0.99952     1.88458    0.01248     2.89658
      C   13   -0.17046      0.99951     2.16320    0.00776     3.17046
      C   14   -0.01285      0.99965     1.99895    0.01425     3.01285
      N   15   -0.14085      0.99974     2.63021    0.01090     3.64085
      C   16   -0.13559      0.99957     2.12522    0.01080     3.13559
      C   17   -0.19167      0.99963     2.18408    0.00797     3.19167
      C   18   -0.19098      0.99962     2.18360    0.00776     3.19098
      H   19    0.08817      0.00000     0.40998    0.00185     0.41183
      H   20    0.07908      0.00000     0.41841    0.00250     0.42092
      H   21    0.07990      0.00000     0.41758    0.00252     0.42010
      H   22    0.16756      0.00000     0.32989    0.00255     0.33244
      H   23    0.09749      0.00000     0.40131    0.00120     0.40251
      H   24    0.10099      0.00000     0.39759    0.00142     0.39901
      H   25    0.09535      0.00000     0.40361    0.00103     0.40465
      H   26    0.10869      0.00000     0.39015    0.00116     0.39131
      H   27    0.10569      0.00000     0.39265    0.00166     0.39431
      H   28    0.10487      0.00000     0.39367    0.00146     0.39513
      H   29    0.10383      0.00000     0.39530    0.00087     0.39617
      H   30    0.09199      0.00000     0.40714    0.00088     0.40801
      H   31    0.11815      0.00000     0.38070    0.00114     0.38185
      H   32    0.10387      0.00000     0.39527    0.00085     0.39613
      H   33    0.10050      0.00000     0.39865    0.00086     0.39950
      H   34    0.10282      0.00000     0.39621    0.00097     0.39718
      H   35    0.10547      0.00000     0.39296    0.00157     0.39453
 =======================================================================
   * Total *    0.00000     17.99277    46.79433    0.21290    65.00000

 Normal termination of Gaussian 16 at Fri Dec 11 19:41:42 2020.
