 Gaussian 16, Revision A.03,

 -----------------------------------------------------------
 # opt freq B3LYP/6-31G(d) empiricaldispersion=gd3bj scf=xqc
 -----------------------------------------------------------

 -------------------------------
 CID_128739032_JID_8664_neutraal
 -------------------------------
 Symbolic Z-matrix:
 Charge =  0 Multiplicity = 1

 SCF Done:  E(RB3LYP) =  -825.218801427     A.U. after   14 cycles
 SCF Done:  E(RB3LYP) =  -825.224795742     A.U. after   12 cycles
 SCF Done:  E(RB3LYP) =  -825.224831157     A.U. after   12 cycles
 SCF Done:  E(RB3LYP) =  -825.225902330     A.U. after   11 cycles
 SCF Done:  E(RB3LYP) =  -825.226040344     A.U. after   10 cycles
 SCF Done:  E(RB3LYP) =  -825.226075626     A.U. after   10 cycles
 SCF Done:  E(RB3LYP) =  -825.226124960     A.U. after    9 cycles
 SCF Done:  E(RB3LYP) =  -825.226171084     A.U. after   10 cycles
 SCF Done:  E(RB3LYP) =  -825.226194354     A.U. after   10 cycles
 SCF Done:  E(RB3LYP) =  -825.226206758     A.U. after    9 cycles
 SCF Done:  E(RB3LYP) =  -825.226316198     A.U. after    9 cycles
 SCF Done:  E(RB3LYP) =  -825.226327276     A.U. after   10 cycles
 SCF Done:  E(RB3LYP) =  -825.226331271     A.U. after    9 cycles
 SCF Done:  E(RB3LYP) =  -825.226332730     A.U. after    9 cycles
 SCF Done:  E(RB3LYP) =  -825.226333499     A.U. after    8 cycles
 SCF Done:  E(RB3LYP) =  -825.226333594     A.U. after    7 cycles
 Optimization completed.
    -- Stationary point found.
 Normal termination of Gaussian 16 at Fri Dec 11 21:38:10 2020.

 --------------------------------------------------------------------
 #N Geom=AllCheck Guess=TCheck SCRF=Check GenChk RB3LYP/6-31G(d) Freq
 --------------------------------------------------------------------

 Structure from the checkpoint file:  "JID_8664.chk"
 -------------------------------
 CID_128739032_JID_8664_neutraal
 -------------------------------
 Charge =  0 Multiplicity = 1

 SCF Done:  E(RB3LYP) =  -825.226333594     A.U. after    1 cycles

  Exact polarizability: 188.880   3.580 153.404   5.492   2.041 134.036
 Approx polarizability: 223.604  -0.031 232.066   6.617   5.566 202.959

                      1                      2                      3
                      A                      A                      A
 Frequencies --     16.2433                24.4905                43.5781
 Red. masses --      3.6895                 2.8935                 3.2398
 Frc consts  --      0.0006                 0.0010                 0.0036
 IR Inten    --      0.2690                 0.0937                 0.0147

                      4                      5                      6
                      A                      A                      A
 Frequencies --     67.0938                80.8086               104.0055
 Red. masses --      4.4015                 4.9669                 2.1907
 Frc consts  --      0.0117                 0.0191                 0.0140
 IR Inten    --      2.5205                 2.6362                 0.4294

                      7                      8                      9
                      A                      A                      A
 Frequencies --    110.8896               139.9939               176.7215
 Red. masses --      2.9550                 2.4369                 3.1805
 Frc consts  --      0.0214                 0.0281                 0.0585
 IR Inten    --      0.5827                 3.2221                 1.1587

                     10                     11                     12
                      A                      A                      A
 Frequencies --    202.1811               221.6463               248.9668
 Red. masses --      2.7240                 1.7377                 2.8572
 Frc consts  --      0.0656                 0.0503                 0.1043
 IR Inten    --      0.8046                 0.5671                 2.8243

                     13                     14                     15
                      A                      A                      A
 Frequencies --    257.4561               268.4420               282.4821
 Red. masses --      1.8614                 1.3216                 2.0531
 Frc consts  --      0.0727                 0.0561                 0.0965
 IR Inten    --      0.3734                 1.8496                 1.6024

                     16                     17                     18
                      A                      A                      A
 Frequencies --    308.8627               318.3764               339.8925
 Red. masses --      1.5405                 1.6145                 2.7734
 Frc consts  --      0.0866                 0.0964                 0.1888
 IR Inten    --     51.5582                42.5269                 5.8587

                     19                     20                     21
                      A                      A                      A
 Frequencies --    362.1529               372.4902               391.3165
 Red. masses --      3.9549                 2.0034                 2.6893
 Frc consts  --      0.3056                 0.1638                 0.2426
 IR Inten    --      4.8544                 4.1039                13.6191

                     22                     23                     24
                      A                      A                      A
 Frequencies --    431.7486               450.5800               456.9137
 Red. masses --      2.5311                 2.8489                 2.4799
 Frc consts  --      0.2780                 0.3408                 0.3050
 IR Inten    --     11.4467                 9.9379                 0.7369

                     25                     26                     27
                      A                      A                      A
 Frequencies --    472.8218               483.8866               513.0406
 Red. masses --      2.6893                 2.8687                 3.5362
 Frc consts  --      0.3542                 0.3957                 0.5484
 IR Inten    --      9.3663                 1.5817                13.1575

                     28                     29                     30
                      A                      A                      A
 Frequencies --    553.8286               582.6269               636.0721
 Red. masses --      2.5635                 2.9993                 2.8192
 Frc consts  --      0.4633                 0.5999                 0.6720
 IR Inten    --      0.3654                13.1300                 9.4249

                     31                     32                     33
                      A                      A                      A
 Frequencies --    665.7312               739.4908               766.2684
 Red. masses --      4.3612                 2.7913                 2.5378
 Frc consts  --      1.1388                 0.8993                 0.8780
 IR Inten    --     12.8257                 1.5454                12.7143

                     34                     35                     36
                      A                      A                      A
 Frequencies --    802.2527               813.7255               826.5684
 Red. masses --      2.2233                 1.7444                 1.6113
 Frc consts  --      0.8431                 0.6806                 0.6486
 IR Inten    --     13.9313                 8.9791                14.4463

                     37                     38                     39
                      A                      A                      A
 Frequencies --    846.0996               884.4842               890.8091
 Red. masses --      2.0473                 2.7992                 1.4453
 Frc consts  --      0.8635                 1.2902                 0.6757
 IR Inten    --     34.1637                26.8304                 3.7633

                     40                     41                     42
                      A                      A                      A
 Frequencies --    894.5258               916.6895               920.4790
 Red. masses --      2.0645                 2.1327                 2.0640
 Frc consts  --      0.9733                 1.0559                 1.0303
 IR Inten    --      4.0132                11.7922                 3.4315

                     43                     44                     45
                      A                      A                      A
 Frequencies --    953.2471               971.7157               977.2362
 Red. masses --      2.2658                 1.7022                 1.9451
 Frc consts  --      1.2131                 0.9470                 1.0944
 IR Inten    --     21.7219                 7.7725                 2.3430

                     46                     47                     48
                      A                      A                      A
 Frequencies --    990.2327              1021.1061              1031.7897
 Red. masses --      1.9433                 1.9080                 2.1299
 Frc consts  --      1.1227                 1.1721                 1.3359
 IR Inten    --      5.3520                27.3849                 1.3143

                     49                     50                     51
                      A                      A                      A
 Frequencies --   1036.1118              1054.2206              1067.3630
 Red. masses --      1.6455                 1.9153                 2.0835
 Frc consts  --      1.0408                 1.2541                 1.3985
 IR Inten    --      5.8707                 9.5568                 9.4298

                     52                     53                     54
                      A                      A                      A
 Frequencies --   1094.4008              1101.9995              1121.9638
 Red. masses --      2.4520                 2.1437                 2.0116
 Frc consts  --      1.7303                 1.5338                 1.4919
 IR Inten    --      1.4357                14.1669                 8.1016

                     55                     56                     57
                      A                      A                      A
 Frequencies --   1142.2497              1153.7581              1161.7897
 Red. masses --      1.8929                 1.7219                 2.1273
 Frc consts  --      1.4551                 1.3505                 1.6917
 IR Inten    --     17.0091                72.5322                54.3681

                     58                     59                     60
                      A                      A                      A
 Frequencies --   1165.1363              1186.8864              1201.2223
 Red. masses --      1.9191                 2.1120                 2.0536
 Frc consts  --      1.5350                 1.7529                 1.7458
 IR Inten    --     17.5288                19.5834                31.5984

                     61                     62                     63
                      A                      A                      A
 Frequencies --   1215.5608              1218.9632              1234.0196
 Red. masses --      1.7125                 2.5354                 1.6366
 Frc consts  --      1.4908                 2.2196                 1.4684
 IR Inten    --      7.9096                35.7075               104.9808

                     64                     65                     66
                      A                      A                      A
 Frequencies --   1245.4785              1265.3884              1276.7407
 Red. masses --      1.4770                 1.5916                 1.6514
 Frc consts  --      1.3499                 1.5015                 1.5860
 IR Inten    --     32.7727                14.6508                33.0689

                     67                     68                     69
                      A                      A                      A
 Frequencies --   1286.8109              1310.3641              1320.4824
 Red. masses --      1.7465                 1.7366                 1.2188
 Frc consts  --      1.7039                 1.7569                 1.2521
 IR Inten    --     14.4373               151.4638                 2.5563

                     70                     71                     72
                      A                      A                      A
 Frequencies --   1329.2604              1332.4180              1343.6345
 Red. masses --      1.5249                 1.3155                 1.2683
 Frc consts  --      1.5874                 1.3760                 1.3491
 IR Inten    --      8.3935                22.0629                21.2889

                     73                     74                     75
                      A                      A                      A
 Frequencies --   1360.0925              1364.3951              1383.3892
 Red. masses --      1.3007                 1.2679                 1.4112
 Frc consts  --      1.4176                 1.3906                 1.5912
 IR Inten    --      6.4732                15.1735                14.6131

                     76                     77                     78
                      A                      A                      A
 Frequencies --   1386.2642              1392.6317              1407.8033
 Red. masses --      1.4240                 1.4758                 1.4492
 Frc consts  --      1.6123                 1.6863                 1.6922
 IR Inten    --      5.4201                 7.7117                36.9076

                     79                     80                     81
                      A                      A                      A
 Frequencies --   1416.3656              1424.8140              1428.5008
 Red. masses --      1.5954                 1.6612                 1.3146
 Frc consts  --      1.8857                 1.9870                 1.5805
 IR Inten    --      3.9875                11.8697                 1.9153

                     82                     83                     84
                      A                      A                      A
 Frequencies --   1434.8854              1447.9344              1449.4598
 Red. masses --      1.3559                 2.7325                 1.4227
 Frc consts  --      1.6448                 3.3753                 1.7610
 IR Inten    --     20.7435               361.9599                22.2634

                     85                     86                     87
                      A                      A                      A
 Frequencies --   1497.2052              1509.7367              1518.0413
 Red. masses --      1.3859                 1.0766                 1.0754
 Frc consts  --      1.8304                 1.4457                 1.4601
 IR Inten    --      3.5090                 2.3104                 6.7210

                     88                     89                     90
                      A                      A                      A
 Frequencies --   1520.6507              1521.0810              1524.5032
 Red. masses --      1.0864                 1.0617                 1.0510
 Frc consts  --      1.4801                 1.4472                 1.4392
 IR Inten    --      3.6029                 2.6764                 6.5227

                     91                     92                     93
                      A                      A                      A
 Frequencies --   1525.7459              1527.0327              1534.0038
 Red. masses --      1.0896                 1.0836                 1.0807
 Frc consts  --      1.4945                 1.4887                 1.4984
 IR Inten    --      4.2382                 8.4792                 0.3572

                     94                     95                     96
                      A                      A                      A
 Frequencies --   1536.2962              1541.0703              1546.7143
 Red. masses --      1.0731                 1.0738                 1.0933
 Frc consts  --      1.4922                 1.5025                 1.5410
 IR Inten    --     13.3747                 0.4906                12.0214

                     97                     98                     99
                      A                      A                      A
 Frequencies --   1556.3073              1775.0454              2886.3497
 Red. masses --      1.1031                 7.6445                 1.0734
 Frc consts  --      1.5741                14.1912                 5.2688
 IR Inten    --      5.8624               359.3357                49.3359

                    100                    101                    102
                      A                      A                      A
 Frequencies --   2909.3298              2920.7946              2995.1703
 Red. masses --      1.0746                 1.0734                 1.0744
 Frc consts  --      5.3589                 5.3954                 5.6788
 IR Inten    --     40.6995               142.3260                40.5243

                    103                    104                    105
                      A                      A                      A
 Frequencies --   3006.5666              3042.3017              3051.3586
 Red. masses --      1.0733                 1.0438                 1.0625
 Frc consts  --      5.7162                 5.6918                 5.8286
 IR Inten    --     50.4039                28.6282                19.4122

                    106                    107                    108
                      A                      A                      A
 Frequencies --   3054.5047              3057.4153              3062.8829
 Red. masses --      1.0616                 1.0355                 1.0867
 Frc consts  --      5.8354                 5.7033                 6.0066
 IR Inten    --     23.0892                18.6351                22.0437

                    109                    110                    111
                      A                      A                      A
 Frequencies --   3079.3074              3091.7079              3091.8190
 Red. masses --      1.0618                 1.0889                 1.0979
 Frc consts  --      5.9319                 6.1324                 6.1836
 IR Inten    --     23.0653                34.8842                34.0446

                    112                    113                    114
                      A                      A                      A
 Frequencies --   3100.2933              3105.6867              3111.7279
 Red. masses --      1.1043                 1.0881                 1.0935
 Frc consts  --      6.2537                 6.1832                 6.2385
 IR Inten    --     41.2106                22.5588                30.6035

                    115                    116                    117
                      A                      A                      A
 Frequencies --   3124.0037              3126.5957              3131.4319
 Red. masses --      1.1051                 1.1015                 1.1032
 Frc consts  --      6.3542                 6.3442                 6.3737
 IR Inten    --     22.2000                39.5349                28.1760

                    118                    119                    120
                      A                      A                      A
 Frequencies --   3142.7568              3146.6105              3161.8203
 Red. masses --      1.1021                 1.0900                 1.0897
 Frc consts  --      6.4133                 6.3588                 6.4187
 IR Inten    --     29.2858                19.6055                 4.9795

                    121                    122                    123
                      A                      A                      A
 Frequencies --   3163.6699              3537.2014              3724.5178
 Red. masses --      1.0853                 1.0740                 1.0659
 Frc consts  --      6.4001                 7.9171                 8.7116
 IR Inten    --     20.8141                 8.6698                 4.3583

 - Thermochemistry -
 -------------------
 Temperature   298.150 Kelvin.  Pressure   1.00000 Atm.
 Atom     1 has atomic number  6 and mass  12.00000

 Molecular mass:   255.19468 amu.
 Principal axes and moments of inertia in atomic units:
                           1         2         3
     Eigenvalues --  2543.951428342.190569574.98758
           X            0.99999   0.00363   0.00324
           Y           -0.00362   0.99999  -0.00140
           Z           -0.00325   0.00139   0.99999
 This molecule is an asymmetric top.
 Rotational symmetry number  1.
 Warning -- assumption of classical behavior for rotation
           may cause significant error
 Rotational temperatures (Kelvin)      0.03405     0.01038     0.00905
 Rotational constants (GHZ):           0.70942     0.21634     0.18848
 Zero-point vibrational energy    1017149.3 (Joules/Mol)
                                  243.10451 (Kcal/Mol)
 Warning -- explicit consideration of  29 degrees of freedom as
           vibrations may cause significant error
 Vibrational temperatures:     23.37    35.24    62.70    96.53   116.27
          (Kelvin)            149.64   159.55   201.42   254.26   290.89
                              318.90   358.21   370.42   386.23   406.43
                              444.38   458.07   489.03   521.06   535.93
                              563.02   621.19   648.28   657.40   680.29
                              696.20   738.15   796.84   838.27   915.17
                              957.84  1063.96  1102.49  1154.26  1170.77
                             1189.25  1217.35  1272.58  1281.68  1287.02
                             1318.91  1324.36  1371.51  1398.08  1406.02
                             1424.72  1469.14  1484.52  1490.73  1516.79
                             1535.70  1574.60  1585.53  1614.26  1643.44
                             1660.00  1671.56  1676.37  1707.66  1728.29
                             1748.92  1753.82  1775.48  1791.97  1820.61
                             1836.95  1851.43  1885.32  1899.88  1912.51
                             1917.05  1933.19  1956.87  1963.06  1990.39
                             1994.53  2003.69  2025.51  2037.83  2049.99
                             2055.29  2064.48  2083.25  2085.45  2154.14
                             2172.17  2184.12  2187.88  2188.50  2193.42
                             2195.21  2197.06  2207.09  2210.39  2217.26
                             2225.38  2239.18  2553.89  4152.81  4185.88
                             4202.37  4309.38  4325.78  4377.19  4390.22
                             4394.75  4398.94  4406.81  4430.44  4448.28
                             4448.44  4460.63  4468.39  4477.08  4494.74
                             4498.47  4505.43  4521.73  4527.27  4549.15
                             4551.82  5089.24  5358.75

 Zero-point correction=                           0.387412 (Hartree/Particle)
 Thermal correction to Energy=                    0.405964
 Thermal correction to Enthalpy=                  0.406908
 Thermal correction to Gibbs Free Energy=         0.339289
 Sum of electronic and zero-point Energies=           -824.838922
 Sum of electronic and thermal Energies=              -824.820369
 Sum of electronic and thermal Enthalpies=            -824.819425
 Sum of electronic and thermal Free Energies=         -824.887045

                     E (Thermal)             CV                S
                      KCal/Mol        Cal/Mol-Kelvin    Cal/Mol-Kelvin
 Total                  254.746             71.512            142.317
 Electronic               0.000              0.000              0.000
 Translational            0.889              2.981             42.511
 Rotational               0.889              2.981             33.674
 Vibrational            252.969             65.551             66.132
 Vibration     1          0.593              1.986              7.047
 Vibration     2          0.593              1.985              6.232
 Vibration     3          0.595              1.980              5.089
 Vibration     4          0.598              1.970              4.237
 Vibration     5          0.600              1.962              3.871
 Vibration     6          0.605              1.946              3.378
 Vibration     7          0.607              1.940              3.253
 Vibration     8          0.615              1.913              2.804
 Vibration     9          0.628              1.871              2.363
 Vibration    10          0.639              1.837              2.113
 Vibration    11          0.648              1.808              1.946
 Vibration    12          0.662              1.764              1.738
 Vibration    13          0.667              1.750              1.679
 Vibration    14          0.673              1.731              1.606
 Vibration    15          0.682              1.706              1.519
 Vibration    16          0.698              1.657              1.368
 Vibration    17          0.705              1.638              1.318
 Vibration    18          0.720              1.596              1.213
 Vibration    19          0.736              1.550              1.113
 Vibration    20          0.744              1.529              1.070
 Vibration    21          0.759              1.489              0.995
 Vibration    22          0.793              1.401              0.853
 Vibration    23          0.809              1.360              0.794
 Vibration    24          0.815              1.346              0.775
 Vibration    25          0.830              1.310              0.730
 Vibration    26          0.840              1.286              0.700
 Vibration    27          0.868              1.221              0.626
 Vibration    28          0.909              1.131              0.536
 Vibration    29          0.939              1.069              0.481

                           ! Non-Optimized Parameters !
 Normal termination of Gaussian 16 at Fri Dec 11 21:57:51 2020.

 ----------------------------------------------------------------------
 # B3LYP/6-311++G(d,p) empiricaldispersion=gd3bj scf=xqc pop=npa geom=c
 heck
 ----------------------------------------------------------------------

 ---------------------------------------
 CID_128739032_JID_8664_Energie_neutraal
 ---------------------------------------
 Structure from the checkpoint file:  "JID_8664.chk"
 Charge =  0 Multiplicity = 1

 SCF Done:  E(RB3LYP) =  -825.470767600     A.U. after   14 cycles
 Normal termination of Gaussian 16 at Fri Dec 11 22:05:45 2020.

 ----------------------------------------------------------------------
 # B3LYP/6-311++G(d,p) empiricaldispersion=gd3bj scf=xqc pop=npa geom=c
 heck
 ----------------------------------------------------------------------

 -------------------------------------
 CID_128739032_JID_8664_Energie_kation
 -------------------------------------
 Structure from the checkpoint file:  "JID_8664.chk"
 Charge =  1 Multiplicity = 2

 SCF Done:  E(UB3LYP) =  -825.175890451     A.U. after   25 cycles
 Normal termination of Gaussian 16 at Fri Dec 11 22:24:59 2020.
 Gaussian 16:  ES64L-G16RevA.03 25-Dec-2016

 ----------------------------------------------------------------------
 # B3LYP/6-311++G(d,p) empiricaldispersion=gd3bj scf=xqc pop=npa geom=c
 heck
 ----------------------------------------------------------------------

 ------------------------------------
 CID_128739032_JID_8664_Energie_anion
 ------------------------------------
 Structure from the checkpoint file:  "JID_8664.chk"
 Charge = -1 Multiplicity = 2

                         Standard orientation:
 ---------------------------------------------------------------------
 Center     Atomic      Atomic             Coordinates (Angstroms)
 Number     Number       Type             X           Y           Z
 ---------------------------------------------------------------------
      1          6           0       -5.602534   -1.236602    0.597220
      2          6           0       -4.718158   -0.588679   -0.465587
      3          7           0       -3.335482   -0.444638   -0.033440
      4          6           0       -3.127902    0.491924    1.074959
      5          6           0       -1.603150    0.697129    1.101424
      6          6           0       -1.136113    0.329086   -0.340311
      7          6           0       -2.446513    0.031305   -1.083135
      8          7           0       -0.362750    1.357839   -1.043595
      9          6           0        0.825545    1.845009   -0.475970
     10          8           0        0.985553    3.043761   -0.270028
     11          7           0        1.782032    0.894277   -0.161825
     12          6           0        2.999029    1.381468    0.491305
     13          6           0        3.608988    0.272323    1.349681
     14          6           0        3.841205   -1.005513    0.534474
     15          6           0        2.570547   -1.463064   -0.192662
     16          6           0        2.017499   -0.276843   -1.008070
     17          6           0        1.527143   -2.028164    0.774486
     18          8           0        2.998564   -2.481337   -1.103980
     19          1           0       -5.177445   -2.194920    0.913208
     20          1           0       -6.607154   -1.414818    0.199185
     21          1           0       -5.706021   -0.600395    1.482417
     22          1           0       -4.717466   -1.214749   -1.366418
     23          1           0       -5.145555    0.392106   -0.761279
     24          1           0       -3.521786    0.085681    2.010452
     25          1           0       -3.644720    1.454445    0.884990
     26          1           0       -1.329740    1.725932    1.353023
     27          1           0       -1.128161    0.039054    1.834824
     28          1           0       -0.540752   -0.580733   -0.298185
     29          1           0       -2.824095    0.963993   -1.555908
     30          1           0       -2.333442   -0.715512   -1.875791
     31          1           0       -0.937935    2.171559   -1.244125
     32          1           0        3.724274    1.712087   -0.270441
     33          1           0        2.733615    2.255218    1.085700
     34          1           0        2.942337    0.067496    2.196244
     35          1           0        4.558323    0.624035    1.769912
     36          1           0        4.212379   -1.819122    1.167601
     37          1           0        4.604963   -0.821352   -0.231896
     38          1           0        1.096987   -0.550551   -1.525025
     39          1           0        2.764364   -0.033370   -1.780202
     40          1           0        0.674364   -2.444177    0.221879
     41          1           0        1.965177   -2.832436    1.373857
     42          1           0        1.140384   -1.256972    1.446461
     43          1           0        2.204056   -2.860503   -1.513293
 ---------------------------------------------------------------------

 SCF Done:  E(UB3LYP) =  -825.461293132     A.U. after   32 cycles

 The electronic state is 2-A.
 Alpha  occ. eigenvalues --  -19.03085 -19.00016 -14.24986 -14.23517 -14.21527
 Alpha  occ. eigenvalues --  -10.20439 -10.14218 -10.12029 -10.11453 -10.11409
 Alpha  occ. eigenvalues --  -10.10380 -10.10365 -10.10299 -10.08792 -10.08055
 Alpha  occ. eigenvalues --  -10.07852 -10.07062 -10.06875  -0.96384  -0.93618
 Alpha  occ. eigenvalues --   -0.85810  -0.85168  -0.82053  -0.71740  -0.69632
 Alpha  occ. eigenvalues --   -0.67929  -0.64403  -0.63209  -0.61163  -0.59328
 Alpha  occ. eigenvalues --   -0.54563  -0.54106  -0.50892  -0.49651  -0.48241
 Alpha  occ. eigenvalues --   -0.45801  -0.43314  -0.41735  -0.41395  -0.40073
 Alpha  occ. eigenvalues --   -0.38805  -0.37986  -0.37233  -0.36786  -0.35951
 Alpha  occ. eigenvalues --   -0.35219  -0.34322  -0.33297  -0.32693  -0.32454
 Alpha  occ. eigenvalues --   -0.31471  -0.30946  -0.30351  -0.29398  -0.28220
 Alpha  occ. eigenvalues --   -0.27686  -0.27156  -0.26963  -0.26727  -0.26346
 Alpha  occ. eigenvalues --   -0.25633  -0.25448  -0.25102  -0.24079  -0.22663
 Alpha  occ. eigenvalues --   -0.19896  -0.19401  -0.15957  -0.15572  -0.13453
 Alpha  occ. eigenvalues --    0.03952
 Alpha virt. eigenvalues --    0.05795   0.06343   0.07140   0.07467   0.07939
 Alpha virt. eigenvalues --    0.08401   0.09144   0.09300   0.09743   0.09997
 Alpha virt. eigenvalues --    0.10444   0.10844   0.11095   0.11507   0.11807

  Beta  occ. eigenvalues --  -19.03049 -19.00013 -14.24986 -14.23512 -14.21516
  Beta  occ. eigenvalues --  -10.20433 -10.14219 -10.12023 -10.11448 -10.11391
  Beta  occ. eigenvalues --  -10.10363 -10.10346 -10.10283 -10.08778 -10.08041
  Beta  occ. eigenvalues --  -10.07842 -10.07036 -10.06836  -0.96376  -0.93549
  Beta  occ. eigenvalues --   -0.85795  -0.85152  -0.82040  -0.71715  -0.69607
  Beta  occ. eigenvalues --   -0.67900  -0.64371  -0.63174  -0.61110  -0.59303
  Beta  occ. eigenvalues --   -0.54517  -0.54051  -0.50867  -0.49611  -0.48186
  Beta  occ. eigenvalues --   -0.45757  -0.43284  -0.41691  -0.41342  -0.40047
  Beta  occ. eigenvalues --   -0.38776  -0.37963  -0.37203  -0.36761  -0.35929
  Beta  occ. eigenvalues --   -0.35194  -0.34295  -0.33276  -0.32668  -0.32426
  Beta  occ. eigenvalues --   -0.31441  -0.30917  -0.30315  -0.29367  -0.28191
  Beta  occ. eigenvalues --   -0.27655  -0.27122  -0.26924  -0.26698  -0.26316
  Beta  occ. eigenvalues --   -0.25609  -0.25417  -0.25074  -0.24049  -0.22627
  Beta  occ. eigenvalues --   -0.19879  -0.19376  -0.15945  -0.15563  -0.13395
  Beta virt. eigenvalues --    0.05944   0.06278   0.07418   0.07495   0.07647
  Beta virt. eigenvalues --    0.08140   0.08693   0.09534   0.09624   0.09799
  Beta virt. eigenvalues --    0.10349   0.10525   0.11078   0.11188   0.11613

 Mulliken charges and spin densities:
               1          2
     1  C    0.514480  -1.122094
     2  C   -0.212393   0.178571
     3  N    0.201763   0.106960
     4  C    0.476932  -0.960344
     5  C   -0.603872   0.478641
     6  C   -0.903512   0.299030
     7  C    0.056918  -0.488340
     8  N   -0.035409   0.068587
     9  C   -0.101299   0.081063
    10  O   -0.296324  -0.003713
    11  N    0.170208  -0.006829
    12  C   -0.109475  -0.145142
    13  C   -0.321338  -0.033049
    14  C    0.449252  -0.583479
    15  C   -0.446714   0.385981
    16  C   -0.349219  -0.287367
    17  C    0.335704  -0.881761
    18  O   -0.176114   0.019975
    19  H   -0.039641   0.197286
    20  H   -0.232743   0.363344
    21  H   -0.151297   0.283625
    22  H   -0.225901   0.375770
    23  H    0.051618   0.033474
    24  H    0.125119   0.061245
    25  H   -0.087063   0.200186
    26  H    0.192822  -0.006922
    27  H   -0.356420   0.505835
    28  H    1.689212  -1.494650
    29  H    0.051490  -0.008597
    30  H   -0.559566   0.793581
    31  H    0.255178   0.050747
    32  H    0.130716   0.027153
    33  H    0.124985   0.059070
    34  H   -0.000478   0.153705
    35  H    0.023627   0.153643
    36  H   -0.037103   0.196624
    37  H    0.110646   0.066350
    38  H   -0.212571   0.428155
    39  H    0.027661   0.183655
    40  H   -0.622436   0.805790
    41  H   -0.245519   0.440223
    42  H    0.366987  -0.275870
    43  H   -0.028910   0.299890
 Sum of Mulliken charges =  -1.00000   1.00000

 Dipole moment (field-independent basis, Debye):
    X=              2.8435    Y=              4.8163    Z=              1.4885  Tot=              5.7878
 Quadrupole moment (field-independent basis, Debye-Ang):
   XX=           -197.5033   YY=           -173.0905   ZZ=           -149.8802
   XY=             -3.7856   XZ=              2.5713   YZ=             -5.3800

 Summary of Natural Population Analysis:

                                       Natural Population
                Natural  -----------------------------------------------
    Atom  No    Charge         Core      Valence    Rydberg      Total
 -----------------------------------------------------------------------
      C    1   -0.28759      0.99966     2.28354    0.00438     3.28759
      C    2   -0.08190      0.99963     2.07084    0.01143     3.08190
      N    3   -0.27808      0.99970     2.76527    0.01310     3.77808
      C    4   -0.08576      0.99963     2.07532    0.01080     3.08576
      C    5   -0.20084      0.99962     2.19312    0.00810     3.20084
      C    6   -0.02096      0.99957     2.00789    0.01351     3.02096
      C    7   -0.08059      0.99960     2.06822    0.01277     3.08059
      N    8   -0.33704      0.99968     2.82744    0.00992     3.83704
      C    9    0.41860      0.99967     1.55824    0.02349     2.58140
      O   10   -0.33393      0.99988     3.32929    0.00477     4.33393
      N   11   -0.27369      0.99963     2.76492    0.00913     3.77369
      C   12   -0.08217      0.99962     2.07332    0.00923     3.08217
      C   13   -0.19596      0.99962     2.18775    0.00860     3.19596
      C   14   -0.19373      0.99957     2.18497    0.00919     3.19373
      C   15    0.12335      0.99951     1.86101    0.01613     2.87665
      C   16   -0.09542      0.99954     2.08275    0.01313     3.09542
      C   17   -0.30122      0.99961     2.29381    0.00780     3.30122
      O   18   -0.37471      0.99989     3.36818    0.00664     4.37471
      H   19    0.10230      0.00000     0.39614    0.00156     0.39770
      H   20    0.09908      0.00000     0.39997    0.00095     0.40092
      H   21    0.09563      0.00000     0.40300    0.00136     0.40437
      H   22    0.09654      0.00000     0.40193    0.00154     0.40346
      H   23    0.07593      0.00000     0.42249    0.00158     0.42407
      H   24    0.09964      0.00000     0.39902    0.00134     0.40036
      H   25    0.07731      0.00000     0.42127    0.00142     0.42269
      H   26    0.10345      0.00000     0.39566    0.00090     0.39655
      H   27    0.10333      0.00000     0.39536    0.00131     0.39667
      H   28    0.10410      0.00000     0.39244    0.00345     0.39590
      H   29    0.07441      0.00000     0.42387    0.00171     0.42559
      H   30    0.10567      0.00000     0.39244    0.00189     0.39433
      H   31    0.18756      0.00000     0.31016    0.00228     0.31244
      H   32    0.08683      0.00000     0.41201    0.00116     0.41317
      H   33    0.11293      0.00000     0.38605    0.00102     0.38707
      H   34    0.09882      0.00000     0.39988    0.00131     0.40118
      H   35    0.10024      0.00000     0.39892    0.00085     0.39976
      H   36    0.10467      0.00000     0.39436    0.00097     0.39533
      H   37    0.10147      0.00000     0.39728    0.00125     0.39853
      H   38    0.11073      0.00000     0.38724    0.00203     0.38927
      H   39    0.09485      0.00000     0.40379    0.00137     0.40515
      H   40    0.10372      0.00000     0.39400    0.00228     0.39628
      H   41    0.10521      0.00000     0.39365    0.00114     0.39479
      H   42    0.10458      0.00000     0.39383    0.00160     0.39542
      H   43    0.23266      0.00000     0.26233    0.00501     0.26734
 =======================================================================
   * Total *   -0.00000     17.99363    51.77298    0.23339    70.00000

 Normal termination of Gaussian 16 at Fri Dec 11 22:49:02 2020.
