 Gaussian 16, Revision A.03,

 -----------------------------------------------------------
 # opt freq B3LYP/6-31G(d) empiricaldispersion=gd3bj scf=xqc
 -----------------------------------------------------------

 ------------------------------
 CID_28287688_JID_7954_neutraal
 ------------------------------
 Symbolic Z-matrix:
 Charge =  0 Multiplicity = 1

 SCF Done:  E(RB3LYP) =  -1121.42710051     A.U. after   15 cycles
 SCF Done:  E(RB3LYP) =  -1121.41916551     A.U. after   15 cycles
 SCF Done:  E(RB3LYP) =  -1121.43080520     A.U. after   14 cycles
 SCF Done:  E(RB3LYP) =  -1121.43037910     A.U. after   13 cycles
 SCF Done:  E(RB3LYP) =  -1121.43232096     A.U. after   12 cycles
 SCF Done:  E(RB3LYP) =  -1121.43291319     A.U. after   12 cycles
 SCF Done:  E(RB3LYP) =  -1121.43303435     A.U. after   11 cycles
 SCF Done:  E(RB3LYP) =  -1121.43307422     A.U. after   11 cycles
 SCF Done:  E(RB3LYP) =  -1121.43309945     A.U. after   11 cycles
 SCF Done:  E(RB3LYP) =  -1121.43313797     A.U. after   12 cycles
 SCF Done:  E(RB3LYP) =  -1121.43831504     A.U. after   10 cycles
 SCF Done:  E(RB3LYP) =  -1121.43831791     A.U. after   11 cycles
 SCF Done:  E(RB3LYP) =  -1121.43831921     A.U. after   10 cycles
 SCF Done:  E(RB3LYP) =  -1121.43831957     A.U. after    8 cycles
 SCF Done:  E(RB3LYP) =  -1121.43831962     A.U. after    7 cycles
 Optimization completed.
    -- Stationary point found.
 Normal termination of Gaussian 16 at Fri Dec 11 13:46:37 2020.

 --------------------------------------------------------------------
 #N Geom=AllCheck Guess=TCheck SCRF=Check GenChk RB3LYP/6-31G(d) Freq
 --------------------------------------------------------------------

 Structure from the checkpoint file:  "JID_7954.chk"
 ------------------------------
 CID_28287688_JID_7954_neutraal
 ------------------------------
 Charge =  0 Multiplicity = 1

 SCF Done:  E(RB3LYP) =  -1121.43831962     A.U. after    1 cycles

  Exact polarizability: 166.316  24.512 151.636 -15.859  -0.164 130.158
 Approx polarizability: 247.228  62.462 254.399 -37.573  -8.279 244.114

                      1                      2                      3
                      A                      A                      A
 Frequencies --     13.5320                26.6049                53.7054
 Red. masses --      9.0337                 5.0202                 6.3002
 Frc consts  --      0.0010                 0.0021                 0.0107
 IR Inten    --      1.7094                 0.5858                 0.7905

                      4                      5                      6
                      A                      A                      A
 Frequencies --     94.3048               106.1994               118.2681
 Red. masses --      3.7172                 6.9355                 8.2416
 Frc consts  --      0.0195                 0.0461                 0.0679
 IR Inten    --      3.0278                 3.3154                 3.3671

                      7                      8                      9
                      A                      A                      A
 Frequencies --    150.5484               181.0076               198.8143
 Red. masses --      6.0275                 5.8379                 4.7449
 Frc consts  --      0.0805                 0.1127                 0.1105
 IR Inten    --      2.8673                 1.7850                 1.0633

                     10                     11                     12
                      A                      A                      A
 Frequencies --    239.6757               264.1340               312.1804
 Red. masses --      3.4346                 1.5397                 3.1669
 Frc consts  --      0.1162                 0.0633                 0.1818
 IR Inten    --      0.8201                 0.1783                 1.3832

                     13                     14                     15
                      A                      A                      A
 Frequencies --    328.5957               339.7132               399.2726
 Red. masses --      3.1273                 3.3379                 4.7296
 Frc consts  --      0.1989                 0.2270                 0.4442
 IR Inten    --     10.1010                 2.1403                 2.0559

                     16                     17                     18
                      A                      A                      A
 Frequencies --    457.3842               483.0780               500.2379
 Red. masses --      8.7690                 4.9287                 4.1802
 Frc consts  --      1.0808                 0.6777                 0.6163
 IR Inten    --      5.0835                 6.7011                 0.3963

                     19                     20                     21
                      A                      A                      A
 Frequencies --    501.7492               540.4103               547.0479
 Red. masses --     14.6831                 6.8429                 6.1324
 Frc consts  --      2.1779                 1.1774                 1.0813
 IR Inten    --      1.2001                 3.6879                 0.5921

                     22                     23                     24
                      A                      A                      A
 Frequencies --    570.9977               580.2835               605.5727
 Red. masses --      5.7017                 5.9897                 5.6017
 Frc consts  --      1.0953                 1.1883                 1.2103
 IR Inten    --      0.7132                 2.4513                 2.4890

                     25                     26                     27
                      A                      A                      A
 Frequencies --    637.9547               683.1915               715.8595
 Red. masses --      6.6919                 4.4659                 5.3610
 Frc consts  --      1.6046                 1.2281                 1.6186
 IR Inten    --      2.0838                 4.8535                 5.6328

                     28                     29                     30
                      A                      A                      A
 Frequencies --    748.5866               759.9219               773.2608
 Red. masses --      3.9666                 2.0143                 2.1819
 Frc consts  --      1.3096                 0.6853                 0.7687
 IR Inten    --      0.9906                31.2608                55.6164

                     31                     32                     33
                      A                      A                      A
 Frequencies --    785.8315               834.3299               856.5478
 Red. masses --      1.4567                 4.9444                 1.4869
 Frc consts  --      0.5300                 2.0279                 0.6428
 IR Inten    --     28.6035                 8.6977                 1.1227

                     34                     35                     36
                      A                      A                      A
 Frequencies --    877.4742               930.4607               967.5420
 Red. masses --      4.0811                 1.3610                 1.2502
 Frc consts  --      1.8514                 0.6942                 0.6895
 IR Inten    --      5.7188                 4.8917                 0.2769

                     37                     38                     39
                      A                      A                      A
 Frequencies --    969.2388              1014.9734              1036.1119
 Red. masses --      4.4649                 4.7207                 3.7624
 Frc consts  --      2.4713                 2.8653                 2.3797
 IR Inten    --     19.6420                46.1885                41.8960

                     40                     41                     42
                      A                      A                      A
 Frequencies --   1068.2499              1083.0357              1145.8712
 Red. masses --      4.4353                 2.3496                 1.7961
 Frc consts  --      2.9821                 1.6238                 1.3894
 IR Inten    --     26.9668                35.0343                69.6859

                     43                     44                     45
                      A                      A                      A
 Frequencies --   1149.5618              1187.4345              1193.1710
 Red. masses --      1.9492                 1.2699                 2.2168
 Frc consts  --      1.5176                 1.0549                 1.8595
 IR Inten    --      4.7422                 0.7379                 5.5045

                     46                     47                     48
                      A                      A                      A
 Frequencies --   1194.4943              1214.4522              1242.2221
 Red. masses --      1.1137                 1.7018                 2.0816
 Frc consts  --      0.9362                 1.4789                 1.8925
 IR Inten    --      3.9449                43.1283                73.0519

                     49                     50                     51
                      A                      A                      A
 Frequencies --   1294.9853              1310.5799              1317.1249
 Red. masses --      1.9318                 1.5859                 1.8178
 Frc consts  --      1.9087                 1.6049                 1.8580
 IR Inten    --    114.1986                37.2539                83.8303

                     52                     53                     54
                      A                      A                      A
 Frequencies --   1340.2505              1362.2161              1421.8237
 Red. masses --      4.9665                 6.8530                 1.3291
 Frc consts  --      5.2562                 7.4924                 1.5830
 IR Inten    --     14.8532                11.7484                 7.5921

                     55                     56                     57
                      A                      A                      A
 Frequencies --   1491.9087              1506.1091              1513.8048
 Red. masses --      1.4527                 1.4488                 6.3567
 Frc consts  --      1.9051                 1.9362                 8.5826
 IR Inten    --     15.7892                 3.4061                 0.8915

                     58                     59                     60
                      A                      A                      A
 Frequencies --   1518.5954              1520.6922              1534.8960
 Red. masses --      1.3027                 1.0514                 1.0989
 Frc consts  --      1.7700                 1.4325                 1.5253
 IR Inten    --     13.6229                 5.6909                48.4670

                     61                     62                     63
                      A                      A                      A
 Frequencies --   1553.8619              1563.0390              1646.8658
 Red. masses --      2.5318                 9.0662                 6.5948
 Frc consts  --      3.6017                13.0501                10.5382
 IR Inten    --    111.1974                23.9871                 4.9498

                     64                     65                     66
                      A                      A                      A
 Frequencies --   1660.1867              2361.9867              3033.7964
 Red. masses --      6.0574                12.6733                 1.0341
 Frc consts  --      9.8366                41.6578                 5.6076
 IR Inten    --     15.4642                21.8762                45.1814

                     67                     68                     69
                      A                      A                      A
 Frequencies --   3096.8807              3107.1959              3160.1451
 Red. masses --      1.1067                 1.0568                 1.1097
 Frc consts  --      6.2537                 6.0113                 6.5291
 IR Inten    --     40.5542                29.6812                 5.0807

                     70                     71                     72
                      A                      A                      A
 Frequencies --   3163.5306              3195.1991              3210.1378
 Red. masses --      1.1009                 1.0861                 1.0913
 Frc consts  --      6.4915                 6.5333                 6.6256
 IR Inten    --     18.9457                 2.3863                17.9593

                     73                     74                     75
                      A                      A                      A
 Frequencies --   3223.8156              3230.4676              3286.8572
 Red. masses --      1.0939                 1.0931                 1.0951
 Frc consts  --      6.6987                 6.7208                 6.9708
 IR Inten    --     10.0195                 7.0164                 3.5696

 - Thermochemistry -
 -------------------
 Temperature   298.150 Kelvin.  Pressure   1.00000 Atm.
 Atom     1 has atomic number  6 and mass  12.00000

 Molecular mass:   246.04630 amu.
 Principal axes and moments of inertia in atomic units:
                           1         2         3
     Eigenvalues --  2576.397855922.716756611.95609
           X            0.99990   0.00447  -0.01310
           Y           -0.00436   0.99996   0.00774
           Z            0.01314  -0.00769   0.99988
 This molecule is an asymmetric top.
 Rotational symmetry number  1.
 Warning -- assumption of classical behavior for rotation
           may cause significant error
 Rotational temperatures (Kelvin)      0.03362     0.01462     0.01310
 Rotational constants (GHZ):           0.70049     0.30472     0.27295
 Zero-point vibrational energy     528211.4 (Joules/Mol)
                                  126.24555 (Kcal/Mol)
 Warning -- explicit consideration of  24 degrees of freedom as
           vibrations may cause significant error
 Vibrational temperatures:     19.47    38.28    77.27   135.68   152.80
          (Kelvin)            170.16   216.61   260.43   286.05   344.84
                              380.03   449.16   472.78   488.77   574.46
                              658.07   695.04   719.73   721.91   777.53
                              787.08   821.54   834.90   871.28   917.87
                              982.96  1029.96  1077.05  1093.36  1112.55
                             1130.64  1200.41  1232.38  1262.49  1338.73
                             1392.08  1394.52  1460.32  1490.73  1536.97
                             1558.25  1648.65  1653.96  1708.45  1716.71
                             1718.61  1747.33  1787.28  1863.20  1885.63
                             1895.05  1928.32  1959.93  2045.69  2146.52
                             2166.96  2178.03  2184.92  2187.94  2208.37
                             2235.66  2248.86  2369.47  2388.64  3398.37
                             4364.96  4455.72  4470.56  4546.74  4551.61
                             4597.18  4618.67  4638.35  4647.92  4729.05

 Zero-point correction=                           0.201185 (Hartree/Particle)
 Thermal correction to Energy=                    0.216270
 Thermal correction to Enthalpy=                  0.217214
 Thermal correction to Gibbs Free Energy=         0.156448
 Sum of electronic and zero-point Energies=          -1121.237135
 Sum of electronic and thermal Energies=             -1121.222050
 Sum of electronic and thermal Enthalpies=           -1121.221105
 Sum of electronic and thermal Free Energies=        -1121.281872

                     E (Thermal)             CV                S
                      KCal/Mol        Cal/Mol-Kelvin    Cal/Mol-Kelvin
 Total                  135.711             56.458            127.894
 Electronic               0.000              0.000              0.000
 Translational            0.889              2.981             42.402
 Rotational               0.889              2.981             32.978
 Vibrational            133.934             50.497             52.514
 Vibration     1          0.593              1.986              7.410
 Vibration     2          0.593              1.984              6.068
 Vibration     3          0.596              1.976              4.676
 Vibration     4          0.603              1.953              3.569
 Vibration     5          0.605              1.944              3.337
 Vibration     6          0.608              1.934              3.128
 Vibration     7          0.618              1.902              2.665
 Vibration     8          0.630              1.866              2.318
 Vibration     9          0.637              1.842              2.144
 Vibration    10          0.657              1.780              1.805
 Vibration    11          0.671              1.739              1.634
 Vibration    12          0.701              1.650              1.351
 Vibration    13          0.712              1.618              1.267
 Vibration    14          0.720              1.596              1.213
 Vibration    15          0.765              1.472              0.965
 Vibration    16          0.816              1.345              0.774
 Vibration    17          0.839              1.288              0.702
 Vibration    18          0.856              1.249              0.658
 Vibration    19          0.857              1.246              0.654
 Vibration    20          0.895              1.161              0.564
 Vibration    21          0.902              1.146              0.550
 Vibration    22          0.927              1.094              0.502
 Vibration    23          0.937              1.074              0.485
 Vibration    24          0.964              1.020              0.440

 Optimization completed.
    -- Stationary point found.
 Normal termination of Gaussian 16 at Fri Dec 11 13:56:34 2020.

 ----------------------------------------------------------------------
 # B3LYP/6-311++G(d,p) empiricaldispersion=gd3bj scf=xqc pop=npa geom=c
 heck
 ----------------------------------------------------------------------

 --------------------------------------
 CID_28287688_JID_7954_Energie_neutraal
 --------------------------------------
 Structure from the checkpoint file:  "JID_7954.chk"
 Charge =  0 Multiplicity = 1

 SCF Done:  E(RB3LYP) =  -1121.65990956     A.U. after   16 cycles
 Normal termination of Gaussian 16 at Fri Dec 11 14:01:21 2020.

 ----------------------------------------------------------------------
 # B3LYP/6-311++G(d,p) empiricaldispersion=gd3bj scf=xqc pop=npa geom=c
 heck
 ----------------------------------------------------------------------

 ------------------------------------
 CID_28287688_JID_7954_Energie_kation
 ------------------------------------
 Structure from the checkpoint file:  "JID_7954.chk"
 Charge =  1 Multiplicity = 2

 SCF Done:  E(UB3LYP) =  -1121.35821678     A.U. after   31 cycles
 Normal termination of Gaussian 16 at Fri Dec 11 14:14:17 2020.
 Gaussian 16:  ES64L-G16RevA.03 25-Dec-2016

 ----------------------------------------------------------------------
 # B3LYP/6-311++G(d,p) empiricaldispersion=gd3bj scf=xqc pop=npa geom=c
 heck
 ----------------------------------------------------------------------

 -----------------------------------
 CID_28287688_JID_7954_Energie_anion
 -----------------------------------
 Structure from the checkpoint file:  "JID_7954.chk"
 Charge = -1 Multiplicity = 2

                         Standard orientation:
 ---------------------------------------------------------------------
 Center     Atomic      Atomic             Coordinates (Angstroms)
 Number     Number       Type             X           Y           Z
 ---------------------------------------------------------------------
      1          6           0       -2.924293   -2.171631    0.672971
      2          8           0       -2.198717   -1.370750   -0.247763
      3          6           0       -2.120146   -0.024446   -0.001395
      4          6           0       -2.712043    0.613794    1.090360
      5          6           0       -2.574620    1.994517    1.257665
      6          6           0       -1.837673    2.743161    0.344982
      7          6           0       -1.228559    2.104061   -0.736178
      8          6           0       -1.365924    0.732161   -0.921363
      9          8           0       -0.790718    0.185371   -2.045641
     10          6           0        0.082404   -0.943076   -1.897397
     11          6           0        1.093851   -0.756988   -0.804021
     12          7           0        2.182819   -0.057333   -0.931039
     13          6           0        2.884533   -0.016936    0.255531
     14          6           0        2.321986   -0.700644    1.308751
     15         16           0        0.843667   -1.422568    0.811671
     16          6           0        4.119993    0.696037    0.340616
     17          7           0        5.126903    1.268934    0.436722
     18          1           0       -3.976049   -1.864733    0.723790
     19          1           0       -2.482515   -2.125371    1.676459
     20          1           0       -2.861767   -3.192763    0.294007
     21          1           0       -3.288267    0.043545    1.809141
     22          1           0       -3.047945    2.475178    2.108514
     23          1           0       -1.723839    3.814802    0.474285
     24          1           0       -0.633530    2.651289   -1.459687
     25          1           0       -0.495372   -1.854597   -1.734147
     26          1           0        0.613986   -1.006257   -2.848495
     27          1           0        2.706985   -0.798249    2.313728
 ---------------------------------------------------------------------

 SCF Done:  E(UB3LYP) =  -1121.67188778     A.U. after   33 cycles
 SCF Done:  E(UB3LYP) =  -1121.67188778     a.u. after    1 cycles

 The electronic state is 2-A.
 Alpha  occ. eigenvalues --  -88.73699 -19.06555 -19.03467 -14.18404 -14.17325
 Alpha  occ. eigenvalues --  -10.14227 -10.13599 -10.13166 -10.11337 -10.08632
 Alpha  occ. eigenvalues --  -10.08576 -10.08462 -10.08379 -10.07983 -10.07702
 Alpha  occ. eigenvalues --  -10.07568 -10.05315  -7.82386  -5.78660  -5.78311
 Alpha  occ. eigenvalues --   -5.78039  -0.98282  -0.94703  -0.83351  -0.77059
 Alpha  occ. eigenvalues --   -0.76046  -0.67068  -0.66471  -0.66389  -0.64216
 Alpha  occ. eigenvalues --   -0.61158  -0.57864  -0.51746  -0.50617  -0.48277
 Alpha  occ. eigenvalues --   -0.45954  -0.43573  -0.40739  -0.39794  -0.38967
 Alpha  occ. eigenvalues --   -0.38494  -0.37197  -0.35752  -0.35030  -0.33538
 Alpha  occ. eigenvalues --   -0.32397  -0.30164  -0.29191  -0.28775  -0.28252
 Alpha  occ. eigenvalues --   -0.27039  -0.25601  -0.25131  -0.23725  -0.23505
 Alpha  occ. eigenvalues --   -0.22866  -0.21951  -0.20286  -0.18947  -0.15878
 Alpha  occ. eigenvalues --   -0.15483  -0.14753  -0.12489  -0.12077   0.03992
 Alpha virt. eigenvalues --    0.05620   0.07241   0.08116   0.08446   0.09101
 Alpha virt. eigenvalues --    0.09447   0.09767   0.09913   0.10715   0.11152
 Alpha virt. eigenvalues --    0.12070   0.12234   0.12851   0.13580   0.14015

  Beta  occ. eigenvalues --  -88.73614 -19.06549 -19.03405 -14.18444 -14.17236
  Beta  occ. eigenvalues --  -10.14229 -10.13577 -10.13163 -10.11352 -10.08554
  Beta  occ. eigenvalues --  -10.08458 -10.08378 -10.08289 -10.07979 -10.07702
  Beta  occ. eigenvalues --  -10.07548 -10.04755  -7.82309  -5.78626  -5.78278
  Beta  occ. eigenvalues --   -5.77749  -0.98263  -0.94588  -0.83112  -0.76920
  Beta  occ. eigenvalues --   -0.76035  -0.66942  -0.66332  -0.65953  -0.63913
  Beta  occ. eigenvalues --   -0.61076  -0.57753  -0.51712  -0.50552  -0.47549
  Beta  occ. eigenvalues --   -0.45718  -0.43463  -0.40683  -0.39686  -0.38714
  Beta  occ. eigenvalues --   -0.38459  -0.37132  -0.35607  -0.34922  -0.33490
  Beta  occ. eigenvalues --   -0.32319  -0.30011  -0.29111  -0.28455  -0.27639
  Beta  occ. eigenvalues --   -0.26983  -0.25441  -0.24834  -0.23663  -0.23326
  Beta  occ. eigenvalues --   -0.22717  -0.21318  -0.20161  -0.18889  -0.15451
  Beta  occ. eigenvalues --   -0.14787  -0.14463  -0.12341  -0.10158
  Beta virt. eigenvalues --    0.05978   0.07338   0.08118   0.08526   0.09126
  Beta virt. eigenvalues --    0.09458   0.09632   0.10034   0.10345   0.10736
  Beta virt. eigenvalues --    0.11856   0.12146   0.12244   0.12963   0.13717

 Mulliken charges and spin densities:
               1          2
     1  C    0.296814  -0.620600
     2  O   -0.191394   0.019432
     3  C    0.123078   0.217020
     4  C    0.266262  -0.126226
     5  C   -0.120730  -0.185189
     6  C   -0.362625  -0.031084
     7  C   -0.049448   0.025937
     8  C   -0.398848   0.063976
     9  O   -0.049950   0.013351
    10  C    0.051548  -0.403907
    11  C    0.552976   0.461793
    12  N    0.049754  -0.025412
    13  C    0.058784   0.018607
    14  C    0.591465   0.450455
    15  S   -0.620321   0.104360
    16  C   -1.592643   0.022193
    17  N   -0.324542   0.046910
    18  H   -0.078964   0.216790
    19  H    0.080564   0.074182
    20  H   -0.301996   0.470365
    21  H    0.084061   0.072875
    22  H    0.117413   0.024589
    23  H    0.141201  -0.002829
    24  H    0.186175   0.005757
    25  H    0.145899   0.058184
    26  H    0.119451   0.047587
    27  H    0.226015  -0.019117
 Sum of Mulliken charges =  -1.00000   1.00000

 Dipole moment (field-independent basis, Debye):
    X=             -8.2348    Y=              0.1438    Z=              1.2538  Tot=              8.3310
 Quadrupole moment (field-independent basis, Debye-Ang):
   XX=           -181.6888   YY=           -128.1399   ZZ=           -119.5532
   XY=            -16.0489   XZ=             -4.4062   YZ=              1.2691

 Summary of Natural Population Analysis:

                                       Natural Population
                Natural  -----------------------------------------------
    Atom  No    Charge         Core      Valence    Rydberg      Total
 -----------------------------------------------------------------------
      C    1   -0.10136      0.99960     2.09232    0.00944     3.10136
      O    2   -0.27514      0.99986     3.26411    0.01117     4.27514
      C    3    0.14110      0.99933     1.84645    0.01312     2.85890
      C    4   -0.14123      0.99953     2.13239    0.00931     3.14123
      C    5   -0.10717      0.99958     2.09841    0.00918     3.10717
      C    6   -0.11240      0.99957     2.10444    0.00839     3.11240
      C    7   -0.10766      0.99952     2.09986    0.00827     3.10766
      C    8    0.14221      0.99933     1.84257    0.01589     2.85779
      O    9   -0.27847      0.99986     3.26888    0.00972     4.27847
      C   10   -0.03439      0.99948     2.02083    0.01408     3.03439
      C   11    0.06198      0.99961     1.91978    0.01863     2.93802
      N   12   -0.23629      0.99963     2.72623    0.01044     3.73629
      C   13   -0.02794      0.99939     2.01412    0.01443     3.02794
      C   14   -0.07207      0.99952     2.06444    0.00810     3.07207
      S   15    0.21530      4.99942     2.76292    0.02237     7.78470
      C   16    0.16083      0.99963     1.82233    0.01722     2.83917
      N   17   -0.19725      0.99979     2.68643    0.01104     3.69725
      H   18    0.08218      0.00000     0.41652    0.00131     0.41782
      H   19    0.08722      0.00000     0.41156    0.00123     0.41278
      H   20    0.09608      0.00000     0.40286    0.00106     0.40392
      H   21    0.10343      0.00000     0.39551    0.00105     0.39657
      H   22    0.09736      0.00000     0.40180    0.00084     0.40264
      H   23    0.09810      0.00000     0.40104    0.00086     0.40190
      H   24    0.10862      0.00000     0.39049    0.00089     0.39138
      H   25    0.09536      0.00000     0.40313    0.00151     0.40464
      H   26    0.10008      0.00000     0.39862    0.00130     0.39992
      H   27    0.10152      0.00000     0.39767    0.00080     0.39848
 =======================================================================
   * Total *   -0.00000     20.99264    42.78569    0.22167    64.00000

 Normal termination of Gaussian 16 at Fri Dec 11 14:28:08 2020.
