 Gaussian 16, Revision A.03,

 -----------------------------------------------------------
 # opt freq B3LYP/6-31G(d) empiricaldispersion=gd3bj scf=xqc
 -----------------------------------------------------------

 -------------------------------
 CID_102100652_JID_8112_neutraal
 -------------------------------
 Symbolic Z-matrix:
 Charge =  0 Multiplicity = 1

 SCF Done:  E(RB3LYP) =  -766.029756688     A.U. after   16 cycles
 SCF Done:  E(RB3LYP) =  -766.035445849     A.U. after   12 cycles
 SCF Done:  E(RB3LYP) =  -766.036381837     A.U. after   13 cycles
 SCF Done:  E(RB3LYP) =  -766.036580718     A.U. after   13 cycles
 SCF Done:  E(RB3LYP) =  -766.036864811     A.U. after   12 cycles
 SCF Done:  E(RB3LYP) =  -766.036952696     A.U. after   10 cycles
 SCF Done:  E(RB3LYP) =  -766.036981851     A.U. after   10 cycles
 SCF Done:  E(RB3LYP) =  -766.036999421     A.U. after   10 cycles
 SCF Done:  E(RB3LYP) =  -766.037012663     A.U. after   10 cycles
 SCF Done:  E(RB3LYP) =  -766.037018350     A.U. after   10 cycles
 SCF Done:  E(RB3LYP) =  -766.037026808     A.U. after    8 cycles
 SCF Done:  E(RB3LYP) =  -766.037027238     A.U. after    8 cycles
 SCF Done:  E(RB3LYP) =  -766.037027490     A.U. after    7 cycles
 SCF Done:  E(RB3LYP) =  -766.037027544     A.U. after    7 cycles
 SCF Done:  E(RB3LYP) =  -766.037027555     A.U. after    6 cycles
 Optimization completed.
    -- Stationary point found.
 Normal termination of Gaussian 16 at Fri Dec 11 18:56:32 2020.

 --------------------------------------------------------------------
 #N Geom=AllCheck Guess=TCheck SCRF=Check GenChk RB3LYP/6-31G(d) Freq
 --------------------------------------------------------------------

 Structure from the checkpoint file:  "JID_8112.chk"
 -------------------------------
 CID_102100652_JID_8112_neutraal
 -------------------------------
 Charge =  0 Multiplicity = 1

 SCF Done:  E(RB3LYP) =  -766.037027555     A.U. after    1 cycles

  Exact polarizability: 239.456  -1.947 163.127   7.893   9.956  98.772
 Approx polarizability: 302.764   0.670 281.629  13.365  21.420 159.905

                      1                      2                      3
                      A                      A                      A
 Frequencies --     23.9791                30.6313                44.8043
 Red. masses --      3.6119                 1.0666                 3.6391
 Frc consts  --      0.0012                 0.0006                 0.0043
 IR Inten    --      0.1530                 0.2910                 0.4251

                      4                      5                      6
                      A                      A                      A
 Frequencies --     64.4143                81.5865               112.6881
 Red. masses --      4.2839                 5.2152                 3.5871
 Frc consts  --      0.0105                 0.0205                 0.0268
 IR Inten    --      0.6015                 4.0980                 0.1341

                      7                      8                      9
                      A                      A                      A
 Frequencies --    150.3777               173.0415               187.3425
 Red. masses --      1.2536                 2.6596                 3.2922
 Frc consts  --      0.0167                 0.0469                 0.0681
 IR Inten    --      0.4816                 1.0983                 1.1372

                     10                     11                     12
                      A                      A                      A
 Frequencies --    212.6440               218.1811               260.0720
 Red. masses --      3.2414                 3.1368                 3.9778
 Frc consts  --      0.0864                 0.0880                 0.1585
 IR Inten    --      5.7459                 1.8247                 2.3187

                     13                     14                     15
                      A                      A                      A
 Frequencies --    286.2446               317.1648               359.5809
 Red. masses --      3.0619                 3.1289                 4.2861
 Frc consts  --      0.1478                 0.1854                 0.3265
 IR Inten    --      0.0138                 1.7390                 3.4822

                     16                     17                     18
                      A                      A                      A
 Frequencies --    401.9568               420.3166               434.2616
 Red. masses --      3.8564                 3.0779                 3.5660
 Frc consts  --      0.3671                 0.3204                 0.3962
 IR Inten    --      0.2754                 0.5607                 4.1800

                     19                     20                     21
                      A                      A                      A
 Frequencies --    460.9967               497.7645               532.2977
 Red. masses --      6.7328                 4.6882                 3.1370
 Frc consts  --      0.8430                 0.6844                 0.5237
 IR Inten    --      0.8744                13.0276                 7.2807

                     22                     23                     24
                      A                      A                      A
 Frequencies --    582.7693               623.1118               630.2052
 Red. masses --      3.4842                 4.0770                 3.6203
 Frc consts  --      0.6972                 0.9327                 0.8472
 IR Inten    --      6.6695                 2.2192                 0.6218

                     25                     26                     27
                      A                      A                      A
 Frequencies --    642.5204               654.5183               664.3448
 Red. masses --      4.8225                 5.5119                 5.0126
 Frc consts  --      1.1730                 1.3912                 1.3035
 IR Inten    --      3.1662                 2.7686                 5.7270

                     28                     29                     30
                      A                      A                      A
 Frequencies --    715.8425               731.0646               757.4295
 Red. masses --      4.7539                 3.3840                 1.7326
 Frc consts  --      1.4353                 1.0656                 0.5856
 IR Inten    --      7.5761                 8.4993                23.2051

                     31                     32                     33
                      A                      A                      A
 Frequencies --    767.1852               822.6228               827.2673
 Red. masses --      2.0771                 3.7142                 1.4275
 Frc consts  --      0.7203                 1.4809                 0.5756
 IR Inten    --     15.2278                 0.1918                 0.2813

                     34                     35                     36
                      A                      A                      A
 Frequencies --    833.0990               843.9211               848.9858
 Red. masses --      1.6544                 1.2653                 3.4352
 Frc consts  --      0.6765                 0.5310                 1.4588
 IR Inten    --     20.7849                 2.4472                 5.5231

                     37                     38                     39
                      A                      A                      A
 Frequencies --    932.1421               957.8699               958.4855
 Red. masses --      4.0397                 1.2921                 1.3374
 Frc consts  --      2.0681                 0.6985                 0.7239
 IR Inten    --      1.8496                 0.2378                 0.1962

                     40                     41                     42
                      A                      A                      A
 Frequencies --    994.0860               999.5408              1005.5036
 Red. masses --      2.4181                 1.8902                 1.6607
 Frc consts  --      1.4079                 1.1126                 0.9893
 IR Inten    --      1.5611                 5.1616                 5.9811

                     43                     44                     45
                      A                      A                      A
 Frequencies --   1020.8561              1044.3181              1053.0652
 Red. masses --      1.4090                 2.8001                 1.2570
 Frc consts  --      0.8651                 1.7993                 0.8213
 IR Inten    --      0.6590                 2.7728                 9.2243

                     46                     47                     48
                      A                      A                      A
 Frequencies --   1075.7078              1077.9556              1088.2055
 Red. masses --      1.5226                 1.4351                 2.4735
 Frc consts  --      1.0381                 0.9825                 1.7258
 IR Inten    --     12.0116                 1.3846                 7.8114

                     49                     50                     51
                      A                      A                      A
 Frequencies --   1142.7439              1156.7500              1214.1520
 Red. masses --      2.6521                 1.7656                 1.4038
 Frc consts  --      2.0405                 1.3919                 1.2193
 IR Inten    --     26.8089                23.5117                16.3031

                     52                     53                     54
                      A                      A                      A
 Frequencies --   1221.1189              1236.7442              1245.8602
 Red. masses --      1.5120                 1.7956                 2.5145
 Frc consts  --      1.3284                 1.6182                 2.2995
 IR Inten    --     29.0436                28.5575                 5.3625

                     55                     56                     57
                      A                      A                      A
 Frequencies --   1246.8279              1262.3331              1290.1100
 Red. masses --      1.6537                 1.5785                 2.4215
 Frc consts  --      1.5147                 1.4819                 2.3745
 IR Inten    --      0.9201                33.3595                19.9159

                     58                     59                     60
                      A                      A                      A
 Frequencies --   1334.0546              1346.6424              1352.1219
 Red. masses --      1.8521                 1.8775                 1.7085
 Frc consts  --      1.9420                 2.0061                 1.8403
 IR Inten    --     24.9420                13.8763                14.3639

                     61                     62                     63
                      A                      A                      A
 Frequencies --   1353.7139              1361.9589              1441.3476
 Red. masses --      3.2148                 3.1194                 2.3286
 Frc consts  --      3.4711                 3.4092                 2.8502
 IR Inten    --      1.3613                51.4563                85.5629

                     64                     65                     66
                      A                      A                      A
 Frequencies --   1443.2424              1448.5191              1450.9978
 Red. masses --      1.3422                 1.3729                 2.9588
 Frc consts  --      1.6473                 1.6973                 3.6703
 IR Inten    --      4.7074                 5.2794                93.6218

                     67                     68                     69
                      A                      A                      A
 Frequencies --   1466.6644              1484.9542              1509.7015
 Red. masses --      2.8066                 2.2540                 1.0900
 Frc consts  --      3.5571                 2.9284                 1.4638
 IR Inten    --     75.3293                38.2349                 9.9245

                     70                     71                     72
                      A                      A                      A
 Frequencies --   1517.6314              1521.7960              1523.7130
 Red. masses --      1.0496                 1.1467                 1.1094
 Frc consts  --      1.4243                 1.5647                 1.5176
 IR Inten    --      5.4134                 0.6786                 7.8064

                     73                     74                     75
                      A                      A                      A
 Frequencies --   1528.8462              1538.7392              1566.4683
 Red. masses --      1.4134                 1.1228                 2.7170
 Frc consts  --      1.9465                 1.5664                 3.9281
 IR Inten    --      3.6661                 5.7509                98.8985

                     76                     77                     78
                      A                      A                      A
 Frequencies --   1570.0709              1633.9726              1637.6672
 Red. masses --      4.4217                 5.7615                 6.0510
 Frc consts  --      6.4221                 9.0631                 9.5616
 IR Inten    --      7.5341                 0.2646                 1.5882

                     79                     80                     81
                      A                      A                      A
 Frequencies --   1674.7117              1780.2813              2980.6055
 Red. masses --      5.8818                11.5997                 1.0754
 Frc consts  --      9.7195                21.6607                 5.6291
 IR Inten    --      3.0834               268.9273                55.2277

                     82                     83                     84
                      A                      A                      A
 Frequencies --   3017.0015              3028.9008              3043.1751
 Red. masses --      1.0726                 1.0408                 1.0398
 Frc consts  --      5.7525                 5.6259                 5.6735
 IR Inten    --     29.6273                43.7748                35.5943

                     85                     86                     87
                      A                      A                      A
 Frequencies --   3071.5370              3099.7705              3126.3661
 Red. masses --      1.1012                 1.0967                 1.1026
 Frc consts  --      6.1211                 6.2084                 6.3494
 IR Inten    --     25.1525                20.9756                16.4041

                     88                     89                     90
                      A                      A                      A
 Frequencies --   3136.6443              3141.1933              3150.4583
 Red. masses --      1.0963                 1.0879                 1.0905
 Frc consts  --      6.3548                 6.3246                 6.3773
 IR Inten    --     13.9980                 7.8834                 4.1188

                     91                     92                     93
                      A                      A                      A
 Frequencies --   3182.1160              3183.7389              3201.8330
 Red. masses --      1.0877                 1.0896                 1.0942
 Frc consts  --      6.4891                 6.5072                 6.6092
 IR Inten    --     16.3144                22.3959                11.3579

                     94                     95                     96
                      A                      A                      A
 Frequencies --   3238.0878              3248.3435              3262.9431
 Red. masses --      1.0929                 1.0916                 1.1004
 Frc consts  --      6.7516                 6.7867                 6.9028
 IR Inten    --      3.7907                 9.0843                 7.1200

 - Thermochemistry -
 -------------------
 Temperature   298.150 Kelvin.  Pressure   1.00000 Atm.
 Atom     1 has atomic number  6 and mass  12.00000

 Molecular mass:   240.12626 amu.
 Principal axes and moments of inertia in atomic units:
                           1         2         3
     Eigenvalues --  1481.635438634.562119647.25829
           X            0.99997  -0.00804   0.00177
           Y            0.00801   0.99988   0.01339
           Z           -0.00187  -0.01338   0.99991
 This molecule is an asymmetric top.
 Rotational symmetry number  1.
 Warning -- assumption of classical behavior for rotation
           may cause significant error
 Rotational temperatures (Kelvin)      0.05846     0.01003     0.00898
 Rotational constants (GHZ):           1.21807     0.20901     0.18707
 Zero-point vibrational energy     741924.8 (Joules/Mol)
                                  177.32428 (Kcal/Mol)
 Warning -- explicit consideration of  22 degrees of freedom as
           vibrations may cause significant error
 Vibrational temperatures:     34.50    44.07    64.46    92.68   117.38
          (Kelvin)            162.13   216.36   248.97   269.54   305.95
                              313.91   374.19   411.84   456.33   517.36
                              578.33   604.74   624.81   663.27   716.17
                              765.86   838.48   896.52   906.72   924.44
                              941.71   955.84  1029.94  1051.84  1089.77
                             1103.81  1183.57  1190.25  1198.64  1214.21
                             1221.50  1341.14  1378.16  1379.05  1430.27
                             1438.12  1446.70  1468.78  1502.54  1515.13
                             1547.70  1550.94  1565.69  1644.15  1664.31
                             1746.89  1756.92  1779.40  1792.51  1793.91
                             1816.22  1856.18  1919.41  1937.52  1945.40
                             1947.69  1959.56  2073.78  2076.50  2084.10
                             2087.66  2110.20  2136.52  2172.12  2183.53
                             2189.53  2192.28  2199.67  2213.90  2253.80
                             2258.98  2350.92  2356.24  2409.54  2561.43
                             4288.43  4340.79  4357.91  4378.45  4419.26
                             4459.88  4498.14  4512.93  4519.48  4532.81
                             4578.36  4580.69  4606.72  4658.89  4673.64
                             4694.65

 Zero-point correction=                           0.282584 (Hartree/Particle)
 Thermal correction to Energy=                    0.298710
 Thermal correction to Enthalpy=                  0.299654
 Thermal correction to Gibbs Free Energy=         0.237096
 Sum of electronic and zero-point Energies=           -765.754443
 Sum of electronic and thermal Energies=              -765.738318
 Sum of electronic and thermal Enthalpies=            -765.737373
 Sum of electronic and thermal Free Energies=         -765.799931

                     E (Thermal)             CV                S
                      KCal/Mol        Cal/Mol-Kelvin    Cal/Mol-Kelvin
 Total                  187.443             61.415            131.664
 Electronic               0.000              0.000              0.000
 Translational            0.889              2.981             42.329
 Rotational               0.889              2.981             33.178
 Vibrational            185.666             55.453             56.157
 Vibration     1          0.593              1.985              6.274
 Vibration     2          0.594              1.984              5.788
 Vibration     3          0.595              1.979              5.034
 Vibration     4          0.597              1.971              4.317
 Vibration     5          0.600              1.962              3.852
 Vibration     6          0.607              1.939              3.222
 Vibration     7          0.618              1.902              2.667
 Vibration     8          0.627              1.876              2.402
 Vibration     9          0.632              1.857              2.254
 Vibration    10          0.644              1.822              2.021
 Vibration    11          0.646              1.813              1.974
 Vibration    12          0.668              1.746              1.661
 Vibration    13          0.684              1.699              1.496
 Vibration    14          0.704              1.641              1.325
 Vibration    15          0.734              1.556              1.124
 Vibration    16          0.768              1.466              0.955
 Vibration    17          0.783              1.426              0.891
 Vibration    18          0.795              1.396              0.845
 Vibration    19          0.819              1.337              0.763
 Vibration    20          0.853              1.255              0.664
 Vibration    21          0.887              1.179              0.582
 Vibration    22          0.940              1.069              0.480

 Optimization completed.
    -- Stationary point found.
 Normal termination of Gaussian 16 at Fri Dec 11 19:11:19 2020.

 ----------------------------------------------------------------------
 # B3LYP/6-311++G(d,p) empiricaldispersion=gd3bj scf=xqc pop=npa geom=c
 heck
 ----------------------------------------------------------------------

 ---------------------------------------
 CID_102100652_JID_8112_Energie_neutraal
 ---------------------------------------
 Structure from the checkpoint file:  "JID_8112.chk"
 Charge =  0 Multiplicity = 1

 SCF Done:  E(RB3LYP) =  -766.237770455     A.U. after   16 cycles
 Normal termination of Gaussian 16 at Fri Dec 11 19:18:24 2020.

 ----------------------------------------------------------------------
 # B3LYP/6-311++G(d,p) empiricaldispersion=gd3bj scf=xqc pop=npa geom=c
 heck
 ----------------------------------------------------------------------

 -------------------------------------
 CID_102100652_JID_8112_Energie_kation
 -------------------------------------
 Structure from the checkpoint file:  "JID_8112.chk"
 Charge =  1 Multiplicity = 2

 SCF Done:  E(UB3LYP) =  -765.964384583     A.U. after   26 cycles
 Normal termination of Gaussian 16 at Fri Dec 11 19:35:07 2020.
 Gaussian 16:  ES64L-G16RevA.03 25-Dec-2016

 ----------------------------------------------------------------------
 # B3LYP/6-311++G(d,p) empiricaldispersion=gd3bj scf=xqc pop=npa geom=c
 heck
 ----------------------------------------------------------------------

 ------------------------------------
 CID_102100652_JID_8112_Energie_anion
 ------------------------------------
 Structure from the checkpoint file:  "JID_8112.chk"
 Charge = -1 Multiplicity = 2

                         Standard orientation:
 ---------------------------------------------------------------------
 Center     Atomic      Atomic             Coordinates (Angstroms)
 Number     Number       Type             X           Y           Z
 ---------------------------------------------------------------------
      1          6           0        5.817271   -0.446562   -0.344182
      2          6           0        4.326617   -0.286279   -0.173260
      3          6           0        3.432311   -1.213707   -0.718880
      4          6           0        2.055180   -1.045943   -0.591660
      5          6           0        1.543482    0.051222    0.104185
      6          6           0        2.422591    0.985283    0.658291
      7          6           0        3.796164    0.813318    0.513502
      8          7           0        0.126443    0.181102    0.261224
      9          6           0       -0.590602   -0.905217    0.962550
     10          6           0       -1.992361   -1.024657    0.476720
     11          6           0       -2.855435   -2.080702    0.281852
     12          6           0       -4.087185   -1.531080   -0.178863
     13          6           0       -3.944555   -0.158847   -0.262146
     14          7           0       -2.656441    0.134171    0.147203
     15          6           0       -2.008423    1.425906    0.224543
     16          6           0       -0.499194    1.365849   -0.039622
     17          8           0        0.072064    2.355849   -0.473491
     18          6           0       -4.899712    0.898639   -0.707823
     19          1           0        6.088011   -1.488843   -0.540729
     20          1           0        6.185679    0.152663   -1.187134
     21          1           0        6.360164   -0.117075    0.548298
     22          1           0        3.816778   -2.074135   -1.260708
     23          1           0        1.373574   -1.761753   -1.042220
     24          1           0        2.028044    1.845268    1.185474
     25          1           0        4.470965    1.546803    0.948023
     26          1           0       -0.053700   -1.838108    0.787373
     27          1           0       -0.543689   -0.713455    2.047459
     28          1           0       -2.628691   -3.125173    0.447881
     29          1           0       -4.983151   -2.078940   -0.438534
     30          1           0       -2.161177    1.886298    1.212656
     31          1           0       -2.424639    2.105556   -0.519967
     32          1           0       -5.854762    0.437736   -0.973544
     33          1           0       -5.097028    1.643198    0.074978
     34          1           0       -4.539808    1.442924   -1.591620
 ---------------------------------------------------------------------

 SCF Done:  E(UB3LYP) =  -766.225405522     A.U. after   33 cycles
 SCF Done:  E(UB3LYP) =  -766.225405522     a.u. after    1 cycles

 The electronic state is 2-A.
 Alpha  occ. eigenvalues --  -19.00247 -14.27148 -14.26710 -10.19127 -10.13774
 Alpha  occ. eigenvalues --  -10.13405 -10.12532 -10.10858 -10.10832 -10.09555
 Alpha  occ. eigenvalues --  -10.08846 -10.08758 -10.08655 -10.08473 -10.08353
 Alpha  occ. eigenvalues --  -10.08211 -10.06820 -10.06415  -0.95858  -0.90643
 Alpha  occ. eigenvalues --   -0.86140  -0.77087  -0.72613  -0.70056  -0.67879
 Alpha  occ. eigenvalues --   -0.66341  -0.64177  -0.62528  -0.59686  -0.56951
 Alpha  occ. eigenvalues --   -0.53023  -0.52446  -0.49132  -0.47667  -0.45759
 Alpha  occ. eigenvalues --   -0.43437  -0.41818  -0.39887  -0.38509  -0.38284
 Alpha  occ. eigenvalues --   -0.37466  -0.35628  -0.35130  -0.34607  -0.33756
 Alpha  occ. eigenvalues --   -0.33606  -0.33574  -0.32093  -0.31705  -0.31179
 Alpha  occ. eigenvalues --   -0.30325  -0.29786  -0.29313  -0.28133  -0.27396
 Alpha  occ. eigenvalues --   -0.27000  -0.26527  -0.25985  -0.18962  -0.18151
 Alpha  occ. eigenvalues --   -0.16834  -0.14991  -0.14163  -0.11775   0.03987
 Alpha virt. eigenvalues --    0.05239   0.06096   0.06608   0.06790   0.07077
 Alpha virt. eigenvalues --    0.07472   0.08300   0.08823   0.09060   0.09270
 Alpha virt. eigenvalues --    0.09482   0.10407   0.10505   0.11023   0.11277

  Beta  occ. eigenvalues --  -19.00235 -14.27146 -14.26709 -10.19112 -10.13755
  Beta  occ. eigenvalues --  -10.13378 -10.12515 -10.10858 -10.10831 -10.09530
  Beta  occ. eigenvalues --  -10.08808 -10.08756 -10.08651 -10.08446 -10.08310
  Beta  occ. eigenvalues --  -10.08183 -10.06815 -10.06408  -0.95833  -0.90633
  Beta  occ. eigenvalues --   -0.86117  -0.77043  -0.72590  -0.70021  -0.67835
  Beta  occ. eigenvalues --   -0.66290  -0.64137  -0.62486  -0.59637  -0.56906
  Beta  occ. eigenvalues --   -0.52987  -0.52378  -0.49101  -0.47637  -0.45725
  Beta  occ. eigenvalues --   -0.43409  -0.41771  -0.39838  -0.38461  -0.38249
  Beta  occ. eigenvalues --   -0.37423  -0.35599  -0.35103  -0.34574  -0.33724
  Beta  occ. eigenvalues --   -0.33554  -0.33517  -0.32069  -0.31668  -0.31142
  Beta  occ. eigenvalues --   -0.30293  -0.29755  -0.29273  -0.28094  -0.27331
  Beta  occ. eigenvalues --   -0.26954  -0.26473  -0.25955  -0.18888  -0.18120
  Beta  occ. eigenvalues --   -0.16735  -0.14957  -0.14081  -0.11757
  Beta virt. eigenvalues --    0.05847   0.06197   0.06410   0.06986   0.07061
  Beta virt. eigenvalues --    0.07454   0.07838   0.08632   0.09124   0.09360
  Beta virt. eigenvalues --    0.09589   0.09911   0.10636   0.10682   0.11156

 Mulliken charges and spin densities:
               1          2
     1  C    1.865688  -2.466468
     2  C   -0.274403   0.724731
     3  C   -0.026866  -0.367588
     4  C    0.011868  -0.022328
     5  C   -0.835012   0.062313
     6  C   -0.339137   0.419041
     7  C   -0.520015   0.273395
     8  N    0.520604  -0.043833
     9  C   -0.735914  -0.279720
    10  C    1.248153  -0.772511
    11  C   -0.841290   0.577897
    12  C   -0.428644   0.364743
    13  C   -1.445930   1.617138
    14  N    0.161892   0.208901
    15  C    0.497790  -0.928160
    16  C   -0.196431   0.306079
    17  O   -0.297540   0.009365
    18  C    2.775341  -3.561210
    19  H   -0.286826   0.431650
    20  H   -0.032107   0.199862
    21  H   -0.080763   0.215387
    22  H   -0.377699   0.545789
    23  H   -0.108495   0.264270
    24  H   -0.020147   0.206639
    25  H   -0.065170   0.230968
    26  H    0.285451  -0.112198
    27  H   -0.203339   0.399948
    28  H   -0.108200   0.247204
    29  H   -0.198590   0.347917
    30  H   -0.373839   0.622495
    31  H    0.183322   0.041523
    32  H   -0.335904   0.488476
    33  H   -0.312502   0.483833
    34  H   -0.105345   0.264452
 Sum of Mulliken charges =  -1.00000   1.00000

 Dipole moment (field-independent basis, Debye):
    X=              1.0885    Y=             -2.0265    Z=              1.0027  Tot=              2.5094
 Quadrupole moment (field-independent basis, Debye-Ang):
   XX=           -225.3913   YY=           -147.8601   ZZ=           -139.6622
   XY=             12.4724   XZ=              6.9557   YZ=             -1.0598

 Summary of Natural Population Analysis:

                                       Natural Population
                Natural  -----------------------------------------------
    Atom  No    Charge         Core      Valence    Rydberg      Total
 -----------------------------------------------------------------------
      C    1   -0.29127      0.99964     2.28656    0.00508     3.29127
      C    2   -0.01424      0.99952     2.00413    0.01060     3.01424
      C    3   -0.10123      0.99952     2.09167    0.01005     3.10123
      C    4   -0.09615      0.99951     2.08823    0.00841     3.09615
      C    5    0.07751      0.99945     1.91131    0.01173     2.92249
      C    6   -0.09083      0.99951     2.08249    0.00883     3.09083
      C    7   -0.09541      0.99952     2.08708    0.00881     3.09541
      N    8   -0.25270      0.99961     2.74156    0.01153     3.75270
      C    9   -0.09018      0.99957     2.08128    0.00934     3.09018
      C   10    0.06519      0.99953     1.92365    0.01163     2.93481
      C   11   -0.14087      0.99951     2.13277    0.00859     3.14087
      C   12   -0.14202      0.99951     2.13376    0.00875     3.14202
      C   13    0.07801      0.99953     1.90924    0.01322     2.92199
      N   14   -0.20461      0.99959     2.69437    0.01065     3.70461
      C   15   -0.12062      0.99958     2.11013    0.01091     3.12062
      C   16    0.34849      0.99965     1.62971    0.02215     2.65151
      O   17   -0.31369      0.99988     3.30822    0.00559     4.31369
      C   18   -0.30253      0.99964     2.29756    0.00533     3.30253
      H   19    0.10315      0.00000     0.39558    0.00127     0.39685
      H   20    0.10573      0.00000     0.39266    0.00161     0.39427
      H   21    0.10152      0.00000     0.39737    0.00111     0.39848
      H   22    0.10091      0.00000     0.39800    0.00109     0.39909
      H   23    0.10401      0.00000     0.39489    0.00110     0.39599
      H   24    0.11021      0.00000     0.38873    0.00106     0.38979
      H   25    0.09891      0.00000     0.40019    0.00089     0.40109
      H   26    0.11024      0.00000     0.38840    0.00136     0.38976
      H   27    0.09890      0.00000     0.39971    0.00138     0.40110
      H   28    0.10318      0.00000     0.39604    0.00078     0.39682
      H   29    0.10296      0.00000     0.39632    0.00072     0.39704
      H   30    0.11032      0.00000     0.38713    0.00255     0.38968
      H   31    0.11627      0.00000     0.38250    0.00123     0.38373
      H   32    0.11001      0.00000     0.38894    0.00105     0.38999
      H   33    0.10703      0.00000     0.39113    0.00184     0.39297
      H   34    0.10381      0.00000     0.39492    0.00127     0.39619
 =======================================================================
   * Total *   -0.00000     17.99224    45.80625    0.20151    64.00000

 Normal termination of Gaussian 16 at Fri Dec 11 19:56:49 2020.
