 Gaussian 16, Revision A.03,

 -----------------------------------------------------------
 # opt freq B3LYP/6-31G(d) empiricaldispersion=gd3bj scf=xqc
 -----------------------------------------------------------

 -------------------------------
 CID_115287051_JID_7903_neutraal
 -------------------------------
 Symbolic Z-matrix:
 Charge =  0 Multiplicity = 1

 SCF Done:  E(RB3LYP) =  -1126.28790678     A.U. after   15 cycles
 SCF Done:  E(RB3LYP) =  -1126.28436243     A.U. after   14 cycles
 SCF Done:  E(RB3LYP) =  -1126.29250917     A.U. after   12 cycles
 SCF Done:  E(RB3LYP) =  -1126.28968980     A.U. after   14 cycles
 SCF Done:  E(RB3LYP) =  -1126.29500801     A.U. after   13 cycles
 SCF Done:  E(RB3LYP) =  -1126.29359961     A.U. after   12 cycles
 SCF Done:  E(RB3LYP) =  -1126.29627402     A.U. after   13 cycles
 SCF Done:  E(RB3LYP) =  -1126.29645637     A.U. after   12 cycles
 SCF Done:  E(RB3LYP) =  -1126.29650273     A.U. after   12 cycles
 SCF Done:  E(RB3LYP) =  -1126.29663978     A.U. after   11 cycles
 SCF Done:  E(RB3LYP) =  -1126.29732921     A.U. after    9 cycles
 SCF Done:  E(RB3LYP) =  -1126.29732936     A.U. after    9 cycles
 SCF Done:  E(RB3LYP) =  -1126.29732949     A.U. after    8 cycles
 SCF Done:  E(RB3LYP) =  -1126.29732952     A.U. after    7 cycles
 Optimization completed.
    -- Stationary point found.
 Normal termination of Gaussian 16 at Sun Dec 13 20:23:22 2020.

 --------------------------------------------------------------------
 #N Geom=AllCheck Guess=TCheck SCRF=Check GenChk RB3LYP/6-31G(d) Freq
 --------------------------------------------------------------------

 Structure from the checkpoint file:  "JID_7903.chk"
 -------------------------------
 CID_115287051_JID_7903_neutraal
 -------------------------------
 Charge =  0 Multiplicity = 1

 SCF Done:  E(RB3LYP) =  -1126.29732952     A.U. after    1 cycles

  Exact polarizability: 153.362  -6.113 167.946   9.300  -1.334 134.587
 Approx polarizability: 218.616 -20.589 261.380  25.268   1.053 218.006

                      1                      2                      3
                      A                      A                      A
 Frequencies --     27.9566                45.8308                52.3708
 Red. masses --      4.4301                 3.9824                 3.9580
 Frc consts  --      0.0020                 0.0049                 0.0064
 IR Inten    --      0.1356                 1.0108                 0.8437

                      4                      5                      6
                      A                      A                      A
 Frequencies --     64.6423                73.6420                81.0416
 Red. masses --      4.4260                 3.9840                 7.0997
 Frc consts  --      0.0109                 0.0127                 0.0275
 IR Inten    --      0.4897                 0.8468                 1.0137

                      7                      8                      9
                      A                      A                      A
 Frequencies --     97.5906               132.8557               152.7908
 Red. masses --      1.0891                 4.6803                 3.7159
 Frc consts  --      0.0061                 0.0487                 0.0511
 IR Inten    --      0.0752                 4.0429                 1.0321

                     10                     11                     12
                      A                      A                      A
 Frequencies --    205.9202               224.0107               250.3980
 Red. masses --      4.1927                 3.8836                 2.5549
 Frc consts  --      0.1047                 0.1148                 0.0944
 IR Inten    --      2.4561                 1.4955                 2.0319

                     13                     14                     15
                      A                      A                      A
 Frequencies --    268.8015               274.2608               302.3859
 Red. masses --      3.0933                 4.6243                 3.1604
 Frc consts  --      0.1317                 0.2049                 0.1703
 IR Inten    --      2.2439                 0.9714                 0.7102

                     16                     17                     18
                      A                      A                      A
 Frequencies --    362.7799               386.2714               411.0423
 Red. masses --      3.6916                 2.4990                 2.4519
 Frc consts  --      0.2863                 0.2197                 0.2441
 IR Inten    --      8.0734                11.8963                25.4424

                     19                     20                     21
                      A                      A                      A
 Frequencies --    419.2429               446.5796               467.9199
 Red. masses --      1.8696                 3.3162                 2.3947
 Frc consts  --      0.1936                 0.3897                 0.3089
 IR Inten    --     25.4723                12.4863                12.5046

                     22                     23                     24
                      A                      A                      A
 Frequencies --    487.9443               576.4831               594.6384
 Red. masses --      5.2028                 3.2577                 1.8845
 Frc consts  --      0.7298                 0.6379                 0.3926
 IR Inten    --     11.1912                 1.9133                 0.9652

                     25                     26                     27
                      A                      A                      A
 Frequencies --    609.7526               678.3361               692.6286
 Red. masses --      7.6647                 3.9480                 2.5302
 Frc consts  --      1.6790                 1.0703                 0.7152
 IR Inten    --      4.0695                15.7199                 5.1715

                     28                     29                     30
                      A                      A                      A
 Frequencies --    708.4236               729.5436               743.1378
 Red. masses --      1.4219                 4.6533                 5.5549
 Frc consts  --      0.4204                 1.4592                 1.8074
 IR Inten    --     75.6459                 6.8338                 6.2675

                     31                     32                     33
                      A                      A                      A
 Frequencies --    765.2787               798.3950               829.2669
 Red. masses --      5.3232                 2.3136                 3.3451
 Frc consts  --      1.8368                 0.8689                 1.3553
 IR Inten    --     10.1955                44.1517                14.0672

                     34                     35                     36
                      A                      A                      A
 Frequencies --    843.3145               859.8705               888.7073
 Red. masses --      1.3998                 3.8987                 1.6802
 Frc consts  --      0.5866                 1.6984                 0.7819
 IR Inten    --      5.7715                38.2701                11.0250

                     37                     38                     39
                      A                      A                      A
 Frequencies --    898.8267               904.7223               910.0937
 Red. masses --      1.8247                 1.4740                 1.8523
 Frc consts  --      0.8686                 0.7109                 0.9039
 IR Inten    --      5.6415                48.3434                97.1760

                     40                     41                     42
                      A                      A                      A
 Frequencies --    937.2287               948.2614               981.5119
 Red. masses --      2.0327                 2.1662                 2.6686
 Frc consts  --      1.0520                 1.1477                 1.5147
 IR Inten    --     13.3023                 4.9794                21.2053

                     43                     44                     45
                      A                      A                      A
 Frequencies --   1002.7321              1032.5683              1051.8457
 Red. masses --      2.4598                 1.8190                 1.9924
 Frc consts  --      1.4572                 1.1427                 1.2987
 IR Inten    --     12.0191                 4.6122                 8.1532

                     46                     47                     48
                      A                      A                      A
 Frequencies --   1090.9005              1096.2224              1102.6579
 Red. masses --      2.2983                 2.0627                 2.0512
 Frc consts  --      1.6115                 1.4604                 1.4694
 IR Inten    --     18.1383                44.9551                39.1490

                     49                     50                     51
                      A                      A                      A
 Frequencies --   1117.5565              1133.5867              1138.6811
 Red. masses --      2.2366                 2.0390                 1.8117
 Frc consts  --      1.6458                 1.5438                 1.3840
 IR Inten    --     70.0724                 4.7394                16.4447

                     52                     53                     54
                      A                      A                      A
 Frequencies --   1158.3653              1178.5400              1219.9266
 Red. masses --      1.3975                 2.6944                 1.4413
 Frc consts  --      1.1048                 2.2050                 1.2638
 IR Inten    --      4.5105                12.2745                12.3154

                     55                     56                     57
                      A                      A                      A
 Frequencies --   1222.1300              1239.5604              1258.0639
 Red. masses --      1.4573                 1.6012                 1.4752
 Frc consts  --      1.2825                 1.4495                 1.3756
 IR Inten    --      1.6439                19.1785                18.1363

                     58                     59                     60
                      A                      A                      A
 Frequencies --   1275.0240              1282.8858              1307.0452
 Red. masses --      1.2773                 2.6870                 1.4331
 Frc consts  --      1.2234                 2.6055                 1.4425
 IR Inten    --      6.6534                34.2827                44.3251

                     61                     62                     63
                      A                      A                      A
 Frequencies --   1315.9346              1336.1199              1353.2119
 Red. masses --      1.4067                 1.3455                 1.3454
 Frc consts  --      1.4352                 1.4152                 1.4516
 IR Inten    --      8.7025                12.0893                 4.8539

                     64                     65                     66
                      A                      A                      A
 Frequencies --   1369.4493              1380.0111              1386.2375
 Red. masses --      1.2953                 1.2470                 2.0148
 Frc consts  --      1.4313                 1.3993                 2.2812
 IR Inten    --      4.9448                20.0440                 0.8557

                     67                     68                     69
                      A                      A                      A
 Frequencies --   1413.5160              1425.6608              1434.8339
 Red. masses --      1.3836                 1.3602                 1.4018
 Frc consts  --      1.6287                 1.6288                 1.7004
 IR Inten    --      4.0127                 4.4191                17.3025

                     70                     71                     72
                      A                      A                      A
 Frequencies --   1451.1222              1476.5273              1503.5834
 Red. masses --      1.7018                 1.2976                 6.1282
 Frc consts  --      2.1114                 1.6667                 8.1628
 IR Inten    --     71.7042                29.7360                 7.8521

                     73                     74                     75
                      A                      A                      A
 Frequencies --   1511.2539              1515.4099              1517.9423
 Red. masses --      1.0910                 1.0901                 1.1026
 Frc consts  --      1.4681                 1.4750                 1.4969
 IR Inten    --     10.4462                 1.5615                 4.5975

                     76                     77                     78
                      A                      A                      A
 Frequencies --   1528.5236              1541.1974              1553.6567
 Red. masses --      1.0995                 1.1275                 1.1005
 Frc consts  --      1.5136                 1.5780                 1.5651
 IR Inten    --      3.0457                19.9525                 1.2267

                     79                     80                     81
                      A                      A                      A
 Frequencies --   1594.4814              1721.0819              1758.9432
 Red. masses --      5.2278                 1.0835                 9.7340
 Frc consts  --      7.8308                 1.8910                17.7438
 IR Inten    --      2.5670                10.7005               300.4460

                     82                     83                     84
                      A                      A                      A
 Frequencies --   3004.0145              3016.5395              3034.9673
 Red. masses --      1.0714                 1.0736                 1.0497
 Frc consts  --      5.6963                 5.7561                 5.6969
 IR Inten    --     47.3204                23.3380                50.2153

                     85                     86                     87
                      A                      A                      A
 Frequencies --   3054.2914              3065.8783              3073.7344
 Red. masses --      1.0703                 1.0847                 1.0619
 Frc consts  --      5.8826                 6.0074                 5.9110
 IR Inten    --     18.7610                34.9687                25.0230

                     88                     89                     90
                      A                      A                      A
 Frequencies --   3078.1401              3112.4510              3117.0034
 Red. masses --      1.0845                 1.0909                 1.0935
 Frc consts  --      6.0542                 6.2266                 6.2596
 IR Inten    --      9.2998                30.9017                39.3698

                     91                     92                     93
                      A                      A                      A
 Frequencies --   3121.2562              3130.5909              3173.5251
 Red. masses --      1.0975                 1.1056                 1.0889
 Frc consts  --      6.2996                 6.3839                 6.4612
 IR Inten    --     20.4754                40.8273                 6.7929

                     94                     95                     96
                      A                      A                      A
 Frequencies --   3190.4883              3215.1082              3229.2972
 Red. masses --      1.0987                 1.0878                 1.0946
 Frc consts  --      6.5893                 6.6254                 6.7252
 IR Inten    --      3.7986                 8.6151                 8.2819

                     97                     98                     99
                      A                      A                      A
 Frequencies --   3269.1707              3456.6441              3562.7690
 Red. masses --      1.0972                 1.0502                 1.0939
 Frc consts  --      6.9087                 7.3935                 8.1808
 IR Inten    --      1.6789               119.7794                49.4331

 - Thermochemistry -
 -------------------
 Temperature   298.150 Kelvin.  Pressure   1.00000 Atm.
 Atom     1 has atomic number  6 and mass  12.00000

 Molecular mass:   254.10890 amu.
 Principal axes and moments of inertia in atomic units:
                           1         2         3
     Eigenvalues --  3480.030664897.266646492.66909
           X            0.99986  -0.01097  -0.01254
           Y            0.01067   0.99967  -0.02358
           Z            0.01280   0.02344   0.99964
 This molecule is an asymmetric top.
 Rotational symmetry number  1.
 Warning -- assumption of classical behavior for rotation
           may cause significant error
 Rotational temperatures (Kelvin)      0.02489     0.01769     0.01334
 Rotational constants (GHZ):           0.51860     0.36852     0.27797
 Zero-point vibrational energy     777797.3 (Joules/Mol)
                                  185.89803 (Kcal/Mol)
 Warning -- explicit consideration of  25 degrees of freedom as
           vibrations may cause significant error
 Vibrational temperatures:     40.22    65.94    75.35    93.01   105.95
          (Kelvin)            116.60   140.41   191.15   219.83   296.27
                              322.30   360.27   386.75   394.60   435.07
                              521.96   555.76   591.40   603.20   642.53
                              673.23   702.04   829.43   855.55   877.30
                              975.97   996.54  1019.26  1049.65  1069.21
                             1101.07  1148.71  1193.13  1213.34  1237.16
                             1278.65  1293.21  1301.69  1309.42  1348.46
                             1364.34  1412.18  1442.71  1485.64  1513.37
                             1569.56  1577.22  1586.48  1607.91  1630.98
                             1638.31  1666.63  1695.66  1755.20  1758.37
                             1783.45  1810.07  1834.48  1845.79  1880.55
                             1893.34  1922.38  1946.97  1970.33  1985.53
                             1994.49  2033.73  2051.21  2064.41  2087.84
                             2124.39  2163.32  2174.36  2180.34  2183.98
                             2199.20  2217.44  2235.37  2294.10  2476.25
                             2530.73  4322.11  4340.13  4366.64  4394.44
                             4411.12  4422.42  4428.76  4478.12  4484.67
                             4490.79  4504.22  4565.99  4590.40  4625.82
                             4646.24  4703.61  4973.34  5126.03

 Zero-point correction=                           0.296247 (Hartree/Particle)
 Thermal correction to Energy=                    0.313197
 Thermal correction to Enthalpy=                  0.314142
 Thermal correction to Gibbs Free Energy=         0.250015
 Sum of electronic and zero-point Energies=          -1126.001082
 Sum of electronic and thermal Energies=             -1125.984132
 Sum of electronic and thermal Enthalpies=           -1125.983188
 Sum of electronic and thermal Free Energies=        -1126.047315

                     E (Thermal)             CV                S
                      KCal/Mol        Cal/Mol-Kelvin    Cal/Mol-Kelvin
 Total                  196.534             63.662            134.966
 Electronic               0.000              0.000              0.000
 Translational            0.889              2.981             42.498
 Rotational               0.889              2.981             33.070
 Vibrational            194.757             57.700             59.398
 Vibration     1          0.593              1.984              5.969
 Vibration     2          0.595              1.979              4.990
 Vibration     3          0.596              1.977              4.726
 Vibration     4          0.597              1.971              4.310
 Vibration     5          0.599              1.966              4.054
 Vibration     6          0.600              1.962              3.865
 Vibration     7          0.603              1.951              3.502
 Vibration     8          0.613              1.921              2.904
 Vibration     9          0.619              1.900              2.637
 Vibration    10          0.640              1.831              2.080
 Vibration    11          0.649              1.804              1.926
 Vibration    12          0.663              1.762              1.728
 Vibration    13          0.673              1.731              1.604
 Vibration    14          0.677              1.721              1.569
 Vibration    15          0.694              1.669              1.404
 Vibration    16          0.737              1.549              1.110
 Vibration    17          0.755              1.499              1.015
 Vibration    18          0.775              1.446              0.923
 Vibration    19          0.782              1.428              0.895
 Vibration    20          0.806              1.368              0.806
 Vibration    21          0.825              1.321              0.743
 Vibration    22          0.844              1.277              0.689
 Vibration    23          0.933              1.082              0.492
 Vibration    24          0.952              1.043              0.459
 Vibration    25          0.969              1.011              0.433

 Optimization completed.
    -- Stationary point found.
 Normal termination of Gaussian 16 at Sun Dec 13 20:38:28 2020.

 ----------------------------------------------------------------------
 # B3LYP/6-311++G(d,p) empiricaldispersion=gd3bj scf=xqc pop=npa geom=c
 heck
 ----------------------------------------------------------------------

 ---------------------------------------
 CID_115287051_JID_7903_Energie_neutraal
 ---------------------------------------
 Structure from the checkpoint file:  "JID_7903.chk"
 Charge =  0 Multiplicity = 1

 SCF Done:  E(RB3LYP) =  -1126.53509915     A.U. after   17 cycles
 Normal termination of Gaussian 16 at Sun Dec 13 20:46:54 2020.

 ----------------------------------------------------------------------
 # B3LYP/6-311++G(d,p) empiricaldispersion=gd3bj scf=xqc pop=npa geom=c
 heck
 ----------------------------------------------------------------------

 -------------------------------------
 CID_115287051_JID_7903_Energie_kation
 -------------------------------------
 Structure from the checkpoint file:  "JID_7903.chk"
 Charge =  1 Multiplicity = 2

 SCF Done:  E(UB3LYP) =  -1126.23860798     A.U. after   33 cycles
 SCF Done:  E(UB3LYP) =  -1126.23860798     a.u. after    1 cycles
 Normal termination of Gaussian 16 at Sun Dec 13 21:10:08 2020.
 Gaussian 16:  ES64L-G16RevA.03 25-Dec-2016

 ----------------------------------------------------------------------
 # B3LYP/6-311++G(d,p) empiricaldispersion=gd3bj scf=xqc pop=npa geom=c
 heck
 ----------------------------------------------------------------------

 ------------------------------------
 CID_115287051_JID_7903_Energie_anion
 ------------------------------------
 Structure from the checkpoint file:  "JID_7903.chk"
 Charge = -1 Multiplicity = 2

                         Standard orientation:
 ---------------------------------------------------------------------
 Center     Atomic      Atomic             Coordinates (Angstroms)
 Number     Number       Type             X           Y           Z
 ---------------------------------------------------------------------
      1          6           0        0.586086    3.069534   -1.125041
      2          7           0        0.228686    1.845619   -0.414606
      3          6           0        0.847173    0.630684   -0.933017
      4          6           0        2.283461    0.380291   -0.467481
      5          6           0        2.961267   -0.734578   -1.295211
      6          6           0        3.667376   -1.592849   -0.236536
      7          6           0        2.717428   -1.436046    0.947816
      8          8           0        2.311455   -0.065378    0.905029
      9          6           0       -0.900626    1.911384    0.372461
     10          8           0       -1.565459    2.938375    0.439460
     11          6           0       -1.287104    0.711527    1.271767
     12          6           0       -1.660033   -0.554344    0.518606
     13          6           0       -1.246274   -1.838753    0.758111
     14          6           0       -1.813614   -2.798013   -0.139054
     15          6           0       -2.656927   -2.231964   -1.052166
     16         16           0       -2.779984   -0.511643   -0.825129
     17          7           0       -0.270306    0.555383    2.302725
     18          1           0        1.658911    3.062438   -1.337532
     19          1           0        0.340649    3.930438   -0.505346
     20          1           0        0.037818    3.156901   -2.073561
     21          1           0        0.248271   -0.238333   -0.666301
     22          1           0        0.842610    0.692923   -2.031595
     23          1           0        2.860666    1.311295   -0.498542
     24          1           0        2.199850   -1.329342   -1.815551
     25          1           0        3.639192   -0.330758   -2.051888
     26          1           0        3.803472   -2.633586   -0.544708
     27          1           0        4.647910   -1.173459    0.013559
     28          1           0        1.845121   -2.100242    0.840877
     29          1           0        3.176445   -1.613931    1.924137
     30          1           0       -2.193715    1.082284    1.760231
     31          1           0       -0.547495   -2.086851    1.548760
     32          1           0       -1.600692   -3.860841   -0.100002
     33          1           0       -3.220051   -2.716393   -1.838321
     34          1           0       -0.556898   -0.149765    2.977409
     35          1           0        0.631765    0.291281    1.906184
 ---------------------------------------------------------------------

 SCF Done:  E(UB3LYP) =  -1126.52717218     A.U. after   33 cycles
 SCF Done:  E(UB3LYP) =  -1126.52717218     a.u. after    1 cycles

 The electronic state is 2-A.
 Alpha  occ. eigenvalues --  -88.78160 -19.03418 -18.99698 -14.25287 -14.20046
 Alpha  occ. eigenvalues --  -10.18032 -10.13195 -10.12855 -10.12099 -10.11417
 Alpha  occ. eigenvalues --  -10.11005 -10.10751 -10.10305 -10.08422 -10.08263
 Alpha  occ. eigenvalues --  -10.07767 -10.07508  -7.86779  -5.83067  -5.82698
 Alpha  occ. eigenvalues --   -5.82384  -0.95193  -0.94833  -0.84530  -0.80805
 Alpha  occ. eigenvalues --   -0.77954  -0.69705  -0.67630  -0.65771  -0.64118
 Alpha  occ. eigenvalues --   -0.62305  -0.59941  -0.57245  -0.50874  -0.49147
 Alpha  occ. eigenvalues --   -0.47448  -0.46468  -0.45185  -0.42828  -0.41933
 Alpha  occ. eigenvalues --   -0.41190  -0.39965  -0.38525  -0.37932  -0.36639
 Alpha  occ. eigenvalues --   -0.34256  -0.33760  -0.32752  -0.32654  -0.32270
 Alpha  occ. eigenvalues --   -0.31082  -0.30637  -0.30254  -0.29127  -0.28680
 Alpha  occ. eigenvalues --   -0.27850  -0.26900  -0.26346  -0.25994  -0.25175
 Alpha  occ. eigenvalues --   -0.24274  -0.23248  -0.18087  -0.17838  -0.16471
 Alpha  occ. eigenvalues --   -0.15029  -0.14950  -0.14072   0.03978
 Alpha virt. eigenvalues --    0.06050   0.06173   0.06748   0.07705   0.07999
 Alpha virt. eigenvalues --    0.08650   0.08742   0.09446   0.09676   0.10618
 Alpha virt. eigenvalues --    0.10867   0.11136   0.11533   0.11935   0.12288

  Beta  occ. eigenvalues --  -88.78152 -19.03416 -18.99698 -14.25285 -14.20044
  Beta  occ. eigenvalues --  -10.18028 -10.13186 -10.12859 -10.12070 -10.11411
  Beta  occ. eigenvalues --  -10.10938 -10.10738 -10.10221 -10.08411 -10.08256
  Beta  occ. eigenvalues --  -10.07735 -10.07474  -7.86772  -5.83064  -5.82696
  Beta  occ. eigenvalues --   -5.82355  -0.95186  -0.94825  -0.84523  -0.80771
  Beta  occ. eigenvalues --   -0.77899  -0.69662  -0.67593  -0.65698  -0.64050
  Beta  occ. eigenvalues --   -0.62259  -0.59902  -0.57208  -0.50786  -0.49094
  Beta  occ. eigenvalues --   -0.47336  -0.46428  -0.45126  -0.42782  -0.41884
  Beta  occ. eigenvalues --   -0.41160  -0.39911  -0.38505  -0.37913  -0.36615
  Beta  occ. eigenvalues --   -0.34222  -0.33728  -0.32714  -0.32614  -0.32235
  Beta  occ. eigenvalues --   -0.30997  -0.30598  -0.30208  -0.29084  -0.28650
  Beta  occ. eigenvalues --   -0.27826  -0.26802  -0.26277  -0.25940  -0.25109
  Beta  occ. eigenvalues --   -0.24226  -0.23221  -0.18061  -0.17815  -0.16330
  Beta  occ. eigenvalues --   -0.15012  -0.14922  -0.13762
  Beta virt. eigenvalues --    0.06342   0.06574   0.06945   0.07265   0.08092
  Beta virt. eigenvalues --    0.08541   0.09067   0.09214   0.09570   0.10086
  Beta virt. eigenvalues --    0.10796   0.11095   0.11398   0.11786   0.12227

 Mulliken charges and spin densities:
               1          2
     1  C    0.137281  -0.366697
     2  N    0.220832   0.060953
     3  C   -0.939772  -0.386153
     4  C   -0.279837   0.841970
     5  C    0.144212  -0.654740
     6  C    0.972801  -1.440425
     7  C    0.097913  -0.237197
     8  O   -0.119194   0.003089
     9  C   -0.070900   0.101549
    10  O   -0.298186  -0.000245
    11  C    0.107394  -0.516479
    12  C    0.115884   0.101482
    13  C   -0.448691   0.183644
    14  C    0.155137  -0.527376
    15  C   -0.118678  -0.276851
    16  S    0.052730   0.198325
    17  N   -0.379670   0.041400
    18  H   -0.084935   0.212642
    19  H    0.179782   0.007459
    20  H    0.049241   0.114845
    21  H    1.040080  -0.767980
    22  H   -0.085993   0.257884
    23  H   -0.037461   0.256478
    24  H   -0.177946   0.336135
    25  H   -0.567464   0.742006
    26  H   -0.698604   0.877355
    27  H    0.034461   0.126457
    28  H    0.128180  -0.027285
    29  H   -0.265884   0.436000
    30  H    0.263244  -0.005492
    31  H    0.053715   0.112405
    32  H   -0.596188   0.761872
    33  H   -0.144953   0.377941
    34  H    0.229917   0.015784
    35  H    0.331549   0.039244
 Sum of Mulliken charges =  -1.00000   1.00000

 Dipole moment (field-independent basis, Debye):
    X=             -4.2814    Y=              2.7360    Z=              1.6685  Tot=              5.3479
 Quadrupole moment (field-independent basis, Debye-Ang):
   XX=           -178.4253   YY=           -173.9477   ZZ=           -143.7698
   XY=             12.0802   XZ=              6.7371   YZ=             -9.4859

 Summary of Natural Population Analysis:

                                       Natural Population
                Natural  -----------------------------------------------
    Atom  No    Charge         Core      Valence    Rydberg      Total
 -----------------------------------------------------------------------
      C    1   -0.17869      0.99964     2.17081    0.00824     3.17869
      N    2   -0.25502      0.99963     2.74548    0.00991     3.75502
      C    3   -0.10000      0.99955     2.08853    0.01192     3.10000
      C    4    0.06258      0.99954     1.92302    0.01486     2.93742
      C    5   -0.20235      0.99962     2.19434    0.00839     3.20235
      C    6   -0.20101      0.99964     2.19348    0.00789     3.20101
      C    7   -0.01027      0.99959     1.99829    0.01239     3.01027
      O    8   -0.31357      0.99989     3.30448    0.00921     4.31357
      C    9    0.35601      0.99962     1.62041    0.02396     2.64399
      O   10   -0.32261      0.99988     3.31734    0.00539     4.32261
      C   11   -0.06223      0.99949     2.04819    0.01455     3.06223
      C   12   -0.10243      0.99947     2.08886    0.01411     3.10243
      C   13   -0.13829      0.99944     2.12707    0.01178     3.13829
      C   14   -0.12601      0.99953     2.11483    0.01166     3.12601
      C   15   -0.18225      0.99954     2.17111    0.01160     3.18225
      S   16    0.20479      4.99939     2.77612    0.01969     7.79521
      N   17   -0.42216      0.99976     2.91270    0.00970     3.92216
      H   18    0.09521      0.00000     0.40379    0.00100     0.40479
      H   19    0.11042      0.00000     0.38870    0.00088     0.38958
      H   20    0.09253      0.00000     0.40651    0.00096     0.40747
      H   21    0.11604      0.00000     0.38090    0.00306     0.38396
      H   22    0.09741      0.00000     0.40104    0.00154     0.40259
      H   23    0.08987      0.00000     0.40851    0.00162     0.41013
      H   24    0.10042      0.00000     0.39773    0.00185     0.39958
      H   25    0.10937      0.00000     0.38834    0.00228     0.39063
      H   26    0.10781      0.00000     0.38968    0.00250     0.39219
      H   27    0.09829      0.00000     0.40025    0.00146     0.40171
      H   28    0.08086      0.00000     0.41690    0.00224     0.41914
      H   29    0.09081      0.00000     0.40783    0.00136     0.40919
      H   30    0.11112      0.00000     0.38747    0.00141     0.38888
      H   31    0.10879      0.00000     0.38978    0.00142     0.39121
      H   32    0.10947      0.00000     0.38929    0.00124     0.39053
      H   33    0.10863      0.00000     0.39046    0.00092     0.39137
      H   34    0.17269      0.00000     0.32582    0.00148     0.32731
      H   35    0.19377      0.00000     0.30326    0.00297     0.30623
 =======================================================================
   * Total *    0.00000     20.99323    46.77132    0.23545    68.00000

 Normal termination of Gaussian 16 at Sun Dec 13 21:32:49 2020.
