 Gaussian 16, Revision A.03,

 -----------------------------------------------------------
 # opt freq B3LYP/6-31G(d) empiricaldispersion=gd3bj scf=xqc
 -----------------------------------------------------------

 ------------------------------
 CID_79006483_JID_6905_neutraal
 ------------------------------
 Symbolic Z-matrix:
 Charge =  0 Multiplicity = 1

 SCF Done:  E(RB3LYP) =  -726.905790633     A.U. after   15 cycles
 SCF Done:  E(RB3LYP) =  -726.910925868     A.U. after   13 cycles
 SCF Done:  E(RB3LYP) =  -726.911348535     A.U. after   12 cycles
 SCF Done:  E(RB3LYP) =  -726.911232858     A.U. after   12 cycles
 SCF Done:  E(RB3LYP) =  -726.911745167     A.U. after   12 cycles
 SCF Done:  E(RB3LYP) =  -726.911882908     A.U. after   11 cycles
 SCF Done:  E(RB3LYP) =  -726.911997253     A.U. after   12 cycles
 SCF Done:  E(RB3LYP) =  -726.912017577     A.U. after   10 cycles
 SCF Done:  E(RB3LYP) =  -726.912042250     A.U. after   10 cycles
 SCF Done:  E(RB3LYP) =  -726.912047806     A.U. after   10 cycles
 SCF Done:  E(RB3LYP) =  -726.912048008     A.U. after    7 cycles
 SCF Done:  E(RB3LYP) =  -726.912048048     A.U. after    7 cycles
 Optimization completed.
    -- Stationary point found.
 Normal termination of Gaussian 16 at Fri Dec 11 01:05:27 2020.

 --------------------------------------------------------------------
 #N Geom=AllCheck Guess=TCheck SCRF=Check GenChk RB3LYP/6-31G(d) Freq
 --------------------------------------------------------------------

 Structure from the checkpoint file:  "JID_6905.chk"
 ------------------------------
 CID_79006483_JID_6905_neutraal
 ------------------------------
 Charge =  0 Multiplicity = 1

 SCF Done:  E(RB3LYP) =  -726.912048048     A.U. after    1 cycles

  Exact polarizability: 146.138   9.507 134.190  12.400  -8.323 119.514
 Approx polarizability: 183.331  18.906 228.757  28.340 -18.206 199.002

                      1                      2                      3
                      A                      A                      A
 Frequencies --     24.7465                39.1414                52.9859
 Red. masses --      5.0365                 5.5471                 3.7273
 Frc consts  --      0.0018                 0.0050                 0.0062
 IR Inten    --      0.2200                 0.6595                 0.4505

                      4                      5                      6
                      A                      A                      A
 Frequencies --     70.8081                92.0601               107.3268
 Red. masses --      4.6028                 3.3294                 3.1165
 Frc consts  --      0.0136                 0.0166                 0.0212
 IR Inten    --      0.6926                 0.4337                 1.4078

                      7                      8                      9
                      A                      A                      A
 Frequencies --    135.6139               156.4459               205.7284
 Red. masses --      1.1201                 4.4950                 3.5891
 Frc consts  --      0.0121                 0.0648                 0.0895
 IR Inten    --      0.0312                 0.4700                 3.3268

                     10                     11                     12
                      A                      A                      A
 Frequencies --    248.2068               266.9274               307.0316
 Red. masses --      3.3422                 3.4330                 3.0749
 Frc consts  --      0.1213                 0.1441                 0.1708
 IR Inten    --      5.6404                 0.3320                 2.2409

                     13                     14                     15
                      A                      A                      A
 Frequencies --    336.1840               390.0605               401.9961
 Red. masses --      3.3915                 2.6010                 3.5379
 Frc consts  --      0.2258                 0.2332                 0.3369
 IR Inten    --      9.9793                 0.0565                 3.2823

                     16                     17                     18
                      A                      A                      A
 Frequencies --    416.1031               445.7359               498.7363
 Red. masses --      2.5995                 2.4375                 4.7596
 Frc consts  --      0.2652                 0.2853                 0.6975
 IR Inten    --      4.0866                 2.7298                 9.3413

                     19                     20                     21
                      A                      A                      A
 Frequencies --    578.6641               625.9305               652.2096
 Red. masses --      2.7349                 3.4381                 3.2476
 Frc consts  --      0.5396                 0.7936                 0.8139
 IR Inten    --      0.8094                23.9332                15.0295

                     22                     23                     24
                      A                      A                      A
 Frequencies --    688.0197               698.8486               752.5184
 Red. masses --      6.6846                 3.7272                 6.6387
 Frc consts  --      1.8643                 1.0725                 2.2150
 IR Inten    --      0.6122                11.6910                 6.5842

                     25                     26                     27
                      A                      A                      A
 Frequencies --    761.1235               795.9819               819.1664
 Red. masses --      4.6195                 1.9534                 2.4238
 Frc consts  --      1.5767                 0.7292                 0.9583
 IR Inten    --      3.0539                29.0084                 5.9095

                     28                     29                     30
                      A                      A                      A
 Frequencies --    846.5015               863.5437               888.9031
 Red. masses --      3.7351                 2.2448                 2.3800
 Frc consts  --      1.5769                 0.9863                 1.1080
 IR Inten    --      4.3747                 1.3481                12.8600

                     31                     32                     33
                      A                      A                      A
 Frequencies --    894.9519               925.2481               937.0995
 Red. masses --      1.3167                 3.0587                 2.2850
 Frc consts  --      0.6213                 1.5428                 1.1823
 IR Inten    --      2.5527                19.1002                 7.4970

                     34                     35                     36
                      A                      A                      A
 Frequencies --    969.6760               979.5954               993.1755
 Red. masses --      1.9498                 1.3296                 1.4613
 Frc consts  --      1.0802                 0.7518                 0.8493
 IR Inten    --      5.1753                 2.8346                 0.1193

                     37                     38                     39
                      A                      A                      A
 Frequencies --   1007.7109              1015.6733              1035.9635
 Red. masses --      2.2937                 7.4799                 2.7901
 Frc consts  --      1.3723                 4.5463                 1.7643
 IR Inten    --     17.3649                 4.2990                 8.9420

                     40                     41                     42
                      A                      A                      A
 Frequencies --   1057.5076              1098.3124              1102.0285
 Red. masses --      3.7301                 3.2872                 2.0686
 Frc consts  --      2.4577                 2.3363                 1.4802
 IR Inten    --      9.2074                45.5087                28.2194

                     43                     44                     45
                      A                      A                      A
 Frequencies --   1111.7653              1115.3854              1144.3782
 Red. masses --      1.9009                 1.8019                 1.8507
 Frc consts  --      1.3843                 1.3208                 1.4280
 IR Inten    --     62.8967                 5.4125                15.7559

                     46                     47                     48
                      A                      A                      A
 Frequencies --   1187.2628              1215.8817              1220.0437
 Red. masses --      1.2764                 1.3774                 1.4506
 Frc consts  --      1.0600                 1.1998                 1.2722
 IR Inten    --      0.8134                77.5876                12.2590

                     49                     50                     51
                      A                      A                      A
 Frequencies --   1233.1554              1239.9547              1257.4609
 Red. masses --      3.2958                 1.2987                 1.2858
 Frc consts  --      2.9529                 1.1764                 1.1979
 IR Inten    --      9.8088                21.4842                 6.8172

                     52                     53                     54
                      A                      A                      A
 Frequencies --   1297.9339              1302.1215              1303.6383
 Red. masses --      2.0525                 4.5901                 1.8870
 Frc consts  --      2.0372                 4.5854                 1.8895
 IR Inten    --    140.4797                 2.9671               128.3357

                     55                     56                     57
                      A                      A                      A
 Frequencies --   1325.4929              1344.1043              1349.2474
 Red. masses --      1.3589                 1.3911                 1.4988
 Frc consts  --      1.4067                 1.4808                 1.6076
 IR Inten    --     15.8909                 5.7841                 2.0669

                     58                     59                     60
                      A                      A                      A
 Frequencies --   1370.7459              1374.2210              1389.3762
 Red. masses --      1.2194                 1.4843                 1.2348
 Frc consts  --      1.3499                 1.6515                 1.4044
 IR Inten    --      3.8311                10.7070                 1.2448

                     61                     62                     63
                      A                      A                      A
 Frequencies --   1397.1996              1401.3425              1462.4506
 Red. masses --      1.2334                 1.3779                 2.0408
 Frc consts  --      1.4186                 1.5943                 2.5717
 IR Inten    --      3.3894                 3.7106                18.8051

                     64                     65                     66
                      A                      A                      A
 Frequencies --   1492.4357              1506.3959              1512.7555
 Red. masses --      1.1940                 1.0966                 1.0481
 Frc consts  --      1.5669                 1.4662                 1.4132
 IR Inten    --      6.8273                 8.4744                 5.5025

                     67                     68                     69
                      A                      A                      A
 Frequencies --   1517.3890              1522.9824              1526.0133
 Red. masses --      1.0885                 1.0959                 1.0488
 Frc consts  --      1.4766                 1.4977                 1.4390
 IR Inten    --      2.0532                 9.4757                 7.5886

                     70                     71                     72
                      A                      A                      A
 Frequencies --   1537.2153              1543.3753              1620.4499
 Red. masses --      1.1106                 2.0233                 6.5471
 Frc consts  --      1.5462                 2.8396                10.1291
 IR Inten    --      3.7697                 0.8837                15.0259

                     73                     74                     75
                      A                      A                      A
 Frequencies --   1654.1171              1825.5332              3048.6351
 Red. masses --      5.3596                11.0148                 1.0667
 Frc consts  --      8.6400                21.6276                 5.8412
 IR Inten    --     40.3889               233.3844                40.1663

                     76                     77                     78
                      A                      A                      A
 Frequencies --   3054.9242              3061.2434              3074.7079
 Red. masses --      1.0600                 1.0667                 1.0295
 Frc consts  --      5.8287                 5.8898                 5.7344
 IR Inten    --     37.2431                44.5508                37.6114

                     79                     80                     81
                      A                      A                      A
 Frequencies --   3098.6255              3099.5770              3117.6255
 Red. masses --      1.0910                 1.0749                 1.0973
 Frc consts  --      6.1720                 6.0848                 6.2838
 IR Inten    --     17.9479                 8.0380                25.3667

                     82                     83                     84
                      A                      A                      A
 Frequencies --   3124.8176              3138.9190              3148.5461
 Red. masses --      1.0976                 1.0961                 1.1074
 Frc consts  --      6.3144                 6.3632                 6.4679
 IR Inten    --     17.6390                 3.3889                20.7672

                     85                     86                     87
                      A                      A                      A
 Frequencies --   3151.0620              3169.5159              3172.6542
 Red. masses --      1.0998                 1.0873                 1.0887
 Frc consts  --      6.4341                 6.4355                 6.4564
 IR Inten    --     32.8616                21.2627                19.1557

                     88                     89                     90
                      A                      A                      A
 Frequencies --   3180.4762              3193.3232              3196.9375
 Red. masses --      1.1071                 1.0932                 1.0950
 Frc consts  --      6.5984                 6.5682                 6.5936
 IR Inten    --     17.1852                34.3040                 4.8756

 - Thermochemistry -
 -------------------
 Temperature   298.150 Kelvin.  Pressure   1.00000 Atm.
 Atom     1 has atomic number  6 and mass  12.00000

 Molecular mass:   220.12118 amu.
 Principal axes and moments of inertia in atomic units:
                           1         2         3
     Eigenvalues --  1792.948245677.752336377.19470
           X            0.99999  -0.00288  -0.00241
           Y            0.00283   0.99982  -0.01881
           Z            0.00247   0.01881   0.99982
 This molecule is an asymmetric top.
 Rotational symmetry number  1.
 Warning -- assumption of classical behavior for rotation
           may cause significant error
 Rotational temperatures (Kelvin)      0.04831     0.01525     0.01358
 Rotational constants (GHZ):           1.00658     0.31786     0.28300
 Zero-point vibrational energy     714874.0 (Joules/Mol)
                                  170.85900 (Kcal/Mol)
 Warning -- explicit consideration of  19 degrees of freedom as
           vibrations may cause significant error
 Vibrational temperatures:     35.60    56.32    76.23   101.88   132.45
          (Kelvin)            154.42   195.12   225.09   296.00   357.11
                              384.05   441.75   483.69   561.21   578.38
                              598.68   641.31   717.57   832.57   900.57
                              938.38   989.91  1005.49  1082.71  1095.09
                             1145.24  1178.60  1217.93  1242.45  1278.93
                             1287.64  1331.23  1348.28  1395.15  1409.42
                             1428.96  1449.87  1461.33  1490.52  1521.52
                             1580.23  1585.57  1599.58  1604.79  1646.50
                             1708.21  1749.38  1755.37  1774.24  1784.02
                             1809.21  1867.44  1873.46  1875.64  1907.09
                             1933.87  1941.27  1972.20  1977.20  1999.00
                             2010.26  2016.22  2104.14  2147.28  2167.37
                             2176.52  2183.18  2191.23  2195.59  2211.71
                             2220.57  2331.47  2379.91  2626.54  4386.31
                             4395.35  4404.45  4423.82  4458.23  4459.60
                             4485.57  4495.92  4516.20  4530.06  4533.68
                             4560.23  4564.74  4576.00  4594.48  4599.68

 Zero-point correction=                           0.272281 (Hartree/Particle)
 Thermal correction to Energy=                    0.286922
 Thermal correction to Enthalpy=                  0.287866
 Thermal correction to Gibbs Free Energy=         0.228523
 Sum of electronic and zero-point Energies=           -726.639767
 Sum of electronic and thermal Energies=              -726.625126
 Sum of electronic and thermal Enthalpies=            -726.624182
 Sum of electronic and thermal Free Energies=         -726.683525

                     E (Thermal)             CV                S
                      KCal/Mol        Cal/Mol-Kelvin    Cal/Mol-Kelvin
 Total                  180.046             54.859            124.899
 Electronic               0.000              0.000              0.000
 Translational            0.889              2.981             42.070
 Rotational               0.889              2.981             32.540
 Vibrational            178.269             48.897             50.289
 Vibration     1          0.593              1.985              6.211
 Vibration     2          0.594              1.981              5.302
 Vibration     3          0.596              1.976              4.703
 Vibration     4          0.598              1.968              4.131
 Vibration     5          0.602              1.955              3.616
 Vibration     6          0.606              1.943              3.317
 Vibration     7          0.613              1.918              2.865
 Vibration     8          0.620              1.895              2.592
 Vibration     9          0.640              1.832              2.081
 Vibration    10          0.662              1.766              1.743
 Vibration    11          0.672              1.734              1.616
 Vibration    12          0.697              1.660              1.378
 Vibration    13          0.717              1.603              1.230
 Vibration    14          0.758              1.491              1.000
 Vibration    15          0.768              1.466              0.955
 Vibration    16          0.779              1.435              0.905
 Vibration    17          0.805              1.370              0.809
 Vibration    18          0.854              1.253              0.661
 Vibration    19          0.935              1.077              0.488

                           ! Non-Optimized Parameters !
 Normal termination of Gaussian 16 at Fri Dec 11 01:16:12 2020.

 ----------------------------------------------------------------------
 # B3LYP/6-311++G(d,p) empiricaldispersion=gd3bj scf=xqc pop=npa geom=c
 heck
 ----------------------------------------------------------------------

 --------------------------------------
 CID_79006483_JID_6905_Energie_neutraal
 --------------------------------------
 Structure from the checkpoint file:  "JID_6905.chk"
 Charge =  0 Multiplicity = 1

 SCF Done:  E(RB3LYP) =  -727.111271750     A.U. after   16 cycles
 Normal termination of Gaussian 16 at Fri Dec 11 01:20:43 2020.

 ----------------------------------------------------------------------
 # B3LYP/6-311++G(d,p) empiricaldispersion=gd3bj scf=xqc pop=npa geom=c
 heck
 ----------------------------------------------------------------------

 ------------------------------------
 CID_79006483_JID_6905_Energie_kation
 ------------------------------------
 Structure from the checkpoint file:  "JID_6905.chk"
 Charge =  1 Multiplicity = 2

 SCF Done:  E(UB3LYP) =  -726.813909482     A.U. after   23 cycles
 Normal termination of Gaussian 16 at Fri Dec 11 01:29:36 2020.
 Gaussian 16:  ES64L-G16RevA.03 25-Dec-2016

 ----------------------------------------------------------------------
 # B3LYP/6-311++G(d,p) empiricaldispersion=gd3bj scf=xqc pop=npa geom=c
 heck
 ----------------------------------------------------------------------

 -----------------------------------
 CID_79006483_JID_6905_Energie_anion
 -----------------------------------
 Structure from the checkpoint file:  "JID_6905.chk"
 Charge = -1 Multiplicity = 2

                         Standard orientation:
 ---------------------------------------------------------------------
 Center     Atomic      Atomic             Coordinates (Angstroms)
 Number     Number       Type             X           Y           Z
 ---------------------------------------------------------------------
      1          6           0        4.704960   -0.407205   -0.363259
      2          8           0        3.343362    0.045054   -0.350698
      3          6           0        2.433354   -0.871968    0.066138
      4          8           0        2.736337   -1.994719    0.407943
      5          6           0        1.038861   -0.294691    0.078879
      6          6           0        0.623248    0.406348   -1.245671
      7          6           0        0.338502    1.872997   -0.832493
      8          7           0        0.020400    1.866958    0.598666
      9          6           0        0.891685    0.835771    1.157306
     10          6           0       -1.403187    1.768678    0.942574
     11          6           0       -2.163002    0.550732    0.443150
     12          6           0       -2.186807   -0.648102    1.163611
     13          6           0       -2.847897   -1.754111    0.630780
     14          7           0       -3.484876   -1.745025   -0.547096
     15          6           0       -3.477949   -0.590950   -1.225665
     16          6           0       -2.843927    0.567609   -0.778374
     17          1           0        5.293007    0.440443   -0.716095
     18          1           0        4.819056   -1.261836   -1.035275
     19          1           0        5.020335   -0.703907    0.640578
     20          1           0        0.366480   -1.122603    0.303910
     21          1           0       -0.274497   -0.070879   -1.644162
     22          1           0        1.405188    0.348389   -2.006392
     23          1           0        1.244072    2.474911   -0.978547
     24          1           0       -0.467507    2.337782   -1.407083
     25          1           0        0.503799    0.462654    2.108404
     26          1           0        1.876838    1.278678    1.343719
     27          1           0       -1.470996    1.812224    2.035252
     28          1           0       -1.887894    2.672512    0.556659
     29          1           0       -1.698735   -0.722656    2.131698
     30          1           0       -2.870123   -2.694576    1.178529
     31          1           0       -4.009777   -0.592411   -2.175698
     32          1           0       -2.882550    1.474424   -1.376299
 ---------------------------------------------------------------------

 SCF Done:  E(UB3LYP) =  -727.104836957     A.U. after   33 cycles
 SCF Done:  E(UB3LYP) =  -727.104836957     a.u. after    1 cycles

 The electronic state is 2-A.
 Alpha  occ. eigenvalues --  -19.07284 -19.01652 -14.20175 -14.17646 -10.20216
 Alpha  occ. eigenvalues --  -10.12884 -10.09759 -10.09172 -10.09171 -10.08484
 Alpha  occ. eigenvalues --  -10.08454 -10.08410 -10.06991 -10.06013 -10.05952
 Alpha  occ. eigenvalues --  -10.05893  -1.01220  -0.92495  -0.83447  -0.81896
 Alpha  occ. eigenvalues --   -0.70745  -0.68581  -0.64286  -0.63869  -0.62093
 Alpha  occ. eigenvalues --   -0.58958  -0.51784  -0.51168  -0.50197  -0.47094
 Alpha  occ. eigenvalues --   -0.46809  -0.41328  -0.40616  -0.39253  -0.38469
 Alpha  occ. eigenvalues --   -0.37900  -0.37573  -0.35572  -0.34576  -0.34064
 Alpha  occ. eigenvalues --   -0.32473  -0.31165  -0.30940  -0.30326  -0.28887
 Alpha  occ. eigenvalues --   -0.28549  -0.27335  -0.26394  -0.26264  -0.25409
 Alpha  occ. eigenvalues --   -0.24648  -0.23661  -0.23016  -0.21441  -0.18246
 Alpha  occ. eigenvalues --   -0.16907  -0.14965  -0.14154  -0.11376   0.04356
 Alpha virt. eigenvalues --    0.05728   0.07351   0.08080   0.08546   0.08872
 Alpha virt. eigenvalues --    0.09430   0.09487   0.09688   0.09773   0.10322
 Alpha virt. eigenvalues --    0.11132   0.11866   0.11967   0.12657   0.12858

  Beta  occ. eigenvalues --  -19.07279 -19.01646 -14.20138 -14.17328 -10.20213
  Beta  occ. eigenvalues --  -10.12844 -10.09746 -10.09182 -10.09160 -10.08467
  Beta  occ. eigenvalues --  -10.08453 -10.08369 -10.06990 -10.06005 -10.05894
  Beta  occ. eigenvalues --  -10.05644  -1.01209  -0.92482  -0.83369  -0.81484
  Beta  occ. eigenvalues --   -0.70544  -0.68311  -0.64152  -0.63782  -0.62045
  Beta  occ. eigenvalues --   -0.58845  -0.51715  -0.51066  -0.49936  -0.46953
  Beta  occ. eigenvalues --   -0.46781  -0.41279  -0.40550  -0.39214  -0.38395
  Beta  occ. eigenvalues --   -0.37805  -0.37485  -0.35424  -0.34514  -0.33993
  Beta  occ. eigenvalues --   -0.32409  -0.31126  -0.30904  -0.30293  -0.28778
  Beta  occ. eigenvalues --   -0.27955  -0.27169  -0.26246  -0.26180  -0.25276
  Beta  occ. eigenvalues --   -0.24598  -0.23587  -0.22985  -0.21418  -0.18220
  Beta  occ. eigenvalues --   -0.15589  -0.14477  -0.13784  -0.11239
  Beta virt. eigenvalues --    0.06609   0.07285   0.08154   0.08562   0.08931
  Beta virt. eigenvalues --    0.09161   0.09550   0.09724   0.09960   0.10168
  Beta virt. eigenvalues --    0.10501   0.11195   0.11962   0.12101   0.12742

 Mulliken charges and spin densities:
               1          2
     1  C    0.887402  -1.110397
     2  O   -0.104177   0.055947
     3  C   -0.389651   0.127840
     4  O   -0.263055   0.011030
     5  C    0.543029  -0.228447
     6  C   -0.892172   0.325686
     7  C    0.410688  -0.659450
     8  N    0.153568   0.110904
     9  C   -0.450892  -0.201847
    10  C    0.237801  -1.256033
    11  C   -0.111087   0.790606
    12  C   -0.032109   0.268180
    13  C   -0.325778  -0.205245
    14  N   -0.147088   0.141155
    15  C   -0.261452  -0.212485
    16  C   -0.041829   0.141681
    17  H   -0.484890   0.640386
    18  H   -0.117953   0.286593
    19  H   -0.167405   0.339707
    20  H    0.284640   0.011584
    21  H    0.160811   0.005948
    22  H    0.112104   0.098628
    23  H   -0.022426   0.180409
    24  H    0.132982   0.018673
    25  H    0.073575   0.067227
    26  H   -0.047747   0.241084
    27  H   -0.186576   0.357419
    28  H   -0.120681   0.281968
    29  H    0.003647   0.141697
    30  H    0.128836   0.006682
    31  H    0.117364   0.013009
    32  H   -0.079479   0.209861
 Sum of Mulliken charges =  -1.00000   1.00000

 Dipole moment (field-independent basis, Debye):
    X=             -1.1965    Y=              0.4415    Z=             -0.6241  Tot=              1.4199
 Quadrupole moment (field-independent basis, Debye-Ang):
   XX=           -183.2859   YY=           -136.4605   ZZ=           -115.5421
   XY=             -6.0562   XZ=              2.0592   YZ=             -4.5634

 Summary of Natural Population Analysis:

                                       Natural Population
                Natural  -----------------------------------------------
    Atom  No    Charge         Core      Valence    Rydberg      Total
 -----------------------------------------------------------------------
      C    1   -0.10457      0.99960     2.09567    0.00930     3.10457
      O    2   -0.28410      0.99986     3.27516    0.00907     4.28410
      C    3    0.41448      0.99964     1.56034    0.02555     2.58552
      O    4   -0.30666      0.99987     3.30145    0.00534     4.30666
      C    5   -0.16820      0.99955     2.15841    0.01024     3.16820
      C    6   -0.19818      0.99962     2.19112    0.00744     3.19818
      C    7   -0.08713      0.99962     2.07694    0.01057     3.08713
      N    8   -0.26951      0.99974     2.75482    0.01495     3.76951
      C    9   -0.07862      0.99960     2.06822    0.01080     3.07862
      C   10   -0.09261      0.99957     2.07936    0.01369     3.09261
      C   11    0.02953      0.99950     1.96105    0.00993     2.97047
      C   12   -0.12673      0.99950     2.11790    0.00933     3.12673
      C   13    0.02324      0.99959     1.96037    0.01679     2.97676
      N   14   -0.20005      0.99971     2.69026    0.01008     3.70005
      C   15    0.02543      0.99960     1.95786    0.01712     2.97457
      C   16   -0.12917      0.99950     2.12036    0.00931     3.12917
      H   17    0.09396      0.00000     0.40408    0.00196     0.40604
      H   18    0.09020      0.00000     0.40866    0.00114     0.40980
      H   19    0.09087      0.00000     0.40786    0.00127     0.40913
      H   20    0.11799      0.00000     0.38057    0.00145     0.38201
      H   21    0.10787      0.00000     0.39104    0.00109     0.39213
      H   22    0.10273      0.00000     0.39609    0.00118     0.39727
      H   23    0.09413      0.00000     0.40462    0.00125     0.40587
      H   24    0.09723      0.00000     0.40185    0.00093     0.40277
      H   25    0.09953      0.00000     0.39952    0.00095     0.40047
      H   26    0.09703      0.00000     0.40135    0.00162     0.40297
      H   27    0.09968      0.00000     0.39893    0.00138     0.40032
      H   28    0.09852      0.00000     0.40017    0.00131     0.40148
      H   29    0.09854      0.00000     0.40042    0.00105     0.40146
      H   30    0.08399      0.00000     0.41482    0.00119     0.41601
      H   31    0.08294      0.00000     0.41587    0.00119     0.41706
      H   32    0.09767      0.00000     0.40124    0.00109     0.40233
 =======================================================================
   * Total *    0.00000     15.99408    42.79640    0.20953    59.00000

 Normal termination of Gaussian 16 at Fri Dec 11 01:42:15 2020.
