 Gaussian 16, Revision A.03,

 -----------------------------------------------------------
 # opt freq B3LYP/6-31G(d) empiricaldispersion=gd3bj scf=xqc
 -----------------------------------------------------------

 ------------------------------
 CID_91343485_JID_1377_neutraal
 ------------------------------
 Symbolic Z-matrix:
 Charge =  0 Multiplicity = 1

 SCF Done:  E(RB3LYP) =  -580.822970372     A.U. after   15 cycles
 SCF Done:  E(RB3LYP) =  -580.829523351     A.U. after   13 cycles
 SCF Done:  E(RB3LYP) =  -580.830235665     A.U. after   12 cycles
 SCF Done:  E(RB3LYP) =  -580.830524683     A.U. after   12 cycles
 SCF Done:  E(RB3LYP) =  -580.830771052     A.U. after   11 cycles
 SCF Done:  E(RB3LYP) =  -580.830881513     A.U. after   12 cycles
 SCF Done:  E(RB3LYP) =  -580.830931586     A.U. after   11 cycles
 SCF Done:  E(RB3LYP) =  -580.830962376     A.U. after   10 cycles
 SCF Done:  E(RB3LYP) =  -580.830974585     A.U. after   10 cycles
 SCF Done:  E(RB3LYP) =  -580.830975809     A.U. after    8 cycles
 SCF Done:  E(RB3LYP) =  -580.830976314     A.U. after    8 cycles
 SCF Done:  E(RB3LYP) =  -580.830976477     A.U. after    8 cycles
 SCF Done:  E(RB3LYP) =  -580.830976545     A.U. after    7 cycles
 Optimization completed.
    -- Stationary point found.
 Normal termination of Gaussian 16 at Tue Dec  8 19:49:11 2020.

 --------------------------------------------------------------------
 #N Geom=AllCheck Guess=TCheck SCRF=Check GenChk RB3LYP/6-31G(d) Freq
 --------------------------------------------------------------------

 Structure from the checkpoint file:  "JID_1377.chk"
 ------------------------------
 CID_91343485_JID_1377_neutraal
 ------------------------------
 Charge =  0 Multiplicity = 1

 SCF Done:  E(RB3LYP) =  -580.830976545     A.U. after    1 cycles

  Exact polarizability: 114.739   0.286  95.187  -0.246  -0.597  37.695
 Approx polarizability: 198.691   8.087 146.453   0.557  -0.729  57.502

                      1                      2                      3
                      A                      A                      A
 Frequencies --    104.1292               124.9910               146.9053
 Red. masses --      4.2024                 5.1287                 1.2998
 Frc consts  --      0.0268                 0.0472                 0.0165
 IR Inten    --      1.7430                 1.8477                25.3753

                      4                      5                      6
                      A                      A                      A
 Frequencies --    159.9780               185.9697               247.5616
 Red. masses --      2.7335                 1.2803                 1.3088
 Frc consts  --      0.0412                 0.0261                 0.0473
 IR Inten    --     16.5050                55.8640                41.5450

                      7                      8                      9
                      A                      A                      A
 Frequencies --    267.3502               298.8279               331.8766
 Red. masses --      4.4176                 3.0306                 4.0823
 Frc consts  --      0.1860                 0.1594                 0.2649
 IR Inten    --      6.4768                11.3135                12.0751

                     10                     11                     12
                      A                      A                      A
 Frequencies --    352.3588               371.6962               396.4097
 Red. masses --      3.5702                 5.6005                 9.1564
 Frc consts  --      0.2612                 0.4559                 0.8477
 IR Inten    --      2.8728                10.3217                22.1846

                     13                     14                     15
                      A                      A                      A
 Frequencies --    430.6138               464.2264               516.3381
 Red. masses --      4.0118                 8.3385                 9.7123
 Frc consts  --      0.4383                 1.0588                 1.5256
 IR Inten    --      8.5844                10.8924                 0.8843

                     16                     17                     18
                      A                      A                      A
 Frequencies --    586.9263               694.6952               701.9593
 Red. masses --      7.0820                 2.9214                 4.2201
 Frc consts  --      1.4374                 0.8307                 1.2252
 IR Inten    --      7.6472               146.6110                57.8550

                     19                     20                     21
                      A                      A                      A
 Frequencies --    717.4478               726.1843               800.0778
 Red. masses --      2.5215                 5.6303                 6.1906
 Frc consts  --      0.7647                 1.7493                 2.3348
 IR Inten    --    126.1421                52.7372                 2.5403

                     22                     23                     24
                      A                      A                      A
 Frequencies --    844.9097               972.1503               994.8025
 Red. masses --      1.3625                 3.9275                 2.7743
 Frc consts  --      0.5731                 2.1869                 1.6176
 IR Inten    --     42.7269                90.7078                88.0326

                     25                     26                     27
                      A                      A                      A
 Frequencies --   1049.1846              1111.4251              1176.9250
 Red. masses --      1.6966                 1.6584                 1.4637
 Frc consts  --      1.1004                 1.2070                 1.1945
 IR Inten    --     20.1444                54.7672                 4.8504

                     28                     29                     30
                      A                      A                      A
 Frequencies --   1196.8962              1218.2832              1336.2019
 Red. masses --      3.3090                 2.7019                 2.3223
 Frc consts  --      2.7930                 2.3628                 2.4430
 IR Inten    --     11.2448                51.9153                16.5199

                     31                     32                     33
                      A                      A                      A
 Frequencies --   1371.1245              1376.0795              1440.8101
 Red. masses --      3.2759                 1.1827                 3.6952
 Frc consts  --      3.6285                 1.3195                 4.5196
 IR Inten    --     68.4080                 7.2303                88.1856

                     34                     35                     36
                      A                      A                      A
 Frequencies --   1481.3089              1506.7037              1618.8247
 Red. masses --      1.8773                 4.3031                 1.1991
 Frc consts  --      2.4270                 5.7555                 1.8514
 IR Inten    --     24.1907                25.6272               164.1429

                     37                     38                     39
                      A                      A                      A
 Frequencies --   1662.2743              1707.6337              1733.5261
 Red. masses --      1.2215                 6.6755                 1.5639
 Frc consts  --      1.9886                11.4689                 2.7689
 IR Inten    --    184.3834               195.1545               137.4142

                     40                     41                     42
                      A                      A                      A
 Frequencies --   1748.3869              1796.1429              3261.4439
 Red. masses --      2.3519                 6.5377                 1.0930
 Frc consts  --      4.2359                12.4268                 6.8500
 IR Inten    --    263.8651               243.5244                 5.6963

                     43                     44                     45
                      A                      A                      A
 Frequencies --   3443.7964              3449.9562              3516.8514
 Red. masses --      1.0485                 1.0468                 1.0942
 Frc consts  --      7.3261                 7.3407                 7.9733
 IR Inten    --      3.5278                 6.4430                 4.0395

                     46                     47                     48
                      A                      A                      A
 Frequencies --   3529.7705              3562.6527              3636.4957
 Red. masses --      1.0482                 1.0968                 1.0971
 Frc consts  --      7.6949                 8.2021                 8.5478
 IR Inten    --     24.5043                21.6560                22.7715

 - Thermochemistry -
 -------------------
 Temperature   298.150 Kelvin.  Pressure   1.00000 Atm.
 Atom     1 has atomic number  6 and mass  12.00000

 Molecular mass:   157.05997 amu.
 Principal axes and moments of inertia in atomic units:
                           1         2         3
     Eigenvalues --  1123.382781583.520762689.76352
           X            0.99997  -0.00724  -0.00313
           Y            0.00723   0.99997  -0.00233
           Z            0.00315   0.00231   0.99999
 This molecule is an asymmetric top.
 Rotational symmetry number  1.
 Warning -- assumption of classical behavior for rotation
           may cause significant error
 Rotational temperatures (Kelvin)      0.07710     0.05470     0.03220
 Rotational constants (GHZ):           1.60652     1.13970     0.67097
 Zero-point vibrational energy     361099.3 (Joules/Mol)
                                   86.30480 (Kcal/Mol)
 Warning -- explicit consideration of  16 degrees of freedom as
           vibrations may cause significant error
 Vibrational temperatures:    149.82   179.83   211.36   230.17   267.57
          (Kelvin)            356.19   384.66   429.95   477.50   506.97
                              534.79   570.35   619.56   667.92   742.90
                              844.46   999.51  1009.96  1032.25  1044.82
                             1151.13  1215.64  1398.71  1431.30  1509.54
                             1599.09  1693.33  1722.07  1752.84  1922.50
                             1972.74  1979.87  2073.00  2131.27  2167.81
                             2329.13  2391.64  2456.90  2494.16  2515.54
                             2584.25  4692.49  4954.85  4963.72  5059.96
                             5078.55  5125.86  5232.11

 Zero-point correction=                           0.137535 (Hartree/Particle)
 Thermal correction to Energy=                    0.148137
 Thermal correction to Enthalpy=                  0.149081
 Thermal correction to Gibbs Free Energy=         0.102026
 Sum of electronic and zero-point Energies=           -580.693441
 Sum of electronic and thermal Energies=              -580.682840
 Sum of electronic and thermal Enthalpies=            -580.681895
 Sum of electronic and thermal Free Energies=         -580.728950

                     E (Thermal)             CV                S
                      KCal/Mol        Cal/Mol-Kelvin    Cal/Mol-Kelvin
 Total                   92.957             39.168             99.035
 Electronic               0.000              0.000              0.000
 Translational            0.889              2.981             41.064
 Rotational               0.889              2.981             29.949
 Vibrational             91.180             33.207             28.023
 Vibration     1          0.605              1.946              3.376
 Vibration     2          0.610              1.928              3.022
 Vibration     3          0.617              1.906              2.712
 Vibration     4          0.622              1.891              2.550
 Vibration     5          0.632              1.859              2.268
 Vibration     6          0.661              1.767              1.748
 Vibration     7          0.672              1.733              1.613
 Vibration     8          0.692              1.676              1.423
 Vibration     9          0.714              1.612              1.251
 Vibration    10          0.729              1.570              1.156
 Vibration    11          0.743              1.530              1.073
 Vibration    12          0.763              1.478              0.976
 Vibration    13          0.792              1.404              0.857
 Vibration    14          0.822              1.329              0.754
 Vibration    15          0.871              1.214              0.619
 Vibration    16          0.944              1.060              0.473

                           ! Non-Optimized Parameters !
 Normal termination of Gaussian 16 at Tue Dec  8 19:52:32 2020.

 ----------------------------------------------------------------------
 # B3LYP/6-311++G(d,p) empiricaldispersion=gd3bj scf=xqc pop=npa geom=c
 heck
 ----------------------------------------------------------------------

 --------------------------------------
 CID_91343485_JID_1377_Energie_neutraal
 --------------------------------------
 Structure from the checkpoint file:  "JID_1377.chk"
 Charge =  0 Multiplicity = 1

 SCF Done:  E(RB3LYP) =  -581.021166390     A.U. after   15 cycles
 Normal termination of Gaussian 16 at Tue Dec  8 19:53:35 2020.

 ----------------------------------------------------------------------
 # B3LYP/6-311++G(d,p) empiricaldispersion=gd3bj scf=xqc pop=npa geom=c
 heck
 ----------------------------------------------------------------------

 ------------------------------------
 CID_91343485_JID_1377_Energie_kation
 ------------------------------------
 Structure from the checkpoint file:  "JID_1377.chk"
 Charge =  1 Multiplicity = 2

 SCF Done:  E(UB3LYP) =  -580.725974646     A.U. after   22 cycles
 Normal termination of Gaussian 16 at Tue Dec  8 19:56:22 2020.
 Gaussian 16:  ES64L-G16RevA.03 25-Dec-2016

 ----------------------------------------------------------------------
 # B3LYP/6-311++G(d,p) empiricaldispersion=gd3bj scf=xqc pop=npa geom=c
 heck
 ----------------------------------------------------------------------

 -----------------------------------
 CID_91343485_JID_1377_Energie_anion
 -----------------------------------
 Structure from the checkpoint file:  "JID_1377.chk"
 Charge = -1 Multiplicity = 2

                         Standard orientation:
 ---------------------------------------------------------------------
 Center     Atomic      Atomic             Coordinates (Angstroms)
 Number     Number       Type             X           Y           Z
 ---------------------------------------------------------------------
      1          6           0        0.041128   -1.631938    0.035197
      2          6           0        1.232619   -0.984418    0.020531
      3          6           0        1.245175    0.476400   -0.007040
      4          8           0        2.270432    1.157737   -0.070009
      5          7           0       -0.007195    1.081535    0.037748
      6          6           0       -1.240958    0.447056    0.006656
      7          8           0       -2.302842    1.057669   -0.053262
      8          7           0       -1.155670   -0.932209    0.016396
      9          7           0       -2.351963   -1.678945   -0.023445
     10          7           0       -0.035584    2.492844    0.158389
     11          7           0        2.490211   -1.586996    0.080692
     12          1           0       -0.074409   -2.707097    0.058033
     13          1           0       -2.882161   -1.341235   -0.828356
     14          1           0       -2.901099   -1.400032    0.791237
     15          1           0        0.866028    2.797557   -0.210602
     16          1           0       -0.793072    2.812137   -0.444416
     17          1           0        3.217187   -0.916557   -0.149855
     18          1           0        2.580426   -2.444215   -0.450397
 ---------------------------------------------------------------------

 SCF Done:  E(UB3LYP) =  -581.014615306     A.U. after   30 cycles

 The electronic state is 2-A.
 Alpha  occ. eigenvalues --  -18.98378 -18.96807 -14.27373 -14.27330 -14.23546
 Alpha  occ. eigenvalues --  -14.23372 -14.18725 -10.19181 -10.14405 -10.08209
 Alpha  occ. eigenvalues --  -10.07875  -0.97274  -0.92702  -0.89045  -0.86642
 Alpha  occ. eigenvalues --   -0.78914  -0.75015  -0.68863  -0.62746  -0.54357
 Alpha  occ. eigenvalues --   -0.53500  -0.46410  -0.43768  -0.41564  -0.39629
 Alpha  occ. eigenvalues --   -0.37543  -0.35443  -0.35047  -0.34615  -0.33634
 Alpha  occ. eigenvalues --   -0.30954  -0.28504  -0.28046  -0.25097  -0.21004
 Alpha  occ. eigenvalues --   -0.18661  -0.18510  -0.18013  -0.15202  -0.12518
 Alpha  occ. eigenvalues --   -0.08041   0.05105
 Alpha virt. eigenvalues --    0.07663   0.08441   0.09012   0.11075   0.11209
 Alpha virt. eigenvalues --    0.12742   0.13284   0.13708   0.14652   0.15812
 Alpha virt. eigenvalues --    0.17673   0.17983   0.18580   0.19157   0.20118

  Beta  occ. eigenvalues --  -18.98381 -18.96651 -14.27291 -14.27262 -14.23504
  Beta  occ. eigenvalues --  -14.23354 -14.18678 -10.19193 -10.14221 -10.08182
  Beta  occ. eigenvalues --  -10.07631  -0.97175  -0.92483  -0.88918  -0.86483
  Beta  occ. eigenvalues --   -0.78794  -0.74917  -0.68676  -0.62477  -0.54033
  Beta  occ. eigenvalues --   -0.53395  -0.46197  -0.43663  -0.41408  -0.39531
  Beta  occ. eigenvalues --   -0.37479  -0.35212  -0.34805  -0.34430  -0.33478
  Beta  occ. eigenvalues --   -0.30822  -0.28294  -0.27580  -0.24577  -0.20494
  Beta  occ. eigenvalues --   -0.18513  -0.18403  -0.17955  -0.15064  -0.12087
  Beta  occ. eigenvalues --   -0.07309
  Beta virt. eigenvalues --    0.07950   0.09029   0.09329   0.10099   0.11687
  Beta virt. eigenvalues --    0.11807   0.12895   0.13496   0.13980   0.14849
  Beta virt. eigenvalues --    0.15778   0.17666   0.18148   0.18633   0.19532

 Mulliken charges and spin densities:
               1          2
     1  C   -1.423293   1.700570
     2  C    1.183984  -1.470615
     3  C    0.963380  -0.776657
     4  O   -0.453278   0.050132
     5  N   -0.242378   0.134800
     6  C    0.590057  -0.359925
     7  O   -0.452143   0.030470
     8  N   -0.412128   0.103586
     9  N    0.037068  -0.246665
    10  N   -0.113100  -0.181348
    11  N   -0.397201   0.006895
    12  H   -0.417595   0.602084
    13  H   -0.210174   0.473804
    14  H    0.050165   0.198501
    15  H    0.273386  -0.005606
    16  H    0.227144   0.029272
    17  H    0.207157   0.050797
    18  H   -0.411048   0.659907
 Sum of Mulliken charges =  -1.00000   1.00000

 Dipole moment (field-independent basis, Debye):
    X=             -1.3475    Y=              4.1116    Z=              0.9130  Tot=              4.4221
 Quadrupole moment (field-independent basis, Debye-Ang):
   XX=           -109.1525   YY=           -101.4713   ZZ=            -79.3749
   XY=              4.4000   XZ=             -2.3159   YZ=            -10.1918

 Summary of Natural Population Analysis:

                                       Natural Population
                Natural  -----------------------------------------------
    Atom  No    Charge         Core      Valence    Rydberg      Total
 -----------------------------------------------------------------------
      C    1    0.04340      0.99949     1.94436    0.01275     2.95660
      C    2    0.01835      0.99948     1.96954    0.01263     2.98165
      C    3    0.33385      0.99960     1.64451    0.02203     2.66615
      O    4   -0.33062      0.99988     3.32466    0.00608     4.33062
      N    5   -0.15128      0.99960     2.64144    0.01025     3.65128
      C    6    0.38865      0.99965     1.58868    0.02302     2.61135
      O    7   -0.34969      0.99988     3.34341    0.00640     4.34969
      N    8   -0.14248      0.99962     2.63130    0.01156     3.64248
      N    9   -0.30694      0.99978     2.79537    0.01180     3.80694
      N   10   -0.30989      0.99976     2.79783    0.01230     3.80989
      N   11   -0.40651      0.99972     2.89473    0.01205     3.90651
      H   12    0.10569      0.00000     0.39306    0.00124     0.39431
      H   13    0.18207      0.00000     0.31322    0.00471     0.31793
      H   14    0.17514      0.00000     0.32306    0.00180     0.32486
      H   15    0.18797      0.00000     0.31012    0.00192     0.31203
      H   16    0.18118      0.00000     0.31696    0.00186     0.31882
      H   17    0.19323      0.00000     0.30489    0.00189     0.30677
      H   18    0.18788      0.00000     0.30348    0.00864     0.31212
 =======================================================================
   * Total *   -0.00000     10.99646    29.84061    0.16293    41.00000

 Normal termination of Gaussian 16 at Tue Dec  8 20:00:08 2020.
