 Gaussian 16, Revision A.03,

 -----------------------------------------------------------
 # opt freq B3LYP/6-31G(d) empiricaldispersion=gd3bj scf=xqc
 -----------------------------------------------------------

 -------------------------------
 CID_150673923_JID_5732_neutraal
 -------------------------------
 Symbolic Z-matrix:
 Charge =  0 Multiplicity = 1

 SCF Done:  E(RB3LYP) =  -633.234854094     A.U. after   15 cycles
 SCF Done:  E(RB3LYP) =  -633.236877819     A.U. after   13 cycles
 SCF Done:  E(RB3LYP) =  -633.236912473     A.U. after   13 cycles
 SCF Done:  E(RB3LYP) =  -633.237114255     A.U. after   13 cycles
 SCF Done:  E(RB3LYP) =  -633.237363338     A.U. after   11 cycles
 SCF Done:  E(RB3LYP) =  -633.237413140     A.U. after   11 cycles
 SCF Done:  E(RB3LYP) =  -633.237433957     A.U. after   11 cycles
 SCF Done:  E(RB3LYP) =  -633.237458796     A.U. after   11 cycles
 SCF Done:  E(RB3LYP) =  -633.237475231     A.U. after   11 cycles
 SCF Done:  E(RB3LYP) =  -633.237496100     A.U. after   11 cycles
 SCF Done:  E(RB3LYP) =  -633.237665708     A.U. after   12 cycles
 SCF Done:  E(RB3LYP) =  -633.237668541     A.U. after    9 cycles
 SCF Done:  E(RB3LYP) =  -633.237672531     A.U. after   10 cycles
 SCF Done:  E(RB3LYP) =  -633.237673080     A.U. after    9 cycles
 SCF Done:  E(RB3LYP) =  -633.237673157     A.U. after    7 cycles
 Optimization completed.
    -- Stationary point found.
 Normal termination of Gaussian 16 at Thu Dec 10 16:41:01 2020.

 --------------------------------------------------------------------
 #N Geom=AllCheck Guess=TCheck SCRF=Check GenChk RB3LYP/6-31G(d) Freq
 --------------------------------------------------------------------

 Structure from the checkpoint file:  "JID_5732.chk"
 -------------------------------
 CID_150673923_JID_5732_neutraal
 -------------------------------
 Charge =  0 Multiplicity = 1

 SCF Done:  E(RB3LYP) =  -633.237673157     A.U. after    1 cycles

  Exact polarizability: 158.908   2.418 158.482  -1.182 -14.699  98.746
 Approx polarizability: 221.074  10.402 284.425  -1.100 -29.926 166.808

                      1                      2                      3
                      A                      A                      A
 Frequencies --     25.7080                46.0130                62.0391
 Red. masses --      3.9114                 4.4706                 1.0849
 Frc consts  --      0.0015                 0.0056                 0.0025
 IR Inten    --      0.1102                 0.7456                 0.0634

                      4                      5                      6
                      A                      A                      A
 Frequencies --     68.8957               110.6259               158.5927
 Red. masses --      3.4989                 6.3979                 4.4525
 Frc consts  --      0.0098                 0.0461                 0.0660
 IR Inten    --      0.6160                 4.2546                 0.8631

                      7                      8                      9
                      A                      A                      A
 Frequencies --    190.5783               222.2244               257.1001
 Red. masses --      6.4271                 3.4496                 3.8109
 Frc consts  --      0.1375                 0.1004                 0.1484
 IR Inten    --      6.0102                 1.0982                 3.8754

                     10                     11                     12
                      A                      A                      A
 Frequencies --    295.1310               337.7607               349.7350
 Red. masses --      2.6483                 4.3267                 3.2382
 Frc consts  --      0.1359                 0.2908                 0.2334
 IR Inten    --      6.6102                 0.7435                 8.2808

                     13                     14                     15
                      A                      A                      A
 Frequencies --    399.3130               418.1306               473.3049
 Red. masses --      2.1856                 3.0183                 3.8437
 Frc consts  --      0.2053                 0.3109                 0.5073
 IR Inten    --      0.4717                 0.0667                 0.2141

                     16                     17                     18
                      A                      A                      A
 Frequencies --    496.4401               578.6387               620.2975
 Red. masses --      4.4043                 5.0841                 2.9908
 Frc consts  --      0.6395                 1.0029                 0.6780
 IR Inten    --      3.0942                 4.7282                 6.8371

                     19                     20                     21
                      A                      A                      A
 Frequencies --    630.5213               637.9546               670.1952
 Red. masses --      3.4791                 6.2126                 4.2800
 Frc consts  --      0.8149                 1.4897                 1.1326
 IR Inten    --      6.2287                 0.4377                 6.2240

                     22                     23                     24
                      A                      A                      A
 Frequencies --    719.7732               752.3577               789.4754
 Red. masses --      1.8001                 2.5421                 3.1619
 Frc consts  --      0.5495                 0.8478                 1.1611
 IR Inten    --     30.3529                34.7255                53.5536

                     25                     26                     27
                      A                      A                      A
 Frequencies --    791.1606               820.2803               825.5152
 Red. masses --      1.5768                 2.8775                 1.5788
 Frc consts  --      0.5815                 1.1408                 0.6339
 IR Inten    --     18.1527                 8.2574                11.7075

                     28                     29                     30
                      A                      A                      A
 Frequencies --    840.2706               867.2447               937.8951
 Red. masses --      2.7584                 1.2514                 1.4390
 Frc consts  --      1.1475                 0.5546                 0.7458
 IR Inten    --     11.1508                 0.2858                 2.6526

                     31                     32                     33
                      A                      A                      A
 Frequencies --    974.0925               977.8562              1006.1697
 Red. masses --      1.7631                 1.3735                 1.3126
 Frc consts  --      0.9856                 0.7738                 0.7830
 IR Inten    --      7.1596                 0.3455                 0.8161

                     34                     35                     36
                      A                      A                      A
 Frequencies --   1009.2707              1015.3551              1023.1261
 Red. masses --      1.6255                 1.5737                 5.9198
 Frc consts  --      0.9756                 0.9559                 3.6511
 IR Inten    --      0.1151                 7.8712                 0.1072

                     37                     38                     39
                      A                      A                      A
 Frequencies --   1028.2984              1061.4428              1077.6754
 Red. masses --      3.1540                 2.2388                 1.4493
 Frc consts  --      1.9649                 1.4861                 0.9917
 IR Inten    --     10.2581                 3.1903                 2.5120

                     40                     41                     42
                      A                      A                      A
 Frequencies --   1117.2827              1159.4503              1194.1515
 Red. masses --      1.5981                 1.7351                 1.1834
 Frc consts  --      1.1754                 1.3743                 0.9942
 IR Inten    --      1.7554                38.8611                 0.4101

                     43                     44                     45
                      A                      A                      A
 Frequencies --   1196.7700              1215.0858              1218.7507
 Red. masses --      1.5853                 1.4167                 1.2953
 Frc consts  --      1.3378                 1.2323                 1.1336
 IR Inten    --      2.1630                17.9157                 4.2512

                     46                     47                     48
                      A                      A                      A
 Frequencies --   1237.4575              1284.9855              1363.2898
 Red. masses --      2.9196                 1.9843                 5.6074
 Frc consts  --      2.6341                 1.9304                 6.1403
 IR Inten    --      7.4096                15.7855                 3.5080

                     49                     50                     51
                      A                      A                      A
 Frequencies --   1373.3493              1387.5598              1408.5541
 Red. masses --      1.4215                 1.8208                 1.5271
 Frc consts  --      1.5797                 2.0655                 1.7851
 IR Inten    --      9.7822                53.7388                 5.9073

                     52                     53                     54
                      A                      A                      A
 Frequencies --   1418.4525              1443.0344              1458.2970
 Red. masses --      2.1440                 1.6199                 2.0272
 Frc consts  --      2.5415                 1.9874                 2.5401
 IR Inten    --     38.1083                47.0981                11.5343

                     55                     56                     57
                      A                      A                      A
 Frequencies --   1469.3943              1505.1511              1509.3810
 Red. masses --      3.4648                 1.5073                 1.8209
 Frc consts  --      4.4077                 2.0120                 2.4441
 IR Inten    --     48.1890                11.7566                20.9952

                     58                     59                     60
                      A                      A                      A
 Frequencies --   1515.2929              1526.8998              1536.7982
 Red. masses --      1.0432                 1.7784                 1.4032
 Frc consts  --      1.4113                 2.4428                 1.9525
 IR Inten    --      5.0620                63.2375                10.9498

                     61                     62                     63
                      A                      A                      A
 Frequencies --   1549.9061              1624.0083              1649.4164
 Red. masses --      2.2096                 4.7836                 5.5604
 Frc consts  --      3.1273                 7.4333                 8.9128
 IR Inten    --     17.7041                 2.3342                 2.6980

                     64                     65                     66
                      A                      A                      A
 Frequencies --   1668.8129              1750.4160              2929.4177
 Red. masses --      5.5301                 8.2292                 1.0833
 Frc consts  --      9.0740                14.8555                 5.4774
 IR Inten    --      3.0141               382.0821               137.0091

                     67                     68                     69
                      A                      A                      A
 Frequencies --   3044.0939              3086.2703              3095.2855
 Red. masses --      1.0369                 1.0685                 1.1015
 Frc consts  --      5.6612                 5.9967                 6.2176
 IR Inten    --     48.8163                27.1076                21.9625

                     70                     71                     72
                      A                      A                      A
 Frequencies --   3120.5059              3170.6893              3179.0075
 Red. masses --      1.1009                 1.0873                 1.0975
 Frc consts  --      6.3164                 6.4403                 6.5350
 IR Inten    --     18.0491                11.0086                 1.5720

                     73                     74                     75
                      A                      A                      A
 Frequencies --   3185.4600              3196.3312              3208.2898
 Red. masses --      1.0868                 1.0915                 1.0959
 Frc consts  --      6.4975                 6.5702                 6.6460
 IR Inten    --      2.1320                27.7630                22.4005

                     76                     77                     78
                      A                      A                      A
 Frequencies --   3218.9064              3246.1907              3259.0802
 Red. masses --      1.0947                 1.0953                 1.0961
 Frc consts  --      6.6826                 6.8005                 6.8598
 IR Inten    --      9.2480                 3.3366                 1.0959

 - Thermochemistry -
 -------------------
 Temperature   298.150 Kelvin.  Pressure   1.00000 Atm.
 Atom     1 has atomic number  6 and mass  12.00000

 Molecular mass:   199.09971 amu.
 Principal axes and moments of inertia in atomic units:
                           1         2         3
     Eigenvalues --  1945.109344274.167365438.83542
           X            0.99982   0.01870   0.00402
           Y           -0.01866   0.99977  -0.01014
           Z           -0.00421   0.01007   0.99994
 This molecule is an asymmetric top.
 Rotational symmetry number  1.
 Warning -- assumption of classical behavior for rotation
           may cause significant error
 Rotational temperatures (Kelvin)      0.04453     0.02026     0.01593
 Rotational constants (GHZ):           0.92784     0.42224     0.33182
 Zero-point vibrational energy     605836.4 (Joules/Mol)
                                  144.79837 (Kcal/Mol)
 Warning -- explicit consideration of  18 degrees of freedom as
           vibrations may cause significant error
 Vibrational temperatures:     36.99    66.20    89.26    99.13   159.17
          (Kelvin)            228.18   274.20   319.73   369.91   424.63
                              485.96   503.19   574.52   601.60   680.98
                              714.27   832.53   892.47   907.18   917.87
                              964.26  1035.59  1082.47  1135.88  1138.30
                             1180.20  1187.73  1208.96  1247.77  1349.42
                             1401.50  1406.92  1447.65  1452.12  1460.87
                             1472.05  1479.49  1527.18  1550.53  1607.52
                             1668.19  1718.12  1721.89  1748.24  1753.51
                             1780.43  1848.81  1961.47  1975.94  1996.39
                             2026.60  2040.84  2076.20  2098.16  2114.13
                             2165.58  2171.66  2180.17  2196.87  2211.11
                             2229.97  2336.59  2373.14  2401.05  2518.46
                             4214.78  4379.77  4440.45  4453.43  4489.71
                             4561.91  4573.88  4583.17  4598.81  4616.01
                             4631.29  4670.54  4689.09

 Zero-point correction=                           0.230751 (Hartree/Particle)
 Thermal correction to Energy=                    0.244026
 Thermal correction to Enthalpy=                  0.244970
 Thermal correction to Gibbs Free Energy=         0.189103
 Sum of electronic and zero-point Energies=           -633.006922
 Sum of electronic and thermal Energies=              -632.993647
 Sum of electronic and thermal Enthalpies=            -632.992703
 Sum of electronic and thermal Free Energies=         -633.048570

                     E (Thermal)             CV                S
                      KCal/Mol        Cal/Mol-Kelvin    Cal/Mol-Kelvin
 Total                  153.129             50.232            117.584
 Electronic               0.000              0.000              0.000
 Translational            0.889              2.981             41.771
 Rotational               0.889              2.981             32.181
 Vibrational            151.351             44.270             43.632
 Vibration     1          0.593              1.985              6.136
 Vibration     2          0.595              1.979              4.982
 Vibration     3          0.597              1.972              4.391
 Vibration     4          0.598              1.969              4.185
 Vibration     5          0.606              1.941              3.258
 Vibration     6          0.621              1.893              2.567
 Vibration     7          0.634              1.853              2.222
 Vibration     8          0.648              1.807              1.941
 Vibration     9          0.667              1.751              1.681
 Vibration    10          0.689              1.683              1.444
 Vibration    11          0.718              1.600              1.223
 Vibration    12          0.727              1.576              1.167
 Vibration    13          0.765              1.472              0.965
 Vibration    14          0.781              1.431              0.898
 Vibration    15          0.830              1.309              0.728
 Vibration    16          0.852              1.258              0.667
 Vibration    17          0.935              1.077              0.488
 Vibration    18          0.980              0.989              0.416

 Optimization completed.
    -- Stationary point found.
 Normal termination of Gaussian 16 at Thu Dec 10 16:49:44 2020.

 ----------------------------------------------------------------------
 # B3LYP/6-311++G(d,p) empiricaldispersion=gd3bj scf=xqc pop=npa geom=c
 heck
 ----------------------------------------------------------------------

 ---------------------------------------
 CID_150673923_JID_5732_Energie_neutraal
 ---------------------------------------
 Structure from the checkpoint file:  "JID_5732.chk"
 Charge =  0 Multiplicity = 1

 SCF Done:  E(RB3LYP) =  -633.404951935     A.U. after   16 cycles
 Normal termination of Gaussian 16 at Thu Dec 10 16:54:49 2020.

 ----------------------------------------------------------------------
 # B3LYP/6-311++G(d,p) empiricaldispersion=gd3bj scf=xqc pop=npa geom=c
 heck
 ----------------------------------------------------------------------

 -------------------------------------
 CID_150673923_JID_5732_Energie_kation
 -------------------------------------
 Structure from the checkpoint file:  "JID_5732.chk"
 Charge =  1 Multiplicity = 2

 SCF Done:  E(UB3LYP) =  -633.105692035     A.U. after   32 cycles
 Normal termination of Gaussian 16 at Thu Dec 10 17:10:17 2020.
 Gaussian 16:  ES64L-G16RevA.03 25-Dec-2016

 ----------------------------------------------------------------------
 # B3LYP/6-311++G(d,p) empiricaldispersion=gd3bj scf=xqc pop=npa geom=c
 heck
 ----------------------------------------------------------------------

 ------------------------------------
 CID_150673923_JID_5732_Energie_anion
 ------------------------------------
 Structure from the checkpoint file:  "JID_5732.chk"
 Charge = -1 Multiplicity = 2

                         Standard orientation:
 ---------------------------------------------------------------------
 Center     Atomic      Atomic             Coordinates (Angstroms)
 Number     Number       Type             X           Y           Z
 ---------------------------------------------------------------------
      1          6           0       -3.564999   -2.240154   -0.660709
      2          6           0       -2.660221   -1.103536   -0.285684
      3          6           0       -1.554992   -1.173114    0.558566
      4          7           0       -0.984927    0.057055    0.681107
      5          6           0       -1.701836    0.954104   -0.099022
      6          6           0       -2.747304    0.243202   -0.695128
      7          6           0       -1.427796    2.361751   -0.247488
      8          8           0       -0.505540    2.998248    0.256361
      9          6           0        0.254826    0.324726    1.424749
     10          6           0        1.489445   -0.026211    0.623077
     11          6           0        2.109651   -1.268690    0.784201
     12          6           0        3.225194   -1.610161    0.019007
     13          6           0        3.729869   -0.706329   -0.916180
     14          6           0        3.117548    0.538251   -1.078777
     15          6           0        2.003415    0.878897   -0.313277
     16          1           0       -4.596333   -2.062595   -0.332220
     17          1           0       -3.229982   -3.177432   -0.204791
     18          1           0       -3.592256   -2.391796   -1.746435
     19          1           0       -1.137769   -2.024932    1.078691
     20          1           0       -3.493181    0.675286   -1.350523
     21          1           0       -2.166241    2.872160   -0.901602
     22          1           0        0.247145    1.381408    1.686394
     23          1           0        0.212540   -0.270097    2.342171
     24          1           0        1.720474   -1.972256    1.517200
     25          1           0        3.700463   -2.577592    0.155558
     26          1           0        4.599479   -0.968371   -1.512401
     27          1           0        3.511861    1.247700   -1.801063
     28          1           0        1.525813    1.846724   -0.429625
 ---------------------------------------------------------------------

 SCF Done:  E(UB3LYP) =  -633.406543792     A.U. after   33 cycles
 SCF Done:  E(UB3LYP) =  -633.406543792     a.u. after    1 cycles

 The electronic state is 2-A.
 Alpha  occ. eigenvalues --  -18.92975 -14.21720 -10.08304 -10.06944 -10.06791
 Alpha  occ. eigenvalues --  -10.06596 -10.06467 -10.06379 -10.06229 -10.05682
 Alpha  occ. eigenvalues --  -10.05493 -10.05092 -10.04685 -10.03481 -10.01579
 Alpha  occ. eigenvalues --   -0.86788  -0.84420  -0.74765  -0.68760  -0.64619
 Alpha  occ. eigenvalues --   -0.63627  -0.61526  -0.58442  -0.54298  -0.49768
 Alpha  occ. eigenvalues --   -0.48484  -0.47594  -0.43387  -0.41111  -0.38709
 Alpha  occ. eigenvalues --   -0.36777  -0.35233  -0.34629  -0.32171  -0.31320
 Alpha  occ. eigenvalues --   -0.31300  -0.30310  -0.29335  -0.28502  -0.27935
 Alpha  occ. eigenvalues --   -0.27257  -0.26334  -0.25354  -0.24411  -0.23712
 Alpha  occ. eigenvalues --   -0.22949  -0.22567  -0.21195  -0.14672  -0.14288
 Alpha  occ. eigenvalues --   -0.10809  -0.09343  -0.08625   0.04893
 Alpha virt. eigenvalues --    0.07033   0.07961   0.08439   0.09187   0.09408
 Alpha virt. eigenvalues --    0.09569   0.10338   0.10774   0.11521   0.11684
 Alpha virt. eigenvalues --    0.12364   0.13063   0.14093   0.14462   0.15287

  Beta  occ. eigenvalues --  -18.92496 -14.21543 -10.08308 -10.06794 -10.06603
  Beta  occ. eigenvalues --  -10.06556 -10.06453 -10.06317 -10.06204 -10.05675
  Beta  occ. eigenvalues --  -10.05495 -10.04901 -10.04719 -10.03577 -10.01357
  Beta  occ. eigenvalues --   -0.86035  -0.84004  -0.74694  -0.68625  -0.64541
  Beta  occ. eigenvalues --   -0.63585  -0.61280  -0.58169  -0.54120  -0.49702
  Beta  occ. eigenvalues --   -0.47945  -0.47201  -0.43226  -0.41040  -0.38595
  Beta  occ. eigenvalues --   -0.36449  -0.35129  -0.34531  -0.31933  -0.31286
  Beta  occ. eigenvalues --   -0.31154  -0.30319  -0.29142  -0.28396  -0.27710
  Beta  occ. eigenvalues --   -0.26956  -0.25866  -0.25218  -0.24196  -0.23192
  Beta  occ. eigenvalues --   -0.22796  -0.22312  -0.19421  -0.14545  -0.14016
  Beta  occ. eigenvalues --   -0.09894  -0.08907  -0.07421
  Beta virt. eigenvalues --    0.07100   0.07965   0.08603   0.09142   0.09458
  Beta virt. eigenvalues --    0.09828   0.10290   0.10858   0.11309   0.11525
  Beta virt. eigenvalues --    0.11679   0.12380   0.13170   0.14069   0.14479

 Mulliken charges and spin densities:
               1          2
     1  C   -0.386183  -0.034380
     2  C    0.246136  -0.064156
     3  C   -0.592936   0.102264
     4  N    0.387019   0.028672
     5  C    0.361113  -0.108125
     6  C   -0.195343   0.347945
     7  C   -0.679605   0.143591
     8  O   -0.392260   0.151917
     9  C   -0.430829  -0.444232
    10  C    0.974644   0.275603
    11  C    0.224973  -0.242618
    12  C   -0.077114  -0.296620
    13  C    0.011440  -0.283839
    14  C   -0.303939   0.081505
    15  C   -0.815549   0.242668
    16  H    0.129087  -0.005116
    17  H    0.097962   0.033741
    18  H    0.110322   0.014176
    19  H    0.024245   0.081565
    20  H    0.112935  -0.004436
    21  H    0.040218  -0.023233
    22  H    0.287017  -0.054692
    23  H   -0.272256   0.444962
    24  H   -0.122785   0.262150
    25  H   -0.091466   0.242053
    26  H    0.070386   0.047564
    27  H    0.118143   0.036386
    28  H    0.164628   0.024684
 Sum of Mulliken charges =  -1.00000   1.00000

 Dipole moment (field-independent basis, Debye):
    X=              1.0194    Y=             -2.9129    Z=             -1.7745  Tot=              3.5599
 Quadrupole moment (field-independent basis, Debye-Ang):
   XX=           -121.9011   YY=           -123.5696   ZZ=           -106.0750
   XY=              4.5122   XZ=             -0.4794   YZ=              0.3120

 Summary of Natural Population Analysis:

                                       Natural Population
                Natural  -----------------------------------------------
    Atom  No    Charge         Core      Valence    Rydberg      Total
 -----------------------------------------------------------------------
      C    1   -0.28585      0.99964     2.28136    0.00485     3.28585
      C    2   -0.08956      0.99953     2.08137    0.00866     3.08956
      C    3    0.03492      0.99952     1.95421    0.01134     2.96508
      N    4   -0.17067      0.99961     2.66162    0.00944     3.67067
      C    5    0.01338      0.99950     1.97303    0.01409     2.98662
      C    6   -0.07883      0.99949     2.07170    0.00765     3.07883
      C    7    0.23131      0.99966     1.75006    0.01898     2.76869
      O    8   -0.27311      0.99989     3.26617    0.00706     4.27311
      C    9   -0.09482      0.99957     2.08313    0.01212     3.09482
      C   10   -0.00848      0.99950     1.99952    0.00947     3.00848
      C   11   -0.09809      0.99951     2.08849    0.01008     3.09809
      C   12   -0.10911      0.99957     2.09894    0.01059     3.10911
      C   13   -0.10471      0.99957     2.09575    0.00939     3.10471
      C   14   -0.10253      0.99957     2.09301    0.00994     3.10253
      C   15   -0.09561      0.99951     2.08762    0.00847     3.09561
      H   16    0.09385      0.00000     0.40475    0.00140     0.40615
      H   17    0.09767      0.00000     0.40149    0.00084     0.40233
      H   18    0.09460      0.00000     0.40411    0.00128     0.40540
      H   19    0.09154      0.00000     0.40741    0.00105     0.40846
      H   20    0.09331      0.00000     0.40580    0.00089     0.40669
      H   21    0.03501      0.00000     0.46204    0.00295     0.46499
      H   22    0.12375      0.00000     0.37476    0.00150     0.37625
      H   23    0.09567      0.00000     0.40247    0.00186     0.40433
      H   24    0.09905      0.00000     0.39969    0.00126     0.40095
      H   25    0.09681      0.00000     0.40230    0.00089     0.40319
      H   26    0.09496      0.00000     0.40423    0.00080     0.40504
      H   27    0.09613      0.00000     0.40289    0.00098     0.40387
      H   28    0.11940      0.00000     0.37923    0.00137     0.38060
 =======================================================================
   * Total *   -0.00000     14.99364    37.83715    0.16922    53.00000

 Normal termination of Gaussian 16 at Thu Dec 10 17:23:24 2020.
