 Gaussian 16, Revision A.03,

 -----------------------------------------------------------
 # opt freq B3LYP/6-31G(d) empiricaldispersion=gd3bj scf=xqc
 -----------------------------------------------------------

 ------------------------------
 CID_147853953_JID_180_neutraal
 ------------------------------
 Symbolic Z-matrix:
 Charge =  0 Multiplicity = 1

 SCF Done:  E(RB3LYP) =  -423.977596755     A.U. after   13 cycles
 SCF Done:  E(RB3LYP) =  -423.979289926     A.U. after   10 cycles
 SCF Done:  E(RB3LYP) =  -423.979502036     A.U. after    9 cycles
 SCF Done:  E(RB3LYP) =  -423.979538004     A.U. after    9 cycles
 SCF Done:  E(RB3LYP) =  -423.979545318     A.U. after    8 cycles
 SCF Done:  E(RB3LYP) =  -423.979546113     A.U. after    7 cycles
 Optimization completed.
    -- Stationary point found.

 1\1\GINC-NODE202\FOpt\RB3LYP\6-31G(d)\C8H16N2\VSC10255\08-Dec-2020\0\\
 # opt freq B3LYP/6-31G(d) empiricaldispersion=gd3bj scf=xqc\\CID_14785
 3953_JID_180_neutraal\\0,1\C,-2.3665521291,0.0092643341,-0.1272798601\
 N,-0.9408070972,0.2059891882,0.0677542375\C,-0.1671300766,-0.863766979
 9,-0.5635473166\C,1.3222706121,-0.7118178765,-0.2515736885\C,1.8515675
 45,0.6607217383,-0.6838663561\C,0.9600429466,1.7630678642,-0.099968045
 7\C,-0.5159579816,1.5195645437,-0.4175484571\N,1.8411541685,0.74887672
 72,-2.1480826396\C,2.7955826255,1.6794286209,-2.7391419224\C,3.0109876

 Normal termination of Gaussian 16 at Tue Dec  8 10:17:37 2020.

 --------------------------------------------------------------------
 #N Geom=AllCheck Guess=TCheck SCRF=Check GenChk RB3LYP/6-31G(d) Freq
 --------------------------------------------------------------------

 Structure from the checkpoint file:  "JID_180.chk"
 ------------------------------
 CID_147853953_JID_180_neutraal
 ------------------------------
 Charge =  0 Multiplicity = 1

 SCF Done:  E(RB3LYP) =  -423.979546113     A.U. after    1 cycles

  Exact polarizability: 106.354  -0.000  92.825   0.499  -0.000  84.031
 Approx polarizability: 130.218  -0.000 132.831   2.354  -0.000 126.438

                      1                      2                      3
                      A                      A                      A
 Frequencies --     82.5092                91.2029               170.0547
 Red. masses --      3.3583                 2.9730                 2.1330
 Frc consts  --      0.0135                 0.0146                 0.0363
 IR Inten    --      1.0396                 1.0121                 0.7657

                      4                      5                      6
                      A                      A                      A
 Frequencies --    205.2054               254.4756               278.8507
 Red. masses --      3.1488                 1.1838                 1.8435
 Frc consts  --      0.0781                 0.0452                 0.0845
 IR Inten    --      0.6919                 0.1840                 0.2722

                      7                      8                      9
                      A                      A                      A
 Frequencies --    304.1485               347.3845               367.4838
 Red. masses --      3.2694                 2.0998                 2.1119
 Frc consts  --      0.1782                 0.1493                 0.1680
 IR Inten    --      0.9740                 5.3046                 0.2358

                     10                     11                     12
                      A                      A                      A
 Frequencies --    406.3287               451.2837               510.9189
 Red. masses --      1.8682                 2.5314                 3.3465
 Frc consts  --      0.1817                 0.3037                 0.5147
 IR Inten    --      2.6721                 0.0051                 0.1872

                     13                     14                     15
                      A                      A                      A
 Frequencies --    539.7416               646.5634               775.9200
 Red. masses --      3.2696                 2.4587                 1.6985
 Frc consts  --      0.5612                 0.6056                 0.6025
 IR Inten    --      1.7323                 5.2397                 7.4160

                     16                     17                     18
                      A                      A                      A
 Frequencies --    794.0872               826.2665               863.7881
 Red. masses --      2.2481                 1.5423                 1.5824
 Frc consts  --      0.8352                 0.6204                 0.6956
 IR Inten    --      9.2029                 0.7247                 1.6457

                     19                     20                     21
                      A                      A                      A
 Frequencies --    890.5499               914.8002               925.1788
 Red. masses --      2.8071                 3.1796                 3.5824
 Frc consts  --      1.3117                 1.5678                 1.8067
 IR Inten    --      9.9925                 0.2068                 0.0668

                     22                     23                     24
                      A                      A                      A
 Frequencies --    999.9976              1016.6124              1034.3769
 Red. masses --      2.2192                 2.3201                 1.3263
 Frc consts  --      1.3075                 1.4128                 0.8361
 IR Inten    --     25.8676                 5.9897                 0.2768

                     25                     26                     27
                      A                      A                      A
 Frequencies --   1038.3291              1071.7983              1075.6523
 Red. masses --      1.2171                 2.1682                 1.7509
 Frc consts  --      0.7731                 1.4675                 1.1936
 IR Inten    --      0.7780                27.4332                15.4837

                     28                     29                     30
                      A                      A                      A
 Frequencies --   1115.2484              1116.7623              1118.7044
 Red. masses --      1.5357                 1.3216                 1.4640
 Frc consts  --      1.1254                 0.9711                 1.0795
 IR Inten    --      4.1153                 1.1113                 2.7221

                     31                     32                     33
                      A                      A                      A
 Frequencies --   1138.3116              1163.7259              1182.9208
 Red. masses --      1.5127                 1.4463                 1.3934
 Frc consts  --      1.1548                 1.1540                 1.1488
 IR Inten    --      0.6442                17.4583                 0.0828

                     34                     35                     36
                      A                      A                      A
 Frequencies --   1183.3346              1187.1968              1213.8400
 Red. masses --      2.3283                 1.5422                 2.1694
 Frc consts  --      1.9209                 1.2806                 1.8833
 IR Inten    --     24.4113                 0.7192                12.8331

                     37                     38                     39
                      A                      A                      A
 Frequencies --   1234.6940              1287.1554              1320.2865
 Red. masses --      1.1594                 1.4824                 2.4302
 Frc consts  --      1.0414                 1.4471                 2.4959
 IR Inten    --      1.8359                 9.7197                28.7617

                     40                     41                     42
                      A                      A                      A
 Frequencies --   1331.8091              1348.8599              1369.5397
 Red. masses --      2.2240                 1.3600                 1.4864
 Frc consts  --      2.3242                 1.4579                 1.6426
 IR Inten    --     15.9622                18.1336                 1.1361

                     43                     44                     45
                      A                      A                      A
 Frequencies --   1383.7397              1396.4350              1411.9426
 Red. masses --      1.3481                 1.5125                 1.4397
 Frc consts  --      1.5208                 1.7378                 1.6911
 IR Inten    --      0.4669                66.0151                20.6160

                     46                     47                     48
                      A                      A                      A
 Frequencies --   1417.5302              1443.8212              1484.7968
 Red. masses --      1.4383                 1.4416                 1.2035
 Frc consts  --      1.7028                 1.7706                 1.5633
 IR Inten    --      4.0500                 7.3349                 1.3330

                     49                     50                     51
                      A                      A                      A
 Frequencies --   1498.3598              1512.0668              1515.9958
 Red. masses --      1.0947                 1.0967                 1.0507
 Frc consts  --      1.4481                 1.4774                 1.4228
 IR Inten    --      4.5780                 6.2330                18.1879

                     52                     53                     54
                      A                      A                      A
 Frequencies --   1516.3362              1519.5509              1537.7800
 Red. masses --      1.0791                 1.0826                 1.0519
 Frc consts  --      1.4619                 1.4728                 1.4656
 IR Inten    --      0.3607                 0.3930                 2.3603

                     55                     56                     57
                      A                      A                      A
 Frequencies --   1543.3379              1547.9408              2925.1191
 Red. masses --      1.1205                 1.2489                 1.0825
 Frc consts  --      1.5724                 1.7631                 5.4573
 IR Inten    --      7.0717                 8.1959                78.2975

                     58                     59                     60
                      A                      A                      A
 Frequencies --   2930.6116              2948.7898              2956.1809
 Red. masses --      1.0622                 1.0723                 1.0711
 Frc consts  --      5.3751                 5.4935                 5.5150
 IR Inten    --     55.8047                23.5450               112.5249

                     61                     62                     63
                      A                      A                      A
 Frequencies --   3049.7839              3053.3692              3068.3301
 Red. masses --      1.0617                 1.0642                 1.0864
 Frc consts  --      5.8184                 5.8458                 6.0261
 IR Inten    --     11.0641                35.5151                81.5285

                     64                     65                     66
                      A                      A                      A
 Frequencies --   3068.9417              3074.0831              3093.3504
 Red. masses --      1.0772                 1.0782                 1.1040
 Frc consts  --      5.9776                 6.0029                 6.2242
 IR Inten    --      5.7045                71.1939                 7.0613

                     67                     68                     69
                      A                      A                      A
 Frequencies --   3096.5131              3104.5979              3108.7104
 Red. masses --      1.1043                 1.0508                 1.0588
 Frc consts  --      6.2386                 5.9673                 6.0287
 IR Inten    --     63.7301                30.6697                29.8950

                     70                     71                     72
                      A                      A                      A
 Frequencies --   3114.9182              3188.4698              3201.4315
 Red. masses --      1.1039                 1.1162                 1.1165
 Frc consts  --      6.3104                 6.6859                 6.7419
 IR Inten    --     37.7706                 3.0082                41.1906

 - Thermochemistry -
 -------------------
 Temperature   298.150 Kelvin.  Pressure   1.00000 Atm.
 Atom     1 has atomic number  6 and mass  12.00000

 Molecular mass:   140.13135 amu.
 Principal axes and moments of inertia in atomic units:
                           1         2         3
     Eigenvalues --   661.897182124.285102310.78017
           X            0.99991   0.00000  -0.01349
           Y           -0.00000   1.00000  -0.00000
           Z            0.01349   0.00000   0.99991
 This molecule is an asymmetric top.
 Rotational symmetry number  1.
 Warning -- assumption of classical behavior for rotation
           may cause significant error
 Rotational temperatures (Kelvin)      0.13086     0.04077     0.03748
 Rotational constants (GHZ):           2.72662     0.84958     0.78101
 Zero-point vibrational energy     627493.6 (Joules/Mol)
                                  149.97456 (Kcal/Mol)
 Warning -- explicit consideration of  13 degrees of freedom as
           vibrations may cause significant error
 Vibrational temperatures:    118.71   131.22   244.67   295.24   366.13
          (Kelvin)            401.20   437.60   499.81   528.73   584.62
                              649.30   735.10   776.57   930.26  1116.38
                             1142.51  1188.81  1242.80  1281.30  1316.19
                             1331.13  1438.77  1462.68  1488.24  1493.92
                             1542.08  1547.62  1604.59  1606.77  1609.57
                             1637.78  1674.34  1701.96  1702.55  1708.11
                             1746.44  1776.45  1851.93  1899.60  1916.18
                             1940.71  1970.46  1990.89  2009.16  2031.47
                             2039.51  2077.34  2136.29  2155.81  2175.53
                             2181.18  2181.67  2186.29  2212.52  2220.52
                             2227.14  4208.59  4216.50  4242.65  4253.29
                             4387.96  4393.12  4414.64  4415.52  4422.92
                             4450.64  4455.19  4466.82  4472.74  4481.67
                             4587.50  4606.15

 Zero-point correction=                           0.239000 (Hartree/Particle)
 Thermal correction to Energy=                    0.248644
 Thermal correction to Enthalpy=                  0.249588
 Thermal correction to Gibbs Free Energy=         0.204479
 Sum of electronic and zero-point Energies=           -423.740546
 Sum of electronic and thermal Energies=              -423.730902
 Sum of electronic and thermal Enthalpies=            -423.729958
 Sum of electronic and thermal Free Energies=         -423.775067

                     E (Thermal)             CV                S
                      KCal/Mol        Cal/Mol-Kelvin    Cal/Mol-Kelvin
 Total                  156.027             38.088             94.941
 Electronic               0.000              0.000              0.000
 Translational            0.889              2.981             40.724
 Rotational               0.889              2.981             29.564
 Vibrational            154.249             32.127             24.653
 Vibration     1          0.600              1.961              3.830
 Vibration     2          0.602              1.955              3.634
 Vibration     3          0.625              1.879              2.435
 Vibration     4          0.640              1.832              2.086
 Vibration     5          0.665              1.755              1.699
 Vibration     6          0.679              1.713              1.541
 Vibration     7          0.695              1.666              1.394
 Vibration     8          0.725              1.581              1.178
 Vibration     9          0.740              1.539              1.090
 Vibration    10          0.771              1.456              0.940
 Vibration    11          0.810              1.358              0.792
 Vibration    12          0.866              1.226              0.631
 Vibration    13          0.895              1.162              0.566

                           ! Non-Optimized Parameters !

 1\1\GINC-NODE202\Freq\RB3LYP\6-31G(d)\C8H16N2\VSC10255\08-Dec-2020\0\\
 #N Geom=AllCheck Guess=TCheck SCRF=Check GenChk RB3LYP/6-31G(d) Freq\\
 CID_147853953_JID_180_neutraal\\0,1\C,-2.3665521291,0.0092643341,-0.12
 72798601\N,-0.9408070972,0.2059891882,0.0677542375\C,-0.1671300766,-0.
 8637669799,-0.5635473166\C,1.3222706121,-0.7118178765,-0.2515736885\C,
 1.851567545,0.6607217383,-0.6838663561\C,0.9600429466,1.7630678642,-0.
 0999680457\C,-0.5159579816,1.5195645437,-0.4175484571\N,1.8411541685,0
 .7488767272,-2.1480826396\C,2.7955826255,1.6794286209,-2.7391419224\C,

 Normal termination of Gaussian 16 at Tue Dec  8 10:22:40 2020.

 ----------------------------------------------------------------------
 # B3LYP/6-311++G(d,p) empiricaldispersion=gd3bj scf=xqc pop=npa geom=c
 heck
 ----------------------------------------------------------------------

 --------------------------------------
 CID_147853953_JID_180_Energie_neutraal
 --------------------------------------
 Structure from the checkpoint file:  "JID_180.chk"
 Charge =  0 Multiplicity = 1

 SCF Done:  E(RB3LYP) =  -424.095083348     A.U. after   13 cycles
 Normal termination of Gaussian 16 at Tue Dec  8 10:24:45 2020.

 ----------------------------------------------------------------------
 # B3LYP/6-311++G(d,p) empiricaldispersion=gd3bj scf=xqc pop=npa geom=c
 heck
 ----------------------------------------------------------------------

 ------------------------------------
 CID_147853953_JID_180_Energie_kation
 ------------------------------------
 Structure from the checkpoint file:  "JID_180.chk"
 Charge =  1 Multiplicity = 2

 SCF Done:  E(UB3LYP) =  -423.811685320     A.U. after   18 cycles
 Normal termination of Gaussian 16 at Tue Dec  8 10:28:39 2020.
 Gaussian 16:  ES64L-G16RevA.03 25-Dec-2016

 -----------------------------------
 CID_147853953_JID_180_Energie_anion
 -----------------------------------
 Structure from the checkpoint file:  "JID_180.chk"
 Charge = -1 Multiplicity = 2

                         Standard orientation:
 ---------------------------------------------------------------------
 Center     Atomic      Atomic             Coordinates (Angstroms)
 Number     Number       Type             X           Y           Z
 ---------------------------------------------------------------------
      1          6           0        3.174611    0.000059   -0.746647
      2          7           0        2.000201    0.000008    0.107899
      3          6           0        1.197357    1.206575   -0.094916
      4          6           0        0.030094    1.252869    0.892042
      5          6           0       -0.847360   -0.000059    0.786476
      6          6           0        0.030135   -1.252975    0.891945
      7          6           0        1.197397   -1.206569   -0.095008
      8          7           0       -1.545187   -0.000005   -0.503813
      9          6           0       -2.797477   -0.745354   -0.553175
     10          6           0       -2.797430    0.745435   -0.553184
     11          1           0        2.927866    0.000094   -1.827312
     12          1           0        3.783089    0.887418   -0.539343
     13          1           0        3.783118   -0.887296   -0.539409
     14          1           0        1.845952    2.077238    0.059486
     15          1           0        0.808294    1.263712   -1.129108
     16          1           0       -0.575125    2.149676    0.712158
     17          1           0        0.427174    1.317916    1.912009
     18          1           0       -1.577977   -0.000100    1.618338
     19          1           0       -0.575062   -2.149780    0.711979
     20          1           0        0.427218   -1.318109    1.911905
     21          1           0        0.808336   -1.263640   -1.129204
     22          1           0        1.846021   -2.077222    0.059330
     23          1           0       -2.986561   -1.302992   -1.467665
     24          1           0       -3.132491   -1.239132    0.360367
     25          1           0       -3.132410    1.239245    0.360354
     26          1           0       -2.986509    1.303062   -1.467683
 ---------------------------------------------------------------------

 SCF Done:  E(UB3LYP) =  -424.075101232     A.U. after   25 cycles

 The electronic state is 2-A.
 Alpha  occ. eigenvalues --  -14.20455 -14.19632 -10.09140 -10.08987 -10.08958
 Alpha  occ. eigenvalues --  -10.08105 -10.07999 -10.07998 -10.05640 -10.05639
 Alpha  occ. eigenvalues --   -0.86421  -0.82025  -0.69760  -0.64637  -0.59814
 Alpha  occ. eigenvalues --   -0.54397  -0.52730  -0.50612  -0.49167  -0.43758
 Alpha  occ. eigenvalues --   -0.40026  -0.37383  -0.37023  -0.35643  -0.34770
 Alpha  occ. eigenvalues --   -0.33016  -0.30943  -0.29130  -0.28574  -0.27144
 Alpha  occ. eigenvalues --   -0.26217  -0.26173  -0.24635  -0.23446  -0.21790
 Alpha  occ. eigenvalues --   -0.20972  -0.19617  -0.13801  -0.11034   0.04961
 Alpha virt. eigenvalues --    0.06862   0.07565   0.07902   0.09120   0.09363
 Alpha virt. eigenvalues --    0.10368   0.10586   0.10676   0.12015   0.12229
 Alpha virt. eigenvalues --    0.12760   0.12945   0.14006   0.14786   0.14929

  Beta  occ. eigenvalues --  -14.20443 -14.19624 -10.09127 -10.08960 -10.08931
  Beta  occ. eigenvalues --  -10.08079 -10.07987 -10.07986 -10.05626 -10.05625
  Beta  occ. eigenvalues --   -0.86398  -0.82006  -0.69727  -0.64609  -0.59777
  Beta  occ. eigenvalues --   -0.54346  -0.52683  -0.50542  -0.49116  -0.43703
  Beta  occ. eigenvalues --   -0.39977  -0.37333  -0.36977  -0.35620  -0.34734
  Beta  occ. eigenvalues --   -0.32995  -0.30905  -0.29091  -0.28540  -0.27111
  Beta  occ. eigenvalues --   -0.26184  -0.26140  -0.24604  -0.23421  -0.21753
  Beta  occ. eigenvalues --   -0.20943  -0.19586  -0.13734  -0.10991
  Beta virt. eigenvalues --    0.07168   0.07895   0.08378   0.08566   0.09875
  Beta virt. eigenvalues --    0.09997   0.10743   0.11160   0.11222   0.12650
  Beta virt. eigenvalues --    0.12751   0.13238   0.13385   0.14267   0.14960

 Mulliken charges and spin densities:
               1          2
     1  C    0.568033  -0.839143
     2  N   -0.080848   0.173441
     3  C    0.038694  -0.391617
     4  C    0.366863  -0.866271
     5  C   -0.868608   0.799566
     6  C    0.367068  -0.866509
     7  C    0.038731  -0.391624
     8  N    0.025494   0.171128
     9  C    0.620280  -0.888813
    10  C    0.620105  -0.888666
    11  H   -0.094844   0.190759
    12  H   -0.231041   0.353610
    13  H   -0.231065   0.353634
    14  H   -0.098252   0.272223
    15  H    0.125061   0.007302
    16  H   -0.121145   0.271960
    17  H   -0.140583   0.289384
    18  H   -0.679873   0.839815
    19  H   -0.121134   0.271959
    20  H   -0.140591   0.289390
    21  H    0.125052   0.007311
    22  H   -0.098205   0.272176
    23  H   -0.246519   0.388429
    24  H   -0.248059   0.396041
    25  H   -0.248057   0.396042
    26  H   -0.246558   0.388472
 Sum of Mulliken charges =  -1.00000   1.00000

 Dipole moment (field-independent basis, Debye):
    X=              1.9520    Y=             -0.0001    Z=             -1.6207  Tot=              2.5371
 Quadrupole moment (field-independent basis, Debye-Ang):
   XX=           -131.2140   YY=           -101.1509   ZZ=            -99.3892
   XY=              0.0002   XZ=              2.9577   YZ=              0.0001

 Summary of Natural Population Analysis:

                                       Natural Population
                Natural  -----------------------------------------------
    Atom  No    Charge         Core      Valence    Rydberg      Total
 -----------------------------------------------------------------------
      C    1   -0.17454      0.99965     2.16614    0.00875     3.17454
      N    2   -0.28214      0.99972     2.76958    0.01284     3.78214
      C    3   -0.08401      0.99961     2.07306    0.01134     3.08401
      C    4   -0.19558      0.99960     2.18568    0.01029     3.19558
      C    5   -0.00504      0.99957     1.99118    0.01429     3.00504
      C    6   -0.19558      0.99960     2.18568    0.01029     3.19558
      C    7   -0.08401      0.99961     2.07306    0.01134     3.08401
      N    8   -0.26650      0.99972     2.75402    0.01277     3.76650
      C    9   -0.10548      0.99963     2.09389    0.01196     3.10548
      C   10   -0.10548      0.99963     2.09389    0.01196     3.10548
      H   11    0.07821      0.00000     0.42038    0.00141     0.42179
      H   12    0.09436      0.00000     0.40436    0.00128     0.40564
      H   13    0.09436      0.00000     0.40436    0.00128     0.40564
      H   14    0.09493      0.00000     0.40377    0.00130     0.40507
      H   15    0.08408      0.00000     0.41406    0.00186     0.41592
      H   16    0.10144      0.00000     0.39743    0.00113     0.39856
      H   17    0.10062      0.00000     0.39774    0.00165     0.39938
      H   18    0.08953      0.00000     0.40701    0.00346     0.41047
      H   19    0.10144      0.00000     0.39744    0.00113     0.39856
      H   20    0.10062      0.00000     0.39774    0.00165     0.39938
      H   21    0.08408      0.00000     0.41406    0.00186     0.41592
      H   22    0.09493      0.00000     0.40377    0.00130     0.40507
      H   23    0.09504      0.00000     0.40372    0.00124     0.40496
      H   24    0.09485      0.00000     0.40315    0.00201     0.40515
      H   25    0.09485      0.00000     0.40315    0.00201     0.40515
      H   26    0.09504      0.00000     0.40372    0.00124     0.40496
 =======================================================================
   * Total *   -0.00000      9.99632    28.86205    0.14163    39.00000

 Normal termination of Gaussian 16 at Tue Dec  8 10:37:19 2020.
