 Gaussian 16, Revision A.03,

 -----------------------------------------------------------
 # opt freq B3LYP/6-31G(d) empiricaldispersion=gd3bj scf=xqc
 -----------------------------------------------------------

 ------------------------------
 CID_88635865_JID_4461_neutraal
 ------------------------------
 Symbolic Z-matrix:
 Charge =  0 Multiplicity = 1

 SCF Done:  E(RB3LYP) =  -725.071321032     A.U. after   15 cycles
 SCF Done:  E(RB3LYP) =  -725.079832349     A.U. after   12 cycles
 SCF Done:  E(RB3LYP) =  -725.080983587     A.U. after   13 cycles
 SCF Done:  E(RB3LYP) =  -725.082149479     A.U. after   12 cycles
 SCF Done:  E(RB3LYP) =  -725.082167374     A.U. after   11 cycles
 SCF Done:  E(RB3LYP) =  -725.082213228     A.U. after   11 cycles
 SCF Done:  E(RB3LYP) =  -725.082242282     A.U. after   10 cycles
 SCF Done:  E(RB3LYP) =  -725.082256697     A.U. after   10 cycles
 SCF Done:  E(RB3LYP) =  -725.082263570     A.U. after   10 cycles
 SCF Done:  E(RB3LYP) =  -725.082268216     A.U. after    9 cycles
 SCF Done:  E(RB3LYP) =  -725.082271942     A.U. after    9 cycles
 SCF Done:  E(RB3LYP) =  -725.082272478     A.U. after    8 cycles
 SCF Done:  E(RB3LYP) =  -725.082272856     A.U. after    8 cycles
 SCF Done:  E(RB3LYP) =  -725.082272965     A.U. after    8 cycles
 SCF Done:  E(RB3LYP) =  -725.082273014     A.U. after    7 cycles
 Optimization completed.
    -- Stationary point found.

 1\1\GINC-NODE361\FOpt\RB3LYP\6-31G(d)\C9H10O5\VSC10255\10-Dec-2020\0\\
 # opt freq B3LYP/6-31G(d) empiricaldispersion=gd3bj scf=xqc\\CID_88635
 865_JID_4461_neutraal\\0,1\C,0.9790997776,0.0693206183,0.0141060304\C,
 0.4617802734,1.473305594,-0.0851259606\C,-0.4505945011,1.8942299494,-0
 .9641263283\C,-0.9439354328,3.3150456975,-1.0449915428\C,-0.5161928593
 ,4.0104153844,-2.3346681387\C,-1.2472770318,3.6297536019,-3.589312601\
 C,-2.1703829749,2.6978303623,-3.7860451749\O,-0.8235835575,4.427490144
 4,-4.6687900905\C,-1.3392514116,5.6954782094,-4.7936839092\O,-2.222669

 Normal termination of Gaussian 16 at Thu Dec 10 09:49:54 2020.

 --------------------------------------------------------------------
 #N Geom=AllCheck Guess=TCheck SCRF=Check GenChk RB3LYP/6-31G(d) Freq
 --------------------------------------------------------------------

 Structure from the checkpoint file:  "JID_4461.chk"
 ------------------------------
 CID_88635865_JID_4461_neutraal
 ------------------------------
 Charge =  0 Multiplicity = 1

 SCF Done:  E(RB3LYP) =  -725.082273014     A.U. after    1 cycles

  Exact polarizability: 133.963   4.616 114.629  -4.551  -5.923  67.118
 Approx polarizability: 165.559  10.731 180.925  -7.336 -16.731 106.148

                      1                      2                      3
                      A                      A                      A
 Frequencies --     30.3739                38.5051                53.5076
 Red. masses --      5.4143                 5.9995                 4.0978
 Frc consts  --      0.0029                 0.0052                 0.0069
 IR Inten    --      0.5093                 0.6080                 0.9126

                      4                      5                      6
                      A                      A                      A
 Frequencies --     65.6369               104.7737               108.2464
 Red. masses --      6.0320                 2.0642                 4.4137
 Frc consts  --      0.0153                 0.0134                 0.0305
 IR Inten    --      2.2646                 1.3681                 1.2824

                      7                      8                      9
                      A                      A                      A
 Frequencies --    145.5507               208.4511               235.5422
 Red. masses --      4.7321                 1.2748                 3.6887
 Frc consts  --      0.0591                 0.0326                 0.1206
 IR Inten    --      1.4583                 0.9148                 0.5840

                     10                     11                     12
                      A                      A                      A
 Frequencies --    266.3215               276.9668               312.5448
 Red. masses --      4.3376                 4.8723                 2.4057
 Frc consts  --      0.1813                 0.2202                 0.1385
 IR Inten    --      3.1705                 3.5503                 0.4500

                     13                     14                     15
                      A                      A                      A
 Frequencies --    326.4220               419.6341               453.5838
 Red. masses --      5.2048                 3.0510                11.4017
 Frc consts  --      0.3267                 0.3165                 1.3821
 IR Inten    --      0.6119                 1.8809                 5.5302

                     16                     17                     18
                      A                      A                      A
 Frequencies --    483.1950               499.7547               570.4395
 Red. masses --      5.1838                 3.7242                 3.2690
 Frc consts  --      0.7131                 0.5480                 0.6267
 IR Inten    --      3.6325                 0.8788                10.4471

                     19                     20                     21
                      A                      A                      A
 Frequencies --    629.3934               648.0462               658.0213
 Red. masses --      4.7903                10.2423                 7.8943
 Frc consts  --      1.1180                 2.5343                 2.0139
 IR Inten    --     10.1358                 4.4308                23.7794

                     22                     23                     24
                      A                      A                      A
 Frequencies --    740.9024               770.0765               785.1969
 Red. masses --      2.0359                 2.2058                 1.8084
 Frc consts  --      0.6585                 0.7707                 0.6569
 IR Inten    --      7.9370                 7.4362                 5.7624

                     25                     26                     27
                      A                      A                      A
 Frequencies --    820.3533               837.1527               888.4915
 Red. masses --      3.9244                 2.7331                 4.8025
 Frc consts  --      1.5561                 1.1285                 2.2337
 IR Inten    --     13.4265                 3.6711                 2.5387

                     28                     29                     30
                      A                      A                      A
 Frequencies --    907.4553               930.9623               946.7458
 Red. masses --      3.1654                 1.3967                 2.6575
 Frc consts  --      1.5358                 0.7132                 1.4034
 IR Inten    --     27.9843                48.3430                23.1312

                     31                     32                     33
                      A                      A                      A
 Frequencies --    987.6983               999.8625              1007.9970
 Red. masses --      5.0573                 1.7742                 1.0949
 Frc consts  --      2.9068                 1.0450                 0.6555
 IR Inten    --     76.3649                28.4354                31.7921

                     34                     35                     36
                      A                      A                      A
 Frequencies --   1032.2605              1079.3981              1081.7983
 Red. masses --      4.3963                 3.9355                 1.7349
 Frc consts  --      2.7601                 2.7016                 1.1962
 IR Inten    --     96.2292               144.6910                35.9159

                     37                     38                     39
                      A                      A                      A
 Frequencies --   1092.1453              1119.1188              1153.4704
 Red. masses --      3.6980                 2.6131                 2.1954
 Frc consts  --      2.5988                 1.9283                 1.7210
 IR Inten    --     70.4794                54.6424                21.8068

                     40                     41                     42
                      A                      A                      A
 Frequencies --   1223.0563              1254.2338              1256.9797
 Red. masses --      1.6794                 1.9453                 9.6727
 Frc consts  --      1.4802                 1.8030                 9.0044
 IR Inten    --     45.2532               123.2003               938.0497

                     43                     44                     45
                      A                      A                      A
 Frequencies --   1319.7010              1355.5578              1357.8582
 Red. masses --      1.2842                 1.2726                 1.2234
 Frc consts  --      1.3177                 1.3778                 1.3290
 IR Inten    --      2.7788                 0.2650                12.6709

                     46                     47                     48
                      A                      A                      A
 Frequencies --   1392.6446              1407.4347              1443.7504
 Red. masses --      1.3774                 1.5567                 1.2620
 Frc consts  --      1.5739                 1.8168                 1.5499
 IR Inten    --     25.1126                 8.5212                 2.1836

                     49                     50                     51
                      A                      A                      A
 Frequencies --   1445.8191              1508.5803              1515.8617
 Red. masses --      1.2022                 1.0449                 1.0887
 Frc consts  --      1.4807                 1.4011                 1.4739
 IR Inten    --     15.1888                 7.0294                 6.1968

                     52                     53                     54
                      A                      A                      A
 Frequencies --   1521.2532              1754.8596              1759.6139
 Red. masses --      1.0563                 6.0887                 5.7941
 Frc consts  --      1.4402                11.0473                10.5699
 IR Inten    --     11.0528                47.2098                 2.4265

                     55                     56                     57
                      A                      A                      A
 Frequencies --   1888.6308              1936.3566              3037.4080
 Red. masses --     13.0713                13.0223                 1.0371
 Frc consts  --     27.4702                28.7679                 5.6372
 IR Inten    --    652.3430               269.1314                28.8996

                     58                     59                     60
                      A                      A                      A
 Frequencies --   3051.2247              3066.7329              3086.1318
 Red. masses --      1.0681                 1.0811                 1.1001
 Frc consts  --      5.8588                 5.9908                 6.1732
 IR Inten    --      7.2850                18.1775                20.2252

                     61                     62                     63
                      A                      A                      A
 Frequencies --   3113.3049              3120.2983              3144.1611
 Red. masses --      1.0985                 1.0990                 1.0919
 Frc consts  --      6.2735                 6.3045                 6.3598
 IR Inten    --      7.6467                 6.7218                19.5080

                     64                     65                     66
                      A                      A                      A
 Frequencies --   3161.7793              3205.7823              3294.7577
 Red. masses --      1.0873                 1.0611                 1.1180
 Frc consts  --      6.4044                 6.4247                 7.1504
 IR Inten    --     27.3717                 0.4127                 1.5081

 - Thermochemistry -
 -------------------
 Temperature   298.150 Kelvin.  Pressure   1.00000 Atm.
 Atom     1 has atomic number  6 and mass  12.00000

 Molecular mass:   198.05282 amu.
 Principal axes and moments of inertia in atomic units:
                           1         2         3
     Eigenvalues --  1372.405614668.976635628.94547
           X            0.99998   0.00152  -0.00639
           Y           -0.00154   0.99999  -0.00372
           Z            0.00639   0.00373   0.99997
 This molecule is an asymmetric top.
 Rotational symmetry number  1.
 Warning -- assumption of classical behavior for rotation
           may cause significant error
 Rotational temperatures (Kelvin)      0.06311     0.01855     0.01539
 Rotational constants (GHZ):           1.31502     0.38654     0.32062
 Zero-point vibrational energy     480538.5 (Joules/Mol)
                                  114.85147 (Kcal/Mol)
 Warning -- explicit consideration of  18 degrees of freedom as
           vibrations may cause significant error
 Vibrational temperatures:     43.70    55.40    76.99    94.44   150.75
          (Kelvin)            155.74   209.42   299.91   338.89   383.18
                              398.49   449.68   469.65   603.76   652.61
                              695.21   719.04   820.74   905.56   932.39
                              946.75  1065.99  1107.97  1129.72  1180.31
                             1204.48  1278.34  1305.63  1339.45  1362.16
                             1421.08  1438.58  1450.28  1485.19  1553.01
                             1556.47  1571.35  1610.16  1659.59  1759.71
                             1804.56  1808.51  1898.76  1950.35  1953.66
                             2003.71  2024.98  2077.23  2080.21  2170.51
                             2180.99  2188.74  2524.85  2531.69  2717.32
                             2785.99  4370.15  4390.03  4412.34  4440.26
                             4479.35  4489.41  4523.75  4549.10  4612.41
                             4740.42

 Zero-point correction=                           0.183027 (Hartree/Particle)
 Thermal correction to Energy=                    0.196677
 Thermal correction to Enthalpy=                  0.197621
 Thermal correction to Gibbs Free Energy=         0.140540
 Sum of electronic and zero-point Energies=           -724.899246
 Sum of electronic and thermal Energies=              -724.885596
 Sum of electronic and thermal Enthalpies=            -724.884652
 Sum of electronic and thermal Free Energies=         -724.941733

                     E (Thermal)             CV                S
                      KCal/Mol        Cal/Mol-Kelvin    Cal/Mol-Kelvin
 Total                  123.416             48.956            120.136
 Electronic               0.000              0.000              0.000
 Translational            0.889              2.981             41.755
 Rotational               0.889              2.981             31.956
 Vibrational            121.639             42.994             46.425
 Vibration     1          0.594              1.984              5.805
 Vibration     2          0.594              1.981              5.335
 Vibration     3          0.596              1.976              4.683
 Vibration     4          0.597              1.971              4.280
 Vibration     5          0.605              1.945              3.364
 Vibration     6          0.606              1.943              3.300
 Vibration     7          0.617              1.907              2.730
 Vibration     8          0.642              1.828              2.057
 Vibration     9          0.655              1.786              1.836
 Vibration    10          0.672              1.735              1.620
 Vibration    11          0.678              1.716              1.552
 Vibration    12          0.701              1.650              1.349
 Vibration    13          0.710              1.623              1.278
 Vibration    14          0.782              1.428              0.893
 Vibration    15          0.812              1.353              0.785
 Vibration    16          0.839              1.287              0.701
 Vibration    17          0.855              1.251              0.659
 Vibration    18          0.927              1.095              0.503

                           ! Non-Optimized Parameters !

 1\1\GINC-NODE361\Freq\RB3LYP\6-31G(d)\C9H10O5\VSC10255\10-Dec-2020\0\\
 #N Geom=AllCheck Guess=TCheck SCRF=Check GenChk RB3LYP/6-31G(d) Freq\\
 CID_88635865_JID_4461_neutraal\\0,1\C,0.9790997776,0.0693206183,0.0141
 060304\C,0.4617802734,1.473305594,-0.0851259606\C,-0.4505945011,1.8942
 299494,-0.9641263283\C,-0.9439354328,3.3150456975,-1.0449915428\C,-0.5
 161928593,4.0104153844,-2.3346681387\C,-1.2472770318,3.6297536019,-3.5
 89312601\C,-2.1703829749,2.6978303623,-3.7860451749\O,-0.8235835575,4.
 4274901444,-4.6687900905\C,-1.3392514116,5.6954782094,-4.7936839092\O,

 Normal termination of Gaussian 16 at Thu Dec 10 09:55:30 2020.

 ----------------------------------------------------------------------
 # B3LYP/6-311++G(d,p) empiricaldispersion=gd3bj scf=xqc pop=npa geom=c
 heck
 ----------------------------------------------------------------------

 --------------------------------------
 CID_88635865_JID_4461_Energie_neutraal
 --------------------------------------
 Structure from the checkpoint file:  "JID_4461.chk"
 Charge =  0 Multiplicity = 1

 SCF Done:  E(RB3LYP) =  -725.294884065     A.U. after   15 cycles
 Normal termination of Gaussian 16 at Thu Dec 10 09:57:30 2020.

 ----------------------------------------------------------------------
 # B3LYP/6-311++G(d,p) empiricaldispersion=gd3bj scf=xqc pop=npa geom=c
 heck
 ----------------------------------------------------------------------

 ------------------------------------
 CID_88635865_JID_4461_Energie_kation
 ------------------------------------
 Structure from the checkpoint file:  "JID_4461.chk"
 Charge =  1 Multiplicity = 2

 SCF Done:  E(UB3LYP) =  -724.946296778     A.U. after   22 cycles
 Normal termination of Gaussian 16 at Thu Dec 10 10:01:32 2020.
 Gaussian 16:  ES64L-G16RevA.03 25-Dec-2016

 -----------------------------------
 CID_88635865_JID_4461_Energie_anion
 -----------------------------------
 Structure from the checkpoint file:  "JID_4461.chk"
 Charge = -1 Multiplicity = 2

                         Standard orientation:
 ---------------------------------------------------------------------
 Center     Atomic      Atomic             Coordinates (Angstroms)
 Number     Number       Type             X           Y           Z
 ---------------------------------------------------------------------
      1          6           0        5.069176    0.016618   -0.718480
      2          6           0        3.835576    0.484717   -0.005911
      3          6           0        2.790341   -0.285513    0.304693
      4          6           0        1.560057    0.216820    1.013709
      5          6           0        0.320937    0.193931    0.122739
      6          6           0       -0.309447   -1.144023   -0.134198
      7          6           0        0.093841   -2.356429    0.221808
      8          8           0       -1.497668   -0.995893   -0.874035
      9          6           0       -2.643233   -0.621172   -0.213300
     10          8           0       -3.502581   -1.372359    0.122760
     11          8           0       -2.792679    0.740127   -0.122855
     12          6           0       -1.668797    1.540025    0.003083
     13          8           0       -1.644524    2.640023   -0.455138
     14          8           0       -0.716954    0.984500    0.793360
     15          1           0        5.011882   -1.048393   -0.965835
     16          1           0        5.964989    0.177638   -0.104562
     17          1           0        5.222118    0.576538   -1.650354
     18          1           0        3.811863    1.538962    0.275516
     19          1           0        2.809743   -1.337148    0.020774
     20          1           0        1.350958   -0.362233    1.922499
     21          1           0        1.707531    1.256744    1.320592
     22          1           0        0.545218    0.687019   -0.830990
     23          1           0       -0.497481   -3.228360   -0.032428
     24          1           0        1.017728   -2.501788    0.767207
 ---------------------------------------------------------------------

 SCF Done:  E(UB3LYP) =  -725.296060354     A.U. after   33 cycles
 SCF Done:  E(UB3LYP) =  -725.296060354     a.u. after    1 cycles

 The electronic state is 2-A.
 Alpha  occ. eigenvalues --  -19.06789 -19.05701 -19.04275 -19.00241 -18.99138
 Alpha  occ. eigenvalues --  -10.22766 -10.20970 -10.13485 -10.12934 -10.07856
 Alpha  occ. eigenvalues --  -10.07233 -10.07049 -10.06936 -10.06224  -1.04690
 Alpha  occ. eigenvalues --   -0.98809  -0.94549  -0.91908  -0.91146  -0.72262
 Alpha  occ. eigenvalues --   -0.68857  -0.64999  -0.60037  -0.56753  -0.54408
 Alpha  occ. eigenvalues --   -0.50060  -0.47562  -0.44954  -0.43218  -0.39522
 Alpha  occ. eigenvalues --   -0.38803  -0.37286  -0.35581  -0.35293  -0.34124
 Alpha  occ. eigenvalues --   -0.33704  -0.31942  -0.31226  -0.30935  -0.28783
 Alpha  occ. eigenvalues --   -0.28445  -0.27383  -0.26153  -0.25387  -0.24675
 Alpha  occ. eigenvalues --   -0.23015  -0.22107  -0.20934  -0.18132  -0.17331
 Alpha  occ. eigenvalues --   -0.15809  -0.15333   0.04568
 Alpha virt. eigenvalues --    0.06106   0.08070   0.08652   0.09217   0.09369
 Alpha virt. eigenvalues --    0.10255   0.10818   0.11509   0.11954   0.12380
 Alpha virt. eigenvalues --    0.12466   0.13666   0.14183   0.14857   0.15502

  Beta  occ. eigenvalues --  -19.06841 -19.05736 -19.04267 -19.00045 -18.98887
  Beta  occ. eigenvalues --  -10.22508 -10.20594 -10.13348 -10.12797 -10.07862
  Beta  occ. eigenvalues --  -10.07173 -10.07022 -10.06911 -10.06144  -1.04433
  Beta  occ. eigenvalues --   -0.98489  -0.94458  -0.91715  -0.90819  -0.72104
  Beta  occ. eigenvalues --   -0.68663  -0.64808  -0.59772  -0.56330  -0.54239
  Beta  occ. eigenvalues --   -0.49914  -0.47269  -0.44784  -0.42954  -0.39100
  Beta  occ. eigenvalues --   -0.38448  -0.36793  -0.35299  -0.35123  -0.33958
  Beta  occ. eigenvalues --   -0.33349  -0.31834  -0.30982  -0.30792  -0.28705
  Beta  occ. eigenvalues --   -0.28205  -0.27256  -0.26081  -0.25004  -0.24044
  Beta  occ. eigenvalues --   -0.22843  -0.21875  -0.20395  -0.17993  -0.17067
  Beta  occ. eigenvalues --   -0.15453  -0.15043
  Beta virt. eigenvalues --    0.06772   0.08455   0.08837   0.09229   0.09401
  Beta virt. eigenvalues --    0.10236   0.10803   0.11131   0.11606   0.12169
  Beta virt. eigenvalues --    0.12502   0.13644   0.13884   0.14567   0.15198

 Mulliken charges and spin densities:
               1          2
     1  C    0.935115  -1.700748
     2  C   -1.121915   1.101385
     3  C    0.487346  -0.369740
     4  C   -0.084855   0.057599
     5  C   -0.654147   0.058266
     6  C    0.036221   0.007928
     7  C   -0.299264   0.065939
     8  O   -0.142246  -0.005601
     9  C    0.222850   0.134754
    10  O   -0.319728   0.063591
    11  O   -0.118400  -0.025692
    12  C    0.261402   0.193357
    13  O   -0.329401   0.087768
    14  O   -0.049325  -0.006141
    15  H   -0.400704   0.544251
    16  H   -0.237242   0.375627
    17  H   -0.003317   0.139252
    18  H    0.005948   0.114426
    19  H    0.069879   0.050508
    20  H    0.195149   0.001807
    21  H    0.156410   0.000226
    22  H    0.230566   0.005804
    23  H    0.158512  -0.006910
    24  H    0.001148   0.112343
 Sum of Mulliken charges =  -1.00000   1.00000

 Dipole moment (field-independent basis, Debye):
    X=             -0.0553    Y=             -0.1823    Z=              1.1758  Tot=              1.1911
 Quadrupole moment (field-independent basis, Debye-Ang):
   XX=           -164.6806   YY=           -111.8237   ZZ=            -93.8807
   XY=              7.9539   XZ=              3.5240   YZ=              0.8995

 Summary of Natural Population Analysis:

                                       Natural Population
                Natural  -----------------------------------------------
    Atom  No    Charge         Core      Valence    Rydberg      Total
 -----------------------------------------------------------------------
      C    1   -0.30050      0.99965     2.29488    0.00597     3.30050
      C    2   -0.07684      0.99952     2.06817    0.00915     3.07684
      C    3   -0.09721      0.99950     2.08674    0.01097     3.09721
      C    4   -0.21211      0.99960     2.20213    0.01039     3.21211
      C    5    0.06214      0.99946     1.92583    0.01257     2.93786
      C    6    0.16086      0.99938     1.82562    0.01413     2.83914
      C    7   -0.19780      0.99949     2.19100    0.00731     3.19780
      O    8   -0.30843      0.99984     3.29979    0.00881     4.30843
      C    9    0.55005      0.99972     1.42384    0.02639     2.44995
      O   10   -0.26788      0.99985     3.26187    0.00616     4.26788
      O   11   -0.29123      0.99983     3.28434    0.00706     4.29123
      C   12    0.55856      0.99973     1.41479    0.02692     2.44144
      O   13   -0.26740      0.99985     3.26153    0.00602     4.26740
      O   14   -0.30752      0.99985     3.29993    0.00773     4.30752
      H   15    0.10234      0.00000     0.39615    0.00151     0.39766
      H   16    0.10233      0.00000     0.39604    0.00163     0.39767
      H   17    0.09996      0.00000     0.39912    0.00091     0.40004
      H   18    0.08684      0.00000     0.41203    0.00113     0.41316
      H   19    0.09398      0.00000     0.40459    0.00143     0.40602
      H   20    0.10404      0.00000     0.39486    0.00111     0.39596
      H   21    0.10839      0.00000     0.39040    0.00122     0.39161
      H   22    0.09603      0.00000     0.40222    0.00175     0.40397
      H   23    0.10267      0.00000     0.39617    0.00116     0.39733
      H   24    0.09874      0.00000     0.40029    0.00097     0.40126
 =======================================================================
   * Total *   -0.00000     13.99528    37.83232    0.17240    52.00000

 Normal termination of Gaussian 16 at Thu Dec 10 10:08:03 2020.
