 Gaussian 16, Revision A.03,

 -----------------------------------------------------------
 # opt freq B3LYP/6-31G(d) empiricaldispersion=gd3bj scf=xqc
 -----------------------------------------------------------

 -------------------------------
 CID_116928498_JID_8180_neutraal
 -------------------------------
 Symbolic Z-matrix:
 Charge =  0 Multiplicity = 1

 SCF Done:  E(RB3LYP) =  -768.460718783     A.U. after   15 cycles
 SCF Done:  E(RB3LYP) =  -768.463867435     A.U. after   13 cycles
 SCF Done:  E(RB3LYP) =  -768.463308276     A.U. after   12 cycles
 SCF Done:  E(RB3LYP) =  -768.465137765     A.U. after   11 cycles
 SCF Done:  E(RB3LYP) =  -768.465574501     A.U. after   12 cycles
 SCF Done:  E(RB3LYP) =  -768.465647531     A.U. after   10 cycles
 SCF Done:  E(RB3LYP) =  -768.465645321     A.U. after   10 cycles
 SCF Done:  E(RB3LYP) =  -768.465661621     A.U. after   10 cycles
 SCF Done:  E(RB3LYP) =  -768.465672324     A.U. after    9 cycles
 SCF Done:  E(RB3LYP) =  -768.465685762     A.U. after   10 cycles
 SCF Done:  E(RB3LYP) =  -768.465688800     A.U. after    9 cycles
 SCF Done:  E(RB3LYP) =  -768.465691387     A.U. after    9 cycles
 SCF Done:  E(RB3LYP) =  -768.465692069     A.U. after    8 cycles
 SCF Done:  E(RB3LYP) =  -768.465692541     A.U. after    8 cycles
 Optimization completed.
    -- Stationary point found.
 Normal termination of Gaussian 16 at Fri Dec 11 19:22:30 2020.

 --------------------------------------------------------------------
 #N Geom=AllCheck Guess=TCheck SCRF=Check GenChk RB3LYP/6-31G(d) Freq
 --------------------------------------------------------------------

 Structure from the checkpoint file:  "JID_8180.chk"
 -------------------------------
 CID_116928498_JID_8180_neutraal
 -------------------------------
 Charge =  0 Multiplicity = 1

 SCF Done:  E(RB3LYP) =  -768.465692541     A.U. after    1 cycles

  Exact polarizability: 218.256 -33.242 130.060   3.124  -5.601 156.089
 Approx polarizability: 301.629 -58.479 194.278   4.384 -11.374 272.665

                      1                      2                      3
                      A                      A                      A
 Frequencies --     23.8726                37.5074                71.7380
 Red. masses --      3.8069                 4.8879                 3.2746
 Frc consts  --      0.0013                 0.0041                 0.0099
 IR Inten    --      1.0548                 0.2142                 2.2848

                      4                      5                      6
                      A                      A                      A
 Frequencies --     86.1281                93.9294               128.4347
 Red. masses --      4.2361                 1.1735                 3.7819
 Frc consts  --      0.0185                 0.0061                 0.0368
 IR Inten    --      0.6605                 0.0121                 1.5703

                      7                      8                      9
                      A                      A                      A
 Frequencies --    182.5943               218.1678               232.5063
 Red. masses --      3.1677                 4.3120                 2.3236
 Frc consts  --      0.0622                 0.1209                 0.0740
 IR Inten    --      1.8639                 3.0693                 1.0474

                     10                     11                     12
                      A                      A                      A
 Frequencies --    258.5409               286.0606               293.8443
 Red. masses --      3.0688                 4.1839                 1.6206
 Frc consts  --      0.1209                 0.2017                 0.0824
 IR Inten    --      3.6142                 0.2198                25.0948

                     13                     14                     15
                      A                      A                      A
 Frequencies --    315.6572               347.9083               366.3469
 Red. masses --      1.7342                 3.1741                 2.4476
 Frc consts  --      0.1018                 0.2264                 0.1935
 IR Inten    --     16.8134                 0.2847                45.8429

                     16                     17                     18
                      A                      A                      A
 Frequencies --    398.7997               402.4849               427.7170
 Red. masses --      3.4106                 1.8778                 2.6201
 Frc consts  --      0.3196                 0.1792                 0.2824
 IR Inten    --      1.4861                 2.4774                 6.6468

                     19                     20                     21
                      A                      A                      A
 Frequencies --    431.6702               444.7384               462.0898
 Red. masses --      1.4939                 2.4179                 3.4066
 Frc consts  --      0.1640                 0.2818                 0.4286
 IR Inten    --     64.3286                29.1611                 1.8226

                     22                     23                     24
                      A                      A                      A
 Frequencies --    465.6587               491.0096               527.9357
 Red. masses --      2.5747                 3.5298                 3.1586
 Frc consts  --      0.3289                 0.5014                 0.5187
 IR Inten    --      2.3788                 6.8321                 1.4855

                     25                     26                     27
                      A                      A                      A
 Frequencies --    596.0728               644.2970               675.2658
 Red. masses --      4.5784                 3.5518                 3.5637
 Frc consts  --      0.9584                 0.8687                 0.9574
 IR Inten    --      0.2304                 0.1641                 2.5878

                     28                     29                     30
                      A                      A                      A
 Frequencies --    695.4126               727.6581               734.2692
 Red. masses --      5.1302                 3.4390                 3.7329
 Frc consts  --      1.4617                 1.0728                 1.1858
 IR Inten    --      0.8674                 4.7085                 4.7083

                     31                     32                     33
                      A                      A                      A
 Frequencies --    773.8385               792.0344               817.0856
 Red. masses --      4.6092                 1.5107                 2.9295
 Frc consts  --      1.6262                 0.5584                 1.1523
 IR Inten    --      0.5063                 0.0069                 5.4047

                     34                     35                     36
                      A                      A                      A
 Frequencies --    827.8232               857.8719               865.5487
 Red. masses --      1.8674                 1.8343                 2.6914
 Frc consts  --      0.7540                 0.7953                 1.1880
 IR Inten    --     34.5120                 1.9413                 3.5853

                     37                     38                     39
                      A                      A                      A
 Frequencies --    881.3570               884.0755               942.4633
 Red. masses --      1.8391                 2.2356                 2.0062
 Frc consts  --      0.8417                 1.0295                 1.0499
 IR Inten    --      8.5597                 1.8089                 0.1396

                     40                     41                     42
                      A                      A                      A
 Frequencies --    953.5422               961.9336               968.9762
 Red. masses --      1.9107                 1.4245                 1.7713
 Frc consts  --      1.0236                 0.7766                 0.9799
 IR Inten    --      0.1478                 0.0964                 1.3080

                     43                     44                     45
                      A                      A                      A
 Frequencies --    982.3636               994.5790              1004.4709
 Red. masses --      2.0919                 2.3658                 2.3560
 Frc consts  --      1.1894                 1.3788                 1.4006
 IR Inten    --      4.2491                 0.5770                13.1399

                     46                     47                     48
                      A                      A                      A
 Frequencies --   1039.6974              1061.9812              1075.1299
 Red. masses --      2.8920                 2.0496                 1.4990
 Frc consts  --      1.8419                 1.3619                 1.0209
 IR Inten    --      0.9338                24.8022                 1.7542

                     49                     50                     51
                      A                      A                      A
 Frequencies --   1093.1215              1108.1358              1117.1059
 Red. masses --      2.6121                 1.6801                 1.9921
 Frc consts  --      1.8390                 1.2155                 1.4647
 IR Inten    --     91.8720                 5.4808                 0.7568

                     52                     53                     54
                      A                      A                      A
 Frequencies --   1123.5939              1149.1170              1162.2477
 Red. masses --      1.8789                 1.2583                 1.3916
 Frc consts  --      1.3976                 0.9789                 1.1076
 IR Inten    --      1.4728                 0.8487                 1.9224

                     55                     56                     57
                      A                      A                      A
 Frequencies --   1175.3257              1225.9340              1228.6238
 Red. masses --      1.8511                 1.3133                 1.3604
 Frc consts  --      1.5066                 1.1629                 1.2099
 IR Inten    --      0.7201                 4.0601                 1.3382

                     58                     59                     60
                      A                      A                      A
 Frequencies --   1241.8362              1252.4488              1267.5319
 Red. masses --      1.7604                 1.5124                 1.7898
 Frc consts  --      1.5995                 1.3978                 1.6943
 IR Inten    --      8.0472                 7.2950                 0.8340

                     61                     62                     63
                      A                      A                      A
 Frequencies --   1304.1814              1309.4663              1313.3354
 Red. masses --      1.3979                 1.4971                 2.8305
 Frc consts  --      1.4008                 1.5125                 2.8765
 IR Inten    --     15.4425                 6.2609                47.8885

                     64                     65                     66
                      A                      A                      A
 Frequencies --   1338.3534              1352.1357              1357.7765
 Red. masses --      1.9503                 1.3173                 1.4913
 Frc consts  --      2.0582                 1.4189                 1.6198
 IR Inten    --      1.9877                 1.5348                 5.7117

                     67                     68                     69
                      A                      A                      A
 Frequencies --   1370.7761              1395.3135              1399.2713
 Red. masses --      1.7877                 1.6595                 1.3672
 Frc consts  --      1.9792                 1.9035                 1.5772
 IR Inten    --      0.7115                 8.7453                 8.4710

                     70                     71                     72
                      A                      A                      A
 Frequencies --   1405.3753              1408.5053              1413.8322
 Red. masses --      1.9314                 1.4655                 1.4488
 Frc consts  --      2.2475                 1.7130                 1.7062
 IR Inten    --     24.8696                 1.0489                 4.4159

                     73                     74                     75
                      A                      A                      A
 Frequencies --   1427.0581              1429.9628              1439.6541
 Red. masses --      1.4565                 1.9522                 1.5741
 Frc consts  --      1.7476                 2.3520                 1.9222
 IR Inten    --     42.4276                23.8200                19.5022

                     76                     77                     78
                      A                      A                      A
 Frequencies --   1449.2150              1493.4340              1510.7048
 Red. masses --      1.2941                 3.0890                 1.0837
 Frc consts  --      1.6013                 4.0592                 1.4572
 IR Inten    --     46.1603                38.3229                 3.0984

                     79                     80                     81
                      A                      A                      A
 Frequencies --   1511.4135              1512.4313              1514.5614
 Red. masses --      1.0434                 1.1185                 1.2498
 Frc consts  --      1.4044                 1.5074                 1.6891
 IR Inten    --      8.5165                11.8785                 2.0686

                     82                     83                     84
                      A                      A                      A
 Frequencies --   1520.6083              1525.1991              1537.8442
 Red. masses --      1.1016                 1.0932                 1.1044
 Frc consts  --      1.5007                 1.4983                 1.5389
 IR Inten    --      5.4075                 5.7316                 1.2107

                     85                     86                     87
                      A                      A                      A
 Frequencies --   1543.6898              1604.4461              1636.2721
 Red. masses --      2.8962                 5.2471                 7.0137
 Frc consts  --      4.0663                 7.9583                11.0640
 IR Inten    --      3.0692                43.6587                 3.3813

                     88                     89                     90
                      A                      A                      A
 Frequencies --   1690.3722              3007.4272              3022.4541
 Red. masses --      6.6760                 1.0779                 1.0629
 Frc consts  --     11.2391                 5.7442                 5.7208
 IR Inten    --     26.9870                 5.0976                26.6951

                     91                     92                     93
                      A                      A                      A
 Frequencies --   3027.6309              3038.8598              3041.5431
 Red. masses --      1.0620                 1.0721                 1.0806
 Frc consts  --      5.7357                 5.8330                 5.8898
 IR Inten    --     14.7211                83.4841                78.2971

                     94                     95                     96
                      A                      A                      A
 Frequencies --   3048.0728              3051.3523              3053.9756
 Red. masses --      1.0402                 1.0694                 1.0706
 Frc consts  --      5.6940                 5.8662                 5.8832
 IR Inten    --     30.9650                 9.5017                37.1518

                     97                     98                     99
                      A                      A                      A
 Frequencies --   3061.3486              3066.0322              3071.1072
 Red. masses --      1.0903                 1.0904                 1.1023
 Frc consts  --      6.0205                 6.0392                 6.1255
 IR Inten    --     36.1172                21.7644                48.4158

                    100                    101                    102
                      A                      A                      A
 Frequencies --   3095.8868              3097.9410              3102.0430
 Red. masses --      1.1043                 1.1012                 1.1029
 Frc consts  --      6.2360                 6.2270                 6.2531
 IR Inten    --     17.9663                15.9187                75.6581

                    103                    104                    105
                      A                      A                      A
 Frequencies --   3170.0681              3185.0857              3186.5394
 Red. masses --      1.0979                 1.0888                 1.0900
 Frc consts  --      6.5003                 6.5076                 6.5212
 IR Inten    --      3.2978                12.6967                12.7078

                    106                    107                    108
                      A                      A                      A
 Frequencies --   3215.7702              3654.0290              3717.1855
 Red. masses --      1.0936                 1.0801                 1.0657
 Frc consts  --      6.6631                 8.4971                 8.6758
 IR Inten    --     10.4235                43.4443                 4.5756

 - Thermochemistry -
 -------------------
 Temperature   298.150 Kelvin.  Pressure   1.00000 Atm.
 Atom     1 has atomic number  6 and mass  12.00000

 Molecular mass:   244.15756 amu.
 Principal axes and moments of inertia in atomic units:
                           1         2         3
     Eigenvalues --  2445.471416985.934397580.22417
           X            0.99985  -0.01650   0.00538
           Y            0.01660   0.99968  -0.01898
           Z           -0.00507   0.01907   0.99981
 This molecule is an asymmetric top.
 Rotational symmetry number  1.
 Warning -- assumption of classical behavior for rotation
           may cause significant error
 Rotational temperatures (Kelvin)      0.03542     0.01240     0.01143
 Rotational constants (GHZ):           0.73799     0.25834     0.23809
 Zero-point vibrational energy     870448.7 (Joules/Mol)
                                  208.04222 (Kcal/Mol)
 Warning -- explicit consideration of  25 degrees of freedom as
           vibrations may cause significant error
 Vibrational temperatures:     34.35    53.96   103.21   123.92   135.14
          (Kelvin)            184.79   262.71   313.89   334.52   371.98
                              411.58   422.78   454.16   500.56   527.09
                              573.78   579.09   615.39   621.08   639.88
                              664.84   669.98   706.45   759.58   857.62
                              927.00   971.56  1000.54  1046.94  1056.45
                             1113.38  1139.56  1175.60  1191.05  1234.29
                             1245.33  1268.08  1271.99  1355.99  1371.93
                             1384.01  1394.14  1413.40  1430.98  1445.21
                             1495.89  1527.95  1546.87  1572.76  1594.36
                             1607.27  1616.60  1653.32  1672.22  1691.03
                             1763.85  1767.72  1786.73  1801.99  1823.70
                             1876.43  1884.03  1889.60  1925.59  1945.42
                             1953.54  1972.24  2007.54  2013.24  2022.02
                             2026.52  2034.19  2053.22  2057.40  2071.34
                             2085.10  2148.72  2173.57  2174.59  2176.05
                             2179.12  2187.82  2194.42  2212.61  2221.03
                             2308.44  2354.23  2432.07  4327.02  4348.64
                             4356.09  4372.24  4376.10  4385.50  4390.22
                             4393.99  4404.60  4411.34  4418.64  4454.29
                             4457.25  4463.15  4561.02  4582.63  4584.72
                             4626.78  5257.33  5348.20

 Zero-point correction=                           0.331536 (Hartree/Particle)
 Thermal correction to Energy=                    0.347640
 Thermal correction to Enthalpy=                  0.348584
 Thermal correction to Gibbs Free Energy=         0.287442
 Sum of electronic and zero-point Energies=           -768.134156
 Sum of electronic and thermal Energies=              -768.118052
 Sum of electronic and thermal Enthalpies=            -768.117108
 Sum of electronic and thermal Free Energies=         -768.178251

                     E (Thermal)             CV                S
                      KCal/Mol        Cal/Mol-Kelvin    Cal/Mol-Kelvin
 Total                  218.148             64.394            128.685
 Electronic               0.000              0.000              0.000
 Translational            0.889              2.981             42.379
 Rotational               0.889              2.981             33.226
 Vibrational            216.370             58.432             53.080
 Vibration     1          0.593              1.985              6.283
 Vibration     2          0.594              1.982              5.387
 Vibration     3          0.598              1.967              4.105
 Vibration     4          0.601              1.959              3.746
 Vibration     5          0.603              1.954              3.577
 Vibration     6          0.611              1.925              2.969
 Vibration     7          0.630              1.863              2.302
 Vibration     8          0.646              1.813              1.974
 Vibration     9          0.653              1.791              1.860
 Vibration    10          0.667              1.748              1.672
 Vibration    11          0.684              1.700              1.497
 Vibration    12          0.689              1.685              1.452
 Vibration    13          0.703              1.644              1.333
 Vibration    14          0.726              1.580              1.176
 Vibration    15          0.739              1.541              1.095
 Vibration    16          0.765              1.473              0.967
 Vibration    17          0.768              1.465              0.954
 Vibration    18          0.789              1.410              0.866
 Vibration    19          0.793              1.401              0.853
 Vibration    20          0.804              1.373              0.812
 Vibration    21          0.820              1.334              0.760
 Vibration    22          0.823              1.326              0.750
 Vibration    23          0.847              1.270              0.681
 Vibration    24          0.883              1.188              0.592
 Vibration    25          0.954              1.040              0.456

                           ! Non-Optimized Parameters !
 Normal termination of Gaussian 16 at Fri Dec 11 19:39:47 2020.

 ----------------------------------------------------------------------
 # B3LYP/6-311++G(d,p) empiricaldispersion=gd3bj scf=xqc pop=npa geom=c
 heck
 ----------------------------------------------------------------------

 ---------------------------------------
 CID_116928498_JID_8180_Energie_neutraal
 ---------------------------------------
 Structure from the checkpoint file:  "JID_8180.chk"
 Charge =  0 Multiplicity = 1

 SCF Done:  E(RB3LYP) =  -768.678581172     A.U. after   15 cycles
 Normal termination of Gaussian 16 at Fri Dec 11 19:46:36 2020.

 ----------------------------------------------------------------------
 # B3LYP/6-311++G(d,p) empiricaldispersion=gd3bj scf=xqc pop=npa geom=c
 heck
 ----------------------------------------------------------------------

 -------------------------------------
 CID_116928498_JID_8180_Energie_kation
 -------------------------------------
 Structure from the checkpoint file:  "JID_8180.chk"
 Charge =  1 Multiplicity = 2

 SCF Done:  E(UB3LYP) =  -768.391650442     A.U. after   28 cycles
 Normal termination of Gaussian 16 at Fri Dec 11 20:03:19 2020.
 Gaussian 16:  ES64L-G16RevA.03 25-Dec-2016

 ----------------------------------------------------------------------
 # B3LYP/6-311++G(d,p) empiricaldispersion=gd3bj scf=xqc pop=npa geom=c
 heck
 ----------------------------------------------------------------------

 ------------------------------------
 CID_116928498_JID_8180_Energie_anion
 ------------------------------------
 Structure from the checkpoint file:  "JID_8180.chk"
 Charge = -1 Multiplicity = 2

                         Standard orientation:
 ---------------------------------------------------------------------
 Center     Atomic      Atomic             Coordinates (Angstroms)
 Number     Number       Type             X           Y           Z
 ---------------------------------------------------------------------
      1          6           0       -5.134167    1.078370   -0.466643
      2          6           0       -3.828471    0.429223   -0.152179
      3          7           0       -3.392849    0.133680    1.049874
      4          6           0       -2.143792   -0.447324    0.857574
      5          6           0       -1.829482   -0.495572   -0.522595
      6          7           0       -2.930412    0.070536   -1.143874
      7          6           0       -0.636695   -1.030957   -1.003805
      8          6           0        0.282392   -1.519734   -0.071099
      9          6           0       -0.041104   -1.498621    1.304652
     10          6           0       -1.233692   -0.966603    1.783598
     11          6           0        1.614491   -2.066155   -0.532523
     12          6           0        2.825459   -1.096711   -0.632888
     13          6           0        3.331658   -0.547832    0.719797
     14          6           0        2.591865    0.698267    1.230687
     15          6           0        2.546633    1.803828    0.175489
     16          6           0        1.912826    1.285201   -1.116317
     17          6           0        2.647967    0.047809   -1.655429
     18          8           0        1.878027    2.968463    0.659370
     19          1           0       -4.993915    2.033312   -0.988125
     20          1           0       -5.758209    0.439356   -1.103567
     21          1           0       -5.665821    1.265657    0.467531
     22          1           0       -3.053497    0.210369   -2.135495
     23          1           0       -0.411102   -1.059330   -2.066571
     24          1           0        0.676910   -1.910065    2.009049
     25          1           0       -1.465234   -0.956375    2.843910
     26          1           0        1.910350   -2.884483    0.136687
     27          1           0        1.482450   -2.514959   -1.525762
     28          1           0        3.628979   -1.737469   -1.022748
     29          1           0        4.392095   -0.284860    0.598142
     30          1           0        3.301401   -1.341274    1.477766
     31          1           0        3.079304    1.081513    2.134886
     32          1           0        1.561248    0.442764    1.504439
     33          1           0        3.569595    2.142890   -0.036608
     34          1           0        0.863387    1.044185   -0.910021
     35          1           0        1.918994    2.084502   -1.866966
     36          1           0        3.648475    0.364596   -1.982501
     37          1           0        2.141874   -0.330401   -2.553526
     38          1           0        0.976004    2.693731    0.892612
 ---------------------------------------------------------------------

 SCF Done:  E(UB3LYP) =  -768.672952964     A.U. after   33 cycles
 SCF Done:  E(UB3LYP) =  -768.672952964     a.u. after    1 cycles

 The electronic state is 2-A.
 Alpha  occ. eigenvalues --  -19.03142 -14.26219 -14.19890 -10.14703 -10.12586
 Alpha  occ. eigenvalues --  -10.11306 -10.09629 -10.08431 -10.08413 -10.08299
 Alpha  occ. eigenvalues --  -10.07891 -10.07864 -10.07733 -10.07703 -10.07456
 Alpha  occ. eigenvalues --  -10.07440 -10.07200 -10.06743  -0.93292  -0.91848
 Alpha  occ. eigenvalues --   -0.78063  -0.76075  -0.73807  -0.68622  -0.66448
 Alpha  occ. eigenvalues --   -0.65433  -0.64684  -0.62084  -0.57397  -0.53037
 Alpha  occ. eigenvalues --   -0.52593  -0.51799  -0.50068  -0.49025  -0.45780
 Alpha  occ. eigenvalues --   -0.43653  -0.41252  -0.40163  -0.38459  -0.36989
 Alpha  occ. eigenvalues --   -0.36254  -0.35751  -0.35206  -0.34505  -0.33949
 Alpha  occ. eigenvalues --   -0.32923  -0.32737  -0.31345  -0.31121  -0.30693
 Alpha  occ. eigenvalues --   -0.29054  -0.28876  -0.28210  -0.26807  -0.26038
 Alpha  occ. eigenvalues --   -0.25612  -0.25240  -0.24040  -0.22219  -0.21944
 Alpha  occ. eigenvalues --   -0.21570  -0.20470  -0.18225  -0.17844  -0.13701
 Alpha  occ. eigenvalues --   -0.12599   0.03757
 Alpha virt. eigenvalues --    0.05363   0.06800   0.07197   0.07556   0.07847
 Alpha virt. eigenvalues --    0.08483   0.08955   0.09367   0.09836   0.09975
 Alpha virt. eigenvalues --    0.10362   0.10718   0.10871   0.11804   0.12107

  Beta  occ. eigenvalues --  -19.03140 -14.26157 -14.19892 -10.14682 -10.12583
  Beta  occ. eigenvalues --  -10.11311 -10.09616 -10.08404 -10.08391 -10.08280
  Beta  occ. eigenvalues --  -10.07880 -10.07852 -10.07696 -10.07693 -10.07458
  Beta  occ. eigenvalues --  -10.07426 -10.07199 -10.06739  -0.93287  -0.91803
  Beta  occ. eigenvalues --   -0.78002  -0.76040  -0.73785  -0.68583  -0.66413
  Beta  occ. eigenvalues --   -0.65412  -0.64642  -0.62038  -0.57363  -0.52960
  Beta  occ. eigenvalues --   -0.52560  -0.51777  -0.50014  -0.48966  -0.45741
  Beta  occ. eigenvalues --   -0.43594  -0.41222  -0.40139  -0.38422  -0.36956
  Beta  occ. eigenvalues --   -0.36184  -0.35730  -0.35182  -0.34463  -0.33920
  Beta  occ. eigenvalues --   -0.32899  -0.32714  -0.31292  -0.31086  -0.30647
  Beta  occ. eigenvalues --   -0.29030  -0.28857  -0.28190  -0.26777  -0.26010
  Beta  occ. eigenvalues --   -0.25570  -0.25221  -0.24011  -0.22199  -0.21900
  Beta  occ. eigenvalues --   -0.21540  -0.20428  -0.18219  -0.17837  -0.13622
  Beta  occ. eigenvalues --   -0.12504
  Beta virt. eigenvalues --    0.05780   0.06688   0.07010   0.07416   0.07857
  Beta virt. eigenvalues --    0.08236   0.09103   0.09247   0.09562   0.09944
  Beta virt. eigenvalues --    0.10319   0.10476   0.10925   0.11177   0.12100

 Mulliken charges and spin densities:
               1          2
     1  C    0.718742  -0.884413
     2  C   -0.398515   0.688549
     3  N   -0.106189  -0.022167
     4  C   -0.150872  -0.370904
     5  C    0.650327  -0.862885
     6  N   -0.271694   0.151666
     7  C   -0.605473   0.173635
     8  C    0.833072   0.268536
     9  C   -0.444138   0.033406
    10  C   -0.475107   0.242495
    11  C    0.828103  -1.910095
    12  C    0.588426  -0.059871
    13  C   -0.155047  -0.457391
    14  C   -0.087111   0.037917
    15  C   -0.724896  -0.144106
    16  C   -0.161574   0.129536
    17  C   -0.043545  -0.528651
    18  O   -0.176634   0.005801
    19  H   -0.360282   0.534009
    20  H   -0.283606   0.450441
    21  H    0.078961   0.084707
    22  H   -0.574631   0.903029
    23  H   -0.559602   0.735765
    24  H    0.078532   0.071981
    25  H    0.113782   0.043104
    26  H   -0.039010   0.189498
    27  H   -0.031648   0.201893
    28  H   -0.220389   0.439067
    29  H   -0.037141   0.173918
    30  H    0.029185   0.123205
    31  H    0.165121   0.008477
    32  H    0.260268  -0.022152
    33  H    0.126728   0.046229
    34  H    0.262769  -0.026877
    35  H    0.004249   0.179129
    36  H    0.039723   0.099799
    37  H   -0.089760   0.255255
    38  H    0.218875   0.018465
 Sum of Mulliken charges =  -1.00000   1.00000

 Dipole moment (field-independent basis, Debye):
    X=              4.3439    Y=             -0.8447    Z=              5.3791  Tot=              6.9655
 Quadrupole moment (field-independent basis, Debye-Ang):
   XX=           -188.8568   YY=           -152.3079   ZZ=           -155.4890
   XY=              5.5375   XZ=             -9.4251   YZ=             -1.5039

 Summary of Natural Population Analysis:

                                       Natural Population
                Natural  -----------------------------------------------
    Atom  No    Charge         Core      Valence    Rydberg      Total
 -----------------------------------------------------------------------
      C    1   -0.30838      0.99963     2.30310    0.00565     3.30838
      C    2    0.21505      0.99963     1.76841    0.01691     2.78495
      N    3   -0.26540      0.99968     2.75678    0.00894     3.76540
      C    4    0.05372      0.99945     1.93271    0.01413     2.94628
      C    5    0.06688      0.99946     1.92149    0.01217     2.93312
      N    6   -0.27857      0.99963     2.76844    0.01051     3.77857
      C    7   -0.11295      0.99947     2.10357    0.00991     3.11295
      C    8   -0.01757      0.99951     2.00772    0.01033     3.01757
      C    9   -0.11700      0.99953     2.10922    0.00825     3.11700
      C   10   -0.09857      0.99952     2.09094    0.00812     3.09857
      C   11   -0.19423      0.99958     2.18342    0.01123     3.19423
      C   12   -0.10333      0.99958     2.09251    0.01124     3.10333
      C   13   -0.19048      0.99961     2.18097    0.00990     3.19048
      C   14   -0.20682      0.99960     2.19874    0.00848     3.20682
      C   15    0.06790      0.99953     1.92066    0.01191     2.93210
      C   16   -0.20643      0.99960     2.19710    0.00973     3.20643
      C   17   -0.19101      0.99961     2.18179    0.00961     3.19101
      O   18   -0.37128      0.99990     3.36517    0.00621     4.37128
      H   19    0.11156      0.00000     0.38663    0.00182     0.38844
      H   20    0.10913      0.00000     0.38971    0.00116     0.39087
      H   21    0.11229      0.00000     0.38664    0.00107     0.38771
      H   22    0.21265      0.00000     0.26650    0.02084     0.28735
      H   23    0.10707      0.00000     0.39091    0.00202     0.39293
      H   24    0.09800      0.00000     0.40091    0.00109     0.40200
      H   25    0.10187      0.00000     0.39695    0.00118     0.39813
      H   26    0.10004      0.00000     0.39882    0.00114     0.39996
      H   27    0.10362      0.00000     0.39508    0.00129     0.39638
      H   28    0.09924      0.00000     0.39893    0.00182     0.40076
      H   29    0.09613      0.00000     0.40283    0.00105     0.40387
      H   30    0.09875      0.00000     0.40034    0.00091     0.40125
      H   31    0.09869      0.00000     0.40030    0.00101     0.40131
      H   32    0.10235      0.00000     0.39596    0.00170     0.39765
      H   33    0.07964      0.00000     0.41876    0.00160     0.42036
      H   34    0.10167      0.00000     0.39633    0.00200     0.39833
      H   35    0.10156      0.00000     0.39746    0.00099     0.39844
      H   36    0.09563      0.00000     0.40325    0.00113     0.40437
      H   37    0.10270      0.00000     0.39614    0.00116     0.39730
      H   38    0.22588      0.00000     0.27134    0.00278     0.27412
 =======================================================================
   * Total *    0.00000     17.99248    47.77654    0.23098    66.00000

 Normal termination of Gaussian 16 at Fri Dec 11 20:23:22 2020.
