 Gaussian 16, Revision A.03,

 -----------------------------------------------------------
 # opt freq B3LYP/6-31G(d) empiricaldispersion=gd3bj scf=xqc
 -----------------------------------------------------------

 -------------------------------
 CID_117169744_JID_4023_neutraal
 -------------------------------
 Symbolic Z-matrix:
 Charge =  0 Multiplicity = 1

 SCF Done:  E(RB3LYP) =  -692.852480642     A.U. after   14 cycles
 SCF Done:  E(RB3LYP) =  -692.856734947     A.U. after   12 cycles
 SCF Done:  E(RB3LYP) =  -692.857249537     A.U. after   12 cycles
 SCF Done:  E(RB3LYP) =  -692.858458175     A.U. after   12 cycles
 SCF Done:  E(RB3LYP) =  -692.858586180     A.U. after   11 cycles
 SCF Done:  E(RB3LYP) =  -692.858622802     A.U. after   10 cycles
 SCF Done:  E(RB3LYP) =  -692.858656013     A.U. after   10 cycles
 SCF Done:  E(RB3LYP) =  -692.858699854     A.U. after   11 cycles
 SCF Done:  E(RB3LYP) =  -692.858709454     A.U. after   10 cycles
 SCF Done:  E(RB3LYP) =  -692.858713050     A.U. after    9 cycles
 SCF Done:  E(RB3LYP) =  -692.858715181     A.U. after    9 cycles
 SCF Done:  E(RB3LYP) =  -692.858715583     A.U. after    8 cycles
 SCF Done:  E(RB3LYP) =  -692.858715749     A.U. after    7 cycles
 SCF Done:  E(RB3LYP) =  -692.858715788     A.U. after    7 cycles
 SCF Done:  E(RB3LYP) =  -692.858715795     A.U. after    7 cycles
 Optimization completed.
    -- Stationary point found.
 Normal termination of Gaussian 16 at Thu Dec 10 09:18:49 2020.

 --------------------------------------------------------------------
 #N Geom=AllCheck Guess=TCheck SCRF=Check GenChk RB3LYP/6-31G(d) Freq
 --------------------------------------------------------------------

 Structure from the checkpoint file:  "JID_4023.chk"
 -------------------------------
 CID_117169744_JID_4023_neutraal
 -------------------------------
 Charge =  0 Multiplicity = 1

 SCF Done:  E(RB3LYP) =  -692.858715795     A.U. after    1 cycles

  Exact polarizability: 129.038   5.472 114.161   0.917  -1.550  98.132
 Approx polarizability: 165.718   6.419 155.939   8.235  -1.769 151.221

                      1                      2                      3
                      A                      A                      A
 Frequencies --     20.8842                27.8014                44.7787
 Red. masses --      3.3470                 5.1818                 9.9689
 Frc consts  --      0.0009                 0.0024                 0.0118
 IR Inten    --      0.0317                 0.0040                 2.4915

                      4                      5                      6
                      A                      A                      A
 Frequencies --     59.4949               114.7510               122.4075
 Red. masses --      4.0309                 2.9665                 4.0307
 Frc consts  --      0.0084                 0.0230                 0.0356
 IR Inten    --      2.8961                 1.2561                 0.2839

                      7                      8                      9
                      A                      A                      A
 Frequencies --    176.2383               195.8847               238.9584
 Red. masses --      4.6475                 4.0962                 1.0458
 Frc consts  --      0.0850                 0.0926                 0.0352
 IR Inten    --      0.2414                 1.7327                 0.2017

                     10                     11                     12
                      A                      A                      A
 Frequencies --    271.0388               286.2363               291.4130
 Red. masses --      1.5770                 2.2496                 1.1612
 Frc consts  --      0.0683                 0.1086                 0.0581
 IR Inten    --      0.6516                 1.0915                 0.5341

                     13                     14                     15
                      A                      A                      A
 Frequencies --    308.5558               339.9078               342.1700
 Red. masses --      1.9007                 2.7718                 2.0746
 Frc consts  --      0.1066                 0.1887                 0.1431
 IR Inten    --      2.1942                 3.1862                 0.1081

                     16                     17                     18
                      A                      A                      A
 Frequencies --    389.0190               411.2003               420.4079
 Red. masses --      2.3983                 2.5628                 2.0470
 Frc consts  --      0.2138                 0.2553                 0.2132
 IR Inten    --      1.4775                 0.3100                 0.0236

                     19                     20                     21
                      A                      A                      A
 Frequencies --    434.3438               490.5645               529.6516
 Red. masses --      3.3502                 2.4218                 2.4531
 Frc consts  --      0.3724                 0.3434                 0.4055
 IR Inten    --      6.3903                 1.3769                 8.1764

                     22                     23                     24
                      A                      A                      A
 Frequencies --    574.0177               644.1865               724.0614
 Red. masses --      2.4377                 1.8109                 4.8948
 Frc consts  --      0.4732                 0.4428                 1.5119
 IR Inten    --     49.7990                58.2392                13.1729

                     25                     26                     27
                      A                      A                      A
 Frequencies --    735.3440               760.6964               762.2440
 Red. masses --      2.7159                 3.7803                 3.6924
 Frc consts  --      0.8653                 1.2888                 1.2640
 IR Inten    --     49.6820                 5.8427                 6.5845

                     28                     29                     30
                      A                      A                      A
 Frequencies --    849.2732               871.7277               908.4158
 Red. masses --      2.4170                 3.0430                 3.9392
 Frc consts  --      1.0271                 1.3624                 1.9153
 IR Inten    --      6.5127                 5.1927                 2.7060

                     31                     32                     33
                      A                      A                      A
 Frequencies --    936.6879               941.7256               946.7184
 Red. masses --      2.1715                 2.1795                 1.9022
 Frc consts  --      1.1225                 1.1388                 1.0045
 IR Inten    --      2.2323                 3.2597                 7.2494

                     34                     35                     36
                      A                      A                      A
 Frequencies --    958.3042               977.3390               993.6786
 Red. masses --      1.6497                 1.2180                 1.8571
 Frc consts  --      0.8926                 0.6854                 1.0804
 IR Inten    --      2.9444                 0.5108                32.7084

                     37                     38                     39
                      A                      A                      A
 Frequencies --    997.8419              1007.9078              1052.6405
 Red. masses --      2.8369                 2.0432                 2.7599
 Frc consts  --      1.6643                 1.2229                 1.8018
 IR Inten    --     30.8892                34.3554                42.4599

                     40                     41                     42
                      A                      A                      A
 Frequencies --   1059.2806              1079.2262              1104.5892
 Red. masses --      2.2304                 1.8037                 1.8528
 Frc consts  --      1.4745                 1.2378                 1.3319
 IR Inten    --     13.3025                26.0156                27.0688

                     43                     44                     45
                      A                      A                      A
 Frequencies --   1135.8680              1173.4829              1181.1375
 Red. masses --      2.2215                 2.9847                 2.2705
 Frc consts  --      1.6887                 2.4216                 1.8663
 IR Inten    --     19.6480               117.4951               266.8942

                     46                     47                     48
                      A                      A                      A
 Frequencies --   1218.4475              1244.8904              1250.0592
 Red. masses --      1.5514                 2.0773                 1.3517
 Frc consts  --      1.3570                 1.8967                 1.2445
 IR Inten    --      3.2044                 7.4137                41.3819

                     49                     50                     51
                      A                      A                      A
 Frequencies --   1263.6606              1291.0872              1291.9658
 Red. masses --      1.3890                 2.3291                 1.4766
 Frc consts  --      1.3068                 2.2874                 1.4522
 IR Inten    --     17.9477                16.7736                12.6057

                     52                     53                     54
                      A                      A                      A
 Frequencies --   1328.9484              1342.7282              1357.4322
 Red. masses --      1.6418                 1.4139                 1.3607
 Frc consts  --      1.7084                 1.5020                 1.4772
 IR Inten    --      0.8759                 2.7357                 3.2131

                     55                     56                     57
                      A                      A                      A
 Frequencies --   1368.3791              1392.6600              1414.0873
 Red. masses --      1.3999                 1.5296                 1.3834
 Frc consts  --      1.5444                 1.7479                 1.6298
 IR Inten    --      2.7299                40.9502                 6.1848

                     58                     59                     60
                      A                      A                      A
 Frequencies --   1419.3862              1427.9958              1430.8233
 Red. masses --      1.6577                 1.2442                 1.2441
 Frc consts  --      1.9677                 1.4949                 1.5007
 IR Inten    --     59.0607                 5.1260                 5.6800

                     61                     62                     63
                      A                      A                      A
 Frequencies --   1456.0479              1461.7440              1500.9945
 Red. masses --      1.4011                 1.2771                 1.1030
 Frc consts  --      1.7501                 1.6078                 1.4641
 IR Inten    --     47.4661                 2.3367                 5.3997

                     64                     65                     66
                      A                      A                      A
 Frequencies --   1506.4649              1512.3103              1519.6006
 Red. masses --      1.1269                 1.0485                 1.0486
 Frc consts  --      1.5068                 1.4128                 1.4266
 IR Inten    --      7.9919                 0.6324                 0.7805

                     67                     68                     69
                      A                      A                      A
 Frequencies --   1520.7754              1535.1247              1539.0307
 Red. masses --      1.0449                 1.0832                 1.0821
 Frc consts  --      1.4238                 1.5041                 1.5101
 IR Inten    --      0.7452                 4.3279                 1.5936

                     70                     71                     72
                      A                      A                      A
 Frequencies --   1541.1166              1551.2211              1851.4756
 Red. masses --      1.0569                 1.0590                 9.5914
 Frc consts  --      1.4790                 1.5014                19.3717
 IR Inten    --      5.0144                13.5156               278.6434

                     73                     74                     75
                      A                      A                      A
 Frequencies --   3009.4389              3023.8242              3036.1729
 Red. masses --      1.0834                 1.0705                 1.0350
 Frc consts  --      5.7811                 5.7671                 5.6215
 IR Inten    --     54.8831                67.5283                25.9827

                     76                     77                     78
                      A                      A                      A
 Frequencies --   3040.0347              3044.7975              3052.1745
 Red. masses --      1.0372                 1.0479                 1.0518
 Frc consts  --      5.6479                 5.7237                 5.7730
 IR Inten    --     40.1554                30.3158                10.4982

                     79                     80                     81
                      A                      A                      A
 Frequencies --   3074.8266              3093.6027              3100.9391
 Red. masses --      1.0632                 1.1019                 1.1025
 Frc consts  --      5.9224                 6.2133                 6.2459
 IR Inten    --      6.1773                 8.7921                 6.3543

                     82                     83                     84
                      A                      A                      A
 Frequencies --   3102.5656              3106.8973              3107.9612
 Red. masses --      1.1021                 1.1017                 1.0878
 Frc consts  --      6.2507                 6.2658                 6.1908
 IR Inten    --      5.5466                61.8909                27.3185

                     85                     86                     87
                      A                      A                      A
 Frequencies --   3110.3000              3114.8019              3136.4130
 Red. masses --      1.1014                 1.1016                 1.0966
 Frc consts  --      6.2777                 6.2969                 6.3556
 IR Inten    --     77.6506                42.0581                21.7106

                     88                     89                     90
                      A                      A                      A
 Frequencies --   3145.8774              3153.9118              3678.5549
 Red. masses --      1.1012                 1.0977                 1.0637
 Frc consts  --      6.4208                 6.4334                 8.4809
 IR Inten    --     15.1428                15.3333                43.9633

 - Thermochemistry -
 -------------------
 Temperature   298.150 Kelvin.  Pressure   1.00000 Atm.
 Atom     1 has atomic number  6 and mass  12.00000

 Molecular mass:   202.12051 amu.
 Principal axes and moments of inertia in atomic units:
                           1         2         3
     Eigenvalues --  1588.791074535.989605303.23308
           X            0.99972   0.02310  -0.00557
           Y           -0.02312   0.99972  -0.00396
           Z            0.00547   0.00409   0.99998
 This molecule is an asymmetric top.
 Rotational symmetry number  1.
 Warning -- assumption of classical behavior for rotation
           may cause significant error
 Rotational temperatures (Kelvin)      0.05452     0.01909     0.01633
 Rotational constants (GHZ):           1.13592     0.39787     0.34031
 Zero-point vibrational energy     733093.5 (Joules/Mol)
                                  175.21354 (Kcal/Mol)
 Warning -- explicit consideration of  22 degrees of freedom as
           vibrations may cause significant error
 Vibrational temperatures:     30.05    40.00    64.43    85.60   165.10
          (Kelvin)            176.12   253.57   281.83   343.81   389.96
                              411.83   419.28   443.94   489.05   492.31
                              559.71   591.63   604.87   624.92   705.81
                              762.05   825.88   926.84  1041.76  1058.00
                             1094.47  1096.70  1221.91  1254.22  1307.01
                             1347.68  1354.93  1362.12  1378.79  1406.17
                             1429.68  1435.67  1450.15  1514.51  1524.07
                             1552.77  1589.26  1634.26  1688.38  1699.39
                             1753.07  1791.12  1798.56  1818.13  1857.59
                             1858.85  1912.06  1931.89  1953.04  1968.79
                             2003.73  2034.56  2042.18  2054.57  2058.64
                             2094.93  2103.12  2159.60  2167.47  2175.88
                             2186.37  2188.06  2208.70  2214.32  2217.32
                             2231.86  2663.86  4329.91  4350.61  4368.38
                             4373.93  4380.78  4391.40  4423.99  4451.00
                             4461.56  4463.90  4470.13  4471.66  4475.03
                             4481.51  4512.60  4526.22  4537.78  5292.62

 Zero-point correction=                           0.279221 (Hartree/Particle)
 Thermal correction to Energy=                    0.294238
 Thermal correction to Enthalpy=                  0.295183
 Thermal correction to Gibbs Free Energy=         0.235380
 Sum of electronic and zero-point Energies=           -692.579495
 Sum of electronic and thermal Energies=              -692.564477
 Sum of electronic and thermal Enthalpies=            -692.563533
 Sum of electronic and thermal Free Energies=         -692.623336

                     E (Thermal)             CV                S
                      KCal/Mol        Cal/Mol-Kelvin    Cal/Mol-Kelvin
 Total                  184.637             56.070            125.865
 Electronic               0.000              0.000              0.000
 Translational            0.889              2.981             41.816
 Rotational               0.889              2.981             32.014
 Vibrational            182.860             50.108             52.036
 Vibration     1          0.593              1.986              6.548
 Vibration     2          0.593              1.984              5.980
 Vibration     3          0.595              1.979              5.036
 Vibration     4          0.597              1.974              4.474
 Vibration     5          0.608              1.937              3.187
 Vibration     6          0.610              1.930              3.062
 Vibration     7          0.628              1.872              2.368
 Vibration     8          0.636              1.846              2.171
 Vibration     9          0.657              1.781              1.811
 Vibration    10          0.675              1.727              1.590
 Vibration    11          0.684              1.699              1.496
 Vibration    12          0.687              1.690              1.466
 Vibration    13          0.698              1.657              1.370
 Vibration    14          0.720              1.596              1.213
 Vibration    15          0.721              1.591              1.202
 Vibration    16          0.757              1.494              1.004
 Vibration    17          0.775              1.446              0.922
 Vibration    18          0.783              1.426              0.891
 Vibration    19          0.795              1.395              0.845
 Vibration    20          0.846              1.271              0.682
 Vibration    21          0.885              1.184              0.588
 Vibration    22          0.930              1.087              0.497

 Optimization completed.
    -- Stationary point found.
 Normal termination of Gaussian 16 at Thu Dec 10 09:28:05 2020.

 ----------------------------------------------------------------------
 # B3LYP/6-311++G(d,p) empiricaldispersion=gd3bj scf=xqc pop=npa geom=c
 heck
 ----------------------------------------------------------------------

 ---------------------------------------
 CID_117169744_JID_4023_Energie_neutraal
 ---------------------------------------
 Structure from the checkpoint file:  "JID_4023.chk"
 Charge =  0 Multiplicity = 1

 SCF Done:  E(RB3LYP) =  -693.069016998     A.U. after   14 cycles
 Normal termination of Gaussian 16 at Thu Dec 10 09:32:15 2020.

 ----------------------------------------------------------------------
 # B3LYP/6-311++G(d,p) empiricaldispersion=gd3bj scf=xqc pop=npa geom=c
 heck
 ----------------------------------------------------------------------

 -------------------------------------
 CID_117169744_JID_4023_Energie_kation
 -------------------------------------
 Structure from the checkpoint file:  "JID_4023.chk"
 Charge =  1 Multiplicity = 2

 SCF Done:  E(UB3LYP) =  -692.730724289     A.U. after   26 cycles
 Normal termination of Gaussian 16 at Thu Dec 10 09:43:45 2020.
 Gaussian 16:  ES64L-G16RevA.03 25-Dec-2016

 ----------------------------------------------------------------------
 # B3LYP/6-311++G(d,p) empiricaldispersion=gd3bj scf=xqc pop=npa geom=c
 heck
 ----------------------------------------------------------------------

 ------------------------------------
 CID_117169744_JID_4023_Energie_anion
 ------------------------------------
 Structure from the checkpoint file:  "JID_4023.chk"
 Charge = -1 Multiplicity = 2

                         Standard orientation:
 ---------------------------------------------------------------------
 Center     Atomic      Atomic             Coordinates (Angstroms)
 Number     Number       Type             X           Y           Z
 ---------------------------------------------------------------------
      1          6           0        2.766762   -0.017032    1.478164
      2          6           0        2.638719    0.471648    0.024277
      3          6           0        3.206590    1.899445   -0.069862
      4          6           0        3.449956   -0.452300   -0.901252
      5          6           0        1.156428    0.534317   -0.416298
      6          6           0        0.441711   -0.781259   -0.672410
      7          8           0        0.348883   -1.572352    0.500064
      8          6           0       -0.879015   -2.282919    0.387467
      9          6           0       -1.795568   -1.224613   -0.228239
     10          8           0       -0.905300   -0.527699   -1.100796
     11          6           0       -2.369545   -0.268434    0.829524
     12          6           0       -2.957399    0.945970    0.150047
     13          8           0       -3.907880    0.927700   -0.599535
     14          8           0       -2.282831    2.080226    0.455079
     15          1           0        3.818153   -0.007159    1.790570
     16          1           0        2.378684   -1.031091    1.595303
     17          1           0        2.208401    0.636890    2.158871
     18          1           0        4.247927    1.926818    0.272117
     19          1           0        3.180409    2.271006   -1.101466
     20          1           0        2.630150    2.594185    0.552853
     21          1           0        3.141746   -1.498438   -0.798025
     22          1           0        3.335968   -0.164559   -1.953881
     23          1           0        4.516662   -0.397799   -0.654346
     24          1           0        0.567333    1.094099    0.319858
     25          1           0        1.088936    1.092874   -1.358976
     26          1           0        0.928918   -1.360974   -1.470893
     27          1           0       -1.173741   -2.616650    1.384880
     28          1           0       -0.775884   -3.152651   -0.278325
     29          1           0       -2.603535   -1.641366   -0.835626
     30          1           0       -3.172337   -0.773232    1.379140
     31          1           0       -1.583792    0.023464    1.529656
     32          1           0       -2.708817    2.792661   -0.058720
 ---------------------------------------------------------------------

 SCF Done:  E(UB3LYP) =  -693.055957852     A.U. after   32 cycles

 The electronic state is 2-A.
 Alpha  occ. eigenvalues --  -19.07505 -19.04383 -19.03589 -19.01913 -10.21128
 Alpha  occ. eigenvalues --  -10.17485 -10.14128 -10.13055 -10.09179 -10.08859
 Alpha  occ. eigenvalues --  -10.06971 -10.06485 -10.06458 -10.05545  -1.01492
 Alpha  occ. eigenvalues --   -1.00314  -0.92575  -0.90789  -0.73823  -0.70913
 Alpha  occ. eigenvalues --   -0.65266  -0.60149  -0.59424  -0.58809  -0.54290
 Alpha  occ. eigenvalues --   -0.52091  -0.49748  -0.44765  -0.43740  -0.40187
 Alpha  occ. eigenvalues --   -0.39707  -0.38985  -0.38175  -0.37676  -0.35655
 Alpha  occ. eigenvalues --   -0.35471  -0.34708  -0.33455  -0.31390  -0.30653
 Alpha  occ. eigenvalues --   -0.30119  -0.29864  -0.29372  -0.27827  -0.27447
 Alpha  occ. eigenvalues --   -0.26954  -0.25196  -0.24950  -0.23476  -0.23178
 Alpha  occ. eigenvalues --   -0.22855  -0.22726  -0.19168  -0.18701  -0.16657
 Alpha  occ. eigenvalues --    0.04237
 Alpha virt. eigenvalues --    0.06154   0.06441   0.07529   0.08526   0.08623
 Alpha virt. eigenvalues --    0.08986   0.09563   0.09897   0.10294   0.11235
 Alpha virt. eigenvalues --    0.11412   0.11970   0.12343   0.12506   0.13971

  Beta  occ. eigenvalues --  -19.07466 -19.04378 -19.03584 -19.01903 -10.21113
  Beta  occ. eigenvalues --  -10.17477 -10.14120 -10.13020 -10.09177 -10.08830
  Beta  occ. eigenvalues --  -10.06960 -10.06462 -10.06438 -10.05529  -1.01436
  Beta  occ. eigenvalues --   -1.00301  -0.92533  -0.90778  -0.73806  -0.70881
  Beta  occ. eigenvalues --   -0.65219  -0.60104  -0.59383  -0.58774  -0.54226
  Beta  occ. eigenvalues --   -0.52047  -0.49690  -0.44725  -0.43703  -0.40153
  Beta  occ. eigenvalues --   -0.39677  -0.38933  -0.38119  -0.37645  -0.35621
  Beta  occ. eigenvalues --   -0.35447  -0.34679  -0.33423  -0.31362  -0.30622
  Beta  occ. eigenvalues --   -0.30083  -0.29834  -0.29335  -0.27796  -0.27425
  Beta  occ. eigenvalues --   -0.26933  -0.25183  -0.24920  -0.23453  -0.23151
  Beta  occ. eigenvalues --   -0.22834  -0.22697  -0.19144  -0.18671  -0.16627
  Beta virt. eigenvalues --    0.06276   0.07188   0.07496   0.08128   0.08841
  Beta virt. eigenvalues --    0.08949   0.09423   0.09979   0.10285   0.10572
  Beta virt. eigenvalues --    0.11505   0.11713   0.12447   0.12574   0.12648

 Mulliken charges and spin densities:
               1          2
     1  C    0.045287  -0.642610
     2  C   -0.678409   1.384050
     3  C   -0.014797  -0.508173
     4  C    0.342111  -1.057002
     5  C    0.407241  -0.418213
     6  C   -0.506267  -0.547222
     7  O   -0.055300   0.067010
     8  C    1.421736  -1.840880
     9  C   -1.605265   2.217525
    10  O   -0.037358  -0.022213
    11  C    1.452662  -2.076577
    12  C    0.085911  -0.204804
    13  O   -0.304710   0.038547
    14  O   -0.138029   0.025282
    15  H   -0.029923   0.171312
    16  H    0.074660   0.089720
    17  H   -0.037584   0.169069
    18  H   -0.004117   0.145849
    19  H   -0.078428   0.205418
    20  H   -0.145577   0.291352
    21  H   -0.060462   0.228662
    22  H   -0.052825   0.204148
    23  H   -0.101755   0.243247
    24  H    0.474062  -0.312754
    25  H    0.055424   0.148401
    26  H    0.094958   0.071255
    27  H   -0.635074   0.816532
    28  H   -0.286924   0.442596
    29  H   -0.139954   0.417837
    30  H   -0.486207   0.672054
    31  H    0.168498   0.072028
    32  H   -0.223581   0.508553
 Sum of Mulliken charges =  -1.00000   1.00000

 Dipole moment (field-independent basis, Debye):
    X=              2.3624    Y=              0.5837    Z=             -1.0631  Tot=              2.6555
 Quadrupole moment (field-independent basis, Debye-Ang):
   XX=           -159.8963   YY=           -136.5025   ZZ=           -120.7488
   XY=             -0.7103   XZ=              1.2750   YZ=              4.8251

 Summary of Natural Population Analysis:

                                       Natural Population
                Natural  -----------------------------------------------
    Atom  No    Charge         Core      Valence    Rydberg      Total
 -----------------------------------------------------------------------
      C    1   -0.28563      0.99962     2.27983    0.00618     3.28563
      C    2   -0.04944      0.99959     2.03804    0.01181     3.04944
      C    3   -0.28059      0.99963     2.27481    0.00615     3.28059
      C    4   -0.28839      0.99963     2.28147    0.00730     3.28839
      C    5   -0.20417      0.99955     2.19393    0.01068     3.20417
      C    6    0.22792      0.99957     1.75436    0.01815     2.77208
      O    7   -0.30167      0.99988     3.29272    0.00906     4.30167
      C    8   -0.01973      0.99957     2.00752    0.01265     3.01973
      C    9    0.05546      0.99956     1.92968    0.01530     2.94454
      O   10   -0.30746      0.99988     3.29953    0.00805     4.30746
      C   11   -0.24929      0.99955     2.23946    0.01027     3.24929
      C   12    0.41239      0.99972     1.56165    0.02624     2.58761
      O   13   -0.30910      0.99987     3.30324    0.00599     4.30910
      O   14   -0.34112      0.99988     3.33438    0.00687     4.34112
      H   15    0.09435      0.00000     0.40471    0.00094     0.40565
      H   16    0.11053      0.00000     0.38781    0.00167     0.38947
      H   17    0.09889      0.00000     0.40004    0.00107     0.40111
      H   18    0.09757      0.00000     0.40147    0.00096     0.40243
      H   19    0.09824      0.00000     0.40074    0.00102     0.40176
      H   20    0.10078      0.00000     0.39813    0.00109     0.39922
      H   21    0.10180      0.00000     0.39715    0.00105     0.39820
      H   22    0.09867      0.00000     0.40045    0.00088     0.40133
      H   23    0.09950      0.00000     0.39964    0.00085     0.40050
      H   24    0.10863      0.00000     0.38952    0.00185     0.39137
      H   25    0.10522      0.00000     0.39351    0.00127     0.39478
      H   26    0.07224      0.00000     0.42605    0.00171     0.42776
      H   27    0.09957      0.00000     0.39801    0.00242     0.40043
      H   28    0.08568      0.00000     0.41264    0.00168     0.41432
      H   29    0.09884      0.00000     0.39977    0.00140     0.40116
      H   30    0.11678      0.00000     0.38119    0.00203     0.38322
      H   31    0.11210      0.00000     0.38560    0.00230     0.38790
      H   32    0.24142      0.00000     0.25124    0.00734     0.25858
 =======================================================================
   * Total *    0.00000     13.99550    40.81828    0.18622    55.00000

 Normal termination of Gaussian 16 at Thu Dec 10 09:57:23 2020.
