 Gaussian 16, Revision A.03,

 -----------------------------------------------------------
 # opt freq B3LYP/6-31G(d) empiricaldispersion=gd3bj scf=xqc
 -----------------------------------------------------------

 ------------------------------
 CID_82470754_JID_5728_neutraal
 ------------------------------
 Symbolic Z-matrix:
 Charge =  0 Multiplicity = 1

 SCF Done:  E(RB3LYP) =  -724.706752322     A.U. after   15 cycles
 SCF Done:  E(RB3LYP) =  -724.710030113     A.U. after   14 cycles
 SCF Done:  E(RB3LYP) =  -724.708592164     A.U. after   14 cycles
 SCF Done:  E(RB3LYP) =  -724.710226678     A.U. after   13 cycles
 SCF Done:  E(RB3LYP) =  -724.711489887     A.U. after   13 cycles
 SCF Done:  E(RB3LYP) =  -724.711535158     A.U. after   13 cycles
 SCF Done:  E(RB3LYP) =  -724.711976461     A.U. after   13 cycles
 SCF Done:  E(RB3LYP) =  -724.711940538     A.U. after   12 cycles
 SCF Done:  E(RB3LYP) =  -724.712063543     A.U. after   12 cycles
 SCF Done:  E(RB3LYP) =  -724.712089393     A.U. after   11 cycles
 SCF Done:  E(RB3LYP) =  -724.712173745     A.U. after    7 cycles
 SCF Done:  E(RB3LYP) =  -724.712173780     A.U. after    7 cycles
 SCF Done:  E(RB3LYP) =  -724.712173791     A.U. after    6 cycles
 SCF Done:  E(RB3LYP) =  -724.712173797     A.U. after    6 cycles
 Optimization completed.
    -- Stationary point found.
 Normal termination of Gaussian 16 at Thu Dec 10 16:46:19 2020.

 --------------------------------------------------------------------
 #N Geom=AllCheck Guess=TCheck SCRF=Check GenChk RB3LYP/6-31G(d) Freq
 --------------------------------------------------------------------

 Structure from the checkpoint file:  "JID_5728.chk"
 ------------------------------
 CID_82470754_JID_5728_neutraal
 ------------------------------
 Charge =  0 Multiplicity = 1

 SCF Done:  E(RB3LYP) =  -724.712173797     A.U. after    1 cycles

  Exact polarizability: 136.863  21.763 117.391  -8.323  11.260 107.248
 Approx polarizability: 187.769  49.084 189.896  -5.426  35.179 179.795

                      1                      2                      3
                      A                      A                      A
 Frequencies --     35.9426                43.1339                48.6860
 Red. masses --      1.7352                 5.1526                 1.7773
 Frc consts  --      0.0013                 0.0056                 0.0025
 IR Inten    --      0.1146                 1.5781                 0.2952

                      4                      5                      6
                      A                      A                      A
 Frequencies --     56.2928                83.0262                95.2197
 Red. masses --      3.6170                 5.2387                11.7163
 Frc consts  --      0.0068                 0.0213                 0.0626
 IR Inten    --      1.0015                 1.4413                 0.5895

                      7                      8                      9
                      A                      A                      A
 Frequencies --    143.3791               149.6754               191.9005
 Red. masses --      4.7782                 4.1645                 4.1355
 Frc consts  --      0.0579                 0.0550                 0.0897
 IR Inten    --      0.7406                 0.7760                 6.2026

                     10                     11                     12
                      A                      A                      A
 Frequencies --    219.7063               236.2356               239.7530
 Red. masses --      3.2639                 1.3474                 2.8016
 Frc consts  --      0.0928                 0.0443                 0.0949
 IR Inten    --      3.5036                 1.3177                 0.5244

                     13                     14                     15
                      A                      A                      A
 Frequencies --    254.9278               304.2397               358.2300
 Red. masses --      3.2525                 3.1092                 3.2809
 Frc consts  --      0.1245                 0.1696                 0.2481
 IR Inten    --      0.4087                12.0498                 7.1610

                     16                     17                     18
                      A                      A                      A
 Frequencies --    373.3250               459.5438               469.8965
 Red. masses --      3.2338                 3.1021                 4.2050
 Frc consts  --      0.2655                 0.3860                 0.5470
 IR Inten    --      1.8378                 5.3802                13.4994

                     19                     20                     21
                      A                      A                      A
 Frequencies --    498.5693               590.8723               598.1413
 Red. masses --      3.7143                 1.3452                 3.8229
 Frc consts  --      0.5440                 0.2767                 0.8058
 IR Inten    --      0.7059               103.3940                 5.0631

                     22                     23                     24
                      A                      A                      A
 Frequencies --    615.2037               637.2924               643.7476
 Red. masses --      3.7468                 3.4120                 3.1760
 Frc consts  --      0.8355                 0.8165                 0.7755
 IR Inten    --      4.5945                 4.5178                14.3029

                     25                     26                     27
                      A                      A                      A
 Frequencies --    699.0270               705.1483               753.1768
 Red. masses --      1.2926                 4.1552                 2.4531
 Frc consts  --      0.3721                 1.2173                 0.8199
 IR Inten    --      4.2562                 3.8136               115.1272

                     28                     29                     30
                      A                      A                      A
 Frequencies --    766.9616               777.8304               817.2047
 Red. masses --      2.5367                 1.8442                 2.8424
 Frc consts  --      0.8791                 0.6574                 1.1184
 IR Inten    --     86.9268                54.6729                12.6306

                     31                     32                     33
                      A                      A                      A
 Frequencies --    834.2353               871.5363               909.5833
 Red. masses --      2.2537                 1.4435                 1.8983
 Frc consts  --      0.9241                 0.6460                 0.9254
 IR Inten    --     35.2904                 3.9394                16.6442

                     34                     35                     36
                      A                      A                      A
 Frequencies --    956.6539               986.7076              1020.6721
 Red. masses --      3.0713                 2.1915                 2.2935
 Frc consts  --      1.6561                 1.2571                 1.4077
 IR Inten    --      1.3065                 5.2052                 3.1143

                     37                     38                     39
                      A                      A                      A
 Frequencies --   1064.4332              1082.9906              1093.8664
 Red. masses --      2.7473                 2.7486                 1.6885
 Frc consts  --      1.8340                 1.8994                 1.1904
 IR Inten    --      5.4245                 1.3042                 4.8833

                     40                     41                     42
                      A                      A                      A
 Frequencies --   1102.0459              1111.6727              1146.8342
 Red. masses --      1.5657                 1.3136                 2.6624
 Frc consts  --      1.1204                 0.9564                 2.0631
 IR Inten    --      9.2482                36.9485                32.5302

                     43                     44                     45
                      A                      A                      A
 Frequencies --   1155.6818              1156.9991              1179.3712
 Red. masses --      3.2089                 1.3459                 1.5810
 Frc consts  --      2.5251                 1.0615                 1.2957
 IR Inten    --    159.9759                 2.7043                13.3438

                     46                     47                     48
                      A                      A                      A
 Frequencies --   1234.5179              1272.7407              1297.6835
 Red. masses --      2.1556                 1.4812                 1.4897
 Frc consts  --      1.9356                 1.4136                 1.4781
 IR Inten    --    144.2665                29.4906                 2.6012

                     49                     50                     51
                      A                      A                      A
 Frequencies --   1311.2195              1360.4367              1372.1139
 Red. masses --      1.4119                 1.3054                 1.3867
 Frc consts  --      1.4303                 1.4235                 1.5383
 IR Inten    --      1.2107                 5.6795                 7.8446

                     52                     53                     54
                      A                      A                      A
 Frequencies --   1395.4031              1407.8333              1423.9334
 Red. masses --      3.1776                 1.7928                 5.9303
 Frc consts  --      3.6454                 2.0936                 7.0844
 IR Inten    --     13.1833                26.6223                 2.1568

                     55                     56                     57
                      A                      A                      A
 Frequencies --   1433.2584              1441.1143              1476.3392
 Red. masses --      1.3820                 6.0720                 1.2717
 Frc consts  --      1.6727                 7.4298                 1.6331
 IR Inten    --      9.7076                17.9336                39.8743

                     58                     59                     60
                      A                      A                      A
 Frequencies --   1496.9665              1513.7567              1514.2309
 Red. masses --      1.0853                 1.0911                 1.0479
 Frc consts  --      1.4329                 1.4730                 1.4156
 IR Inten    --      2.5090                11.4615                12.7993

                     61                     62                     63
                      A                      A                      A
 Frequencies --   1522.4188              1537.0514              1541.2002
 Red. masses --      1.0621                 1.1743                 1.1841
 Frc consts  --      1.4504                 1.6346                 1.6571
 IR Inten    --     10.3596                 7.1259                 8.7061

                     64                     65                     66
                      A                      A                      A
 Frequencies --   1570.0347              1587.0143              1761.2519
 Red. masses --      2.8532                 4.0910                11.2250
 Frc consts  --      4.1438                 6.0707                20.5154
 IR Inten    --     30.4067                92.8556               195.4574

                     67                     68                     69
                      A                      A                      A
 Frequencies --   1844.0264              3059.4154              3059.8506
 Red. masses --      9.6958                 1.0364                 1.0350
 Frc consts  --     19.4253                 5.7158                 5.7092
 IR Inten    --    193.6402                60.5255                18.7108

                     70                     71                     72
                      A                      A                      A
 Frequencies --   3064.3467              3095.5816              3119.3986
 Red. masses --      1.0598                 1.0851                 1.1053
 Frc consts  --      5.8634                 6.1261                 6.3368
 IR Inten    --     27.9016                10.2685                22.9748

                     73                     74                     75
                      A                      A                      A
 Frequencies --   3125.7560              3131.6747              3150.6141
 Red. masses --      1.1021                 1.1023                 1.1033
 Frc consts  --      6.3440                 6.3693                 6.4526
 IR Inten    --     17.0058                24.9949                15.4055

                     76                     77                     78
                      A                      A                      A
 Frequencies --   3159.8521              3266.3983              3276.9897
 Red. masses --      1.1037                 1.0916                 1.0960
 Frc consts  --      6.4931                 6.8621                 6.9347
 IR Inten    --      9.1053                 1.1133                 0.3400

                     79                     80                     81
                      A                      A                      A
 Frequencies --   3292.0772              3486.1463              3674.7458
 Red. masses --      1.1022                 1.0731                 1.0638
 Frc consts  --      7.0381                 7.6840                 8.4639
 IR Inten    --      2.2040                 5.0637                29.8911

 - Thermochemistry -
 -------------------
 Temperature   298.150 Kelvin.  Pressure   1.00000 Atm.
 Atom     1 has atomic number  6 and mass  12.00000

 Molecular mass:   210.10044 amu.
 Principal axes and moments of inertia in atomic units:
                           1         2         3
     Eigenvalues --  2140.693903589.072214365.22500
           X            0.99994   0.00832  -0.00775
           Y           -0.00818   0.99979   0.01879
           Z            0.00791  -0.01873   0.99979
 This molecule is an asymmetric top.
 Rotational symmetry number  1.
 Warning -- assumption of classical behavior for rotation
           may cause significant error
 Rotational temperatures (Kelvin)      0.04046     0.02413     0.01984
 Rotational constants (GHZ):           0.84306     0.50284     0.41344
 Zero-point vibrational energy     626944.7 (Joules/Mol)
                                  149.84338 (Kcal/Mol)
 Warning -- explicit consideration of  22 degrees of freedom as
           vibrations may cause significant error
 Vibrational temperatures:     51.71    62.06    70.05    80.99   119.46
          (Kelvin)            137.00   206.29   215.35   276.10   316.11
                              339.89   344.95   366.78   437.73   515.41
                              537.13   661.18   676.08   717.33   850.13
                              860.59   885.14   916.92   926.21  1005.74
                             1014.55  1083.65  1103.49  1119.12  1175.78
                             1200.28  1253.95  1308.69  1376.41  1419.65
                             1468.52  1531.48  1558.18  1573.83  1585.60
                             1599.45  1650.04  1662.77  1664.66  1696.85
                             1776.20  1831.19  1867.08  1886.55  1957.37
                             1974.17  2007.67  2025.56  2048.72  2062.14
                             2073.44  2124.12  2153.80  2177.96  2178.64
                             2190.42  2211.47  2217.44  2258.93  2283.36
                             2534.05  2653.14  4401.82  4402.44  4408.91
                             4453.85  4488.12  4497.27  4505.78  4533.03
                             4546.32  4699.62  4714.86  4736.56  5015.79
                             5287.14

 Zero-point correction=                           0.238791 (Hartree/Particle)
 Thermal correction to Energy=                    0.254197
 Thermal correction to Enthalpy=                  0.255142
 Thermal correction to Gibbs Free Energy=         0.194720
 Sum of electronic and zero-point Energies=           -724.473383
 Sum of electronic and thermal Energies=              -724.457976
 Sum of electronic and thermal Enthalpies=            -724.457032
 Sum of electronic and thermal Free Energies=         -724.517454

                     E (Thermal)             CV                S
                      KCal/Mol        Cal/Mol-Kelvin    Cal/Mol-Kelvin
 Total                  159.511             55.829            127.168
 Electronic               0.000              0.000              0.000
 Translational            0.889              2.981             41.931
 Rotational               0.889              2.981             31.884
 Vibrational            157.734             49.867             53.353
 Vibration     1          0.594              1.982              5.471
 Vibration     2          0.595              1.980              5.110
 Vibration     3          0.595              1.978              4.870
 Vibration     4          0.596              1.975              4.583
 Vibration     5          0.600              1.961              3.818
 Vibration     6          0.603              1.953              3.550
 Vibration     7          0.616              1.910              2.758
 Vibration     8          0.618              1.903              2.676
 Vibration     9          0.634              1.851              2.209
 Vibration    10          0.647              1.811              1.962
 Vibration    11          0.655              1.785              1.831
 Vibration    12          0.657              1.780              1.805
 Vibration    13          0.665              1.754              1.696
 Vibration    14          0.695              1.666              1.393
 Vibration    15          0.733              1.558              1.130
 Vibration    16          0.745              1.527              1.066
 Vibration    17          0.817              1.340              0.767
 Vibration    18          0.827              1.317              0.738
 Vibration    19          0.854              1.253              0.662
 Vibration    20          0.948              1.051              0.466
 Vibration    21          0.956              1.036              0.453
 Vibration    22          0.975              1.000              0.424

 Optimization completed.
    -- Stationary point found.
 Normal termination of Gaussian 16 at Thu Dec 10 16:55:42 2020.

 ----------------------------------------------------------------------
 # B3LYP/6-311++G(d,p) empiricaldispersion=gd3bj scf=xqc pop=npa geom=c
 heck
 ----------------------------------------------------------------------

 --------------------------------------
 CID_82470754_JID_5728_Energie_neutraal
 --------------------------------------
 Structure from the checkpoint file:  "JID_5728.chk"
 Charge =  0 Multiplicity = 1

 SCF Done:  E(RB3LYP) =  -724.931207805     A.U. after   16 cycles
 Normal termination of Gaussian 16 at Thu Dec 10 16:59:52 2020.

 ----------------------------------------------------------------------
 # B3LYP/6-311++G(d,p) empiricaldispersion=gd3bj scf=xqc pop=npa geom=c
 heck
 ----------------------------------------------------------------------

 ------------------------------------
 CID_82470754_JID_5728_Energie_kation
 ------------------------------------
 Structure from the checkpoint file:  "JID_5728.chk"
 Charge =  1 Multiplicity = 2

 SCF Done:  E(UB3LYP) =  -724.636942942     A.U. after   33 cycles
 SCF Done:  E(UB3LYP) =  -724.637439529     a.u. after    8 cycles
 Normal termination of Gaussian 16 at Thu Dec 10 18:06:13 2020.
 Gaussian 16:  ES64L-G16RevA.03 25-Dec-2016

 ----------------------------------------------------------------------
 # B3LYP/6-311++G(d,p) empiricaldispersion=gd3bj scf=xqc pop=npa geom=c
 heck
 ----------------------------------------------------------------------

 -----------------------------------
 CID_82470754_JID_5728_Energie_anion
 -----------------------------------
 Structure from the checkpoint file:  "JID_5728.chk"
 Charge = -1 Multiplicity = 2

                         Standard orientation:
 ---------------------------------------------------------------------
 Center     Atomic      Atomic             Coordinates (Angstroms)
 Number     Number       Type             X           Y           Z
 ---------------------------------------------------------------------
      1          6           0        3.104906   -1.770468   -0.467487
      2          6           0        1.889517   -0.828327   -0.490051
      3          6           0        1.176896   -0.950564    0.857293
      4          8           0        1.436657   -0.276394    1.828957
      5          8           0        0.259444   -1.947584    0.876505
      6          7           0        2.328133    0.529614   -0.787197
      7          6           0        1.306471    1.458656   -1.291828
      8          6           0        0.271897    1.864149   -0.232623
      9          8           0        0.519966    2.793160    0.526356
     10          6           0       -0.939554    1.051396   -0.089281
     11          6           0       -1.446059    0.097218   -0.966433
     12          7           0       -2.551610   -0.465782   -0.401346
     13          6           0       -2.770166    0.110381    0.840878
     14          6           0       -1.798109    1.053143    1.056401
     15          6           0       -3.401288   -1.466785   -1.019149
     16          1           0        3.805317   -1.461490    0.315950
     17          1           0        3.618927   -1.719848   -1.430609
     18          1           0        2.799828   -2.803551   -0.270704
     19          1           0        1.200698   -1.152720   -1.275563
     20          1           0       -0.134194   -1.929459    1.769667
     21          1           0        2.744109    0.927583    0.055185
     22          1           0        1.818470    2.371502   -1.610077
     23          1           0        0.839667    1.003879   -2.172772
     24          1           0       -1.111358   -0.218314   -1.943417
     25          1           0       -3.607668   -0.205227    1.446832
     26          1           0       -1.661512    1.671425    1.931067
     27          1           0       -3.673438   -2.228113   -0.282823
     28          1           0       -4.316241   -1.018756   -1.422830
     29          1           0       -2.853871   -1.949996   -1.830960
 ---------------------------------------------------------------------

 SCF Done:  E(UB3LYP) =  -724.926976734     A.U. after   33 cycles
 SCF Done:  E(UB3LYP) =  -724.926976733     a.u. after    1 cycles

 The electronic state is 2-A.
 Alpha  occ. eigenvalues --  -19.07552 -19.02010 -18.97680 -14.26514 -14.20987
 Alpha  occ. eigenvalues --  -10.20758 -10.12521 -10.12352 -10.10594 -10.09530
 Alpha  occ. eigenvalues --  -10.09396 -10.09170 -10.08111 -10.05705 -10.05524
 Alpha  occ. eigenvalues --   -1.01493  -0.92676  -0.91143  -0.88849  -0.81869
 Alpha  occ. eigenvalues --   -0.70762  -0.68219  -0.63546  -0.60407  -0.58349
 Alpha  occ. eigenvalues --   -0.57324  -0.50791  -0.48986  -0.45910  -0.44500
 Alpha  occ. eigenvalues --   -0.43371  -0.39714  -0.39581  -0.37829  -0.36397
 Alpha  occ. eigenvalues --   -0.36312  -0.35731  -0.34083  -0.33315  -0.32444
 Alpha  occ. eigenvalues --   -0.31748  -0.31495  -0.30077  -0.29012  -0.28837
 Alpha  occ. eigenvalues --   -0.28175  -0.27079  -0.27053  -0.26357  -0.24627
 Alpha  occ. eigenvalues --   -0.22758  -0.19241  -0.16256  -0.13967  -0.12490
 Alpha  occ. eigenvalues --   -0.11688   0.03983
 Alpha virt. eigenvalues --    0.06027   0.06929   0.07219   0.08478   0.08661
 Alpha virt. eigenvalues --    0.09308   0.09565   0.10053   0.10815   0.11409
 Alpha virt. eigenvalues --    0.11494   0.12208   0.12665   0.12906   0.13366

  Beta  occ. eigenvalues --  -19.07535 -19.02004 -18.97519 -14.26498 -14.20973
  Beta  occ. eigenvalues --  -10.20753 -10.12386 -10.12344 -10.10524 -10.09440
  Beta  occ. eigenvalues --  -10.09401 -10.09172 -10.08101 -10.05722 -10.05490
  Beta  occ. eigenvalues --   -1.01468  -0.92653  -0.90848  -0.88793  -0.81838
  Beta  occ. eigenvalues --   -0.70695  -0.68184  -0.63438  -0.60254  -0.58295
  Beta  occ. eigenvalues --   -0.57272  -0.50643  -0.48926  -0.45809  -0.44400
  Beta  occ. eigenvalues --   -0.43330  -0.39698  -0.39453  -0.37739  -0.36354
  Beta  occ. eigenvalues --   -0.36235  -0.35669  -0.34014  -0.33233  -0.32417
  Beta  occ. eigenvalues --   -0.31676  -0.31397  -0.29924  -0.28951  -0.28778
  Beta  occ. eigenvalues --   -0.28007  -0.27032  -0.26968  -0.26273  -0.24244
  Beta  occ. eigenvalues --   -0.22583  -0.19228  -0.16182  -0.13728  -0.12221
  Beta  occ. eigenvalues --   -0.11595
  Beta virt. eigenvalues --    0.06565   0.07259   0.07389   0.08004   0.08995
  Beta virt. eigenvalues --    0.09041   0.09569   0.10053   0.10306   0.11102
  Beta virt. eigenvalues --    0.11510   0.11738   0.12326   0.13095   0.13381

 Mulliken charges and spin densities:
               1          2
     1  C   -0.309940  -0.278864
     2  C   -0.346219  -0.071247
     3  C    0.048531  -0.160491
     4  O   -0.195029   0.010868
     5  O   -0.031031   0.014706
     6  N    0.069745   0.044027
     7  C   -0.198116  -0.115640
     8  C   -0.406362  -0.074218
     9  O   -0.306290   0.056174
    10  C    0.476198  -0.609750
    11  C   -0.530294   0.390435
    12  N   -0.039048   0.243449
    13  C    0.407690  -0.889798
    14  C   -0.400904   0.947246
    15  C    1.983697  -2.302401
    16  H    0.108025   0.031924
    17  H    0.088625   0.077627
    18  H   -0.005988   0.150363
    19  H    0.235329   0.011061
    20  H    0.027546   0.243960
    21  H    0.254536  -0.001254
    22  H    0.181334   0.034818
    23  H   -0.111834   0.214016
    24  H   -0.259501   0.445839
    25  H   -0.237696   0.388134
    26  H    0.130043   0.051898
    27  H   -0.564438   0.723743
    28  H   -0.488529   0.690790
    29  H   -0.580079   0.732583
 Sum of Mulliken charges =  -1.00000   1.00000

 Dipole moment (field-independent basis, Debye):
    X=              5.7101    Y=              0.3688    Z=              1.3529  Tot=              5.8798
 Quadrupole moment (field-independent basis, Debye-Ang):
   XX=           -148.2335   YY=           -135.9224   ZZ=           -122.4939
   XY=            -15.7475   XZ=            -10.9337   YZ=             -7.9382

 Summary of Natural Population Analysis:

                                       Natural Population
                Natural  -----------------------------------------------
    Atom  No    Charge         Core      Valence    Rydberg      Total
 -----------------------------------------------------------------------
      C    1   -0.28089      0.99964     2.27617    0.00508     3.28089
      C    2   -0.05793      0.99955     2.04428    0.01410     3.05793
      C    3    0.40196      0.99969     1.57037    0.02798     2.59804
      O    4   -0.30688      0.99986     3.30077    0.00625     4.30688
      O    5   -0.34328      0.99987     3.33612    0.00729     4.34328
      N    6   -0.33405      0.99975     2.82283    0.01147     3.83405
      C    7   -0.12239      0.99959     2.11058    0.01221     3.12239
      C    8    0.27723      0.99959     1.70279    0.02039     2.72277
      O    9   -0.28382      0.99988     3.27773    0.00620     4.28382
      C   10   -0.12079      0.99948     2.10905    0.01225     3.12079
      C   11    0.02703      0.99951     1.96144    0.01202     2.97297
      N   12   -0.19635      0.99966     2.68537    0.01131     3.69635
      C   13   -0.02338      0.99954     2.01146    0.01238     3.02338
      C   14   -0.11455      0.99953     2.10478    0.01024     3.11455
      C   15   -0.17033      0.99963     2.16236    0.00834     3.17033
      H   16    0.09903      0.00000     0.39992    0.00105     0.40097
      H   17    0.10406      0.00000     0.39465    0.00129     0.39594
      H   18    0.10207      0.00000     0.39701    0.00093     0.39793
      H   19    0.10616      0.00000     0.39148    0.00236     0.39384
      H   20    0.24088      0.00000     0.25509    0.00403     0.25912
      H   21    0.18213      0.00000     0.31560    0.00227     0.31787
      H   22    0.10096      0.00000     0.39793    0.00110     0.39904
      H   23    0.09258      0.00000     0.40598    0.00144     0.40742
      H   24    0.10168      0.00000     0.39666    0.00166     0.39832
      H   25    0.10062      0.00000     0.39840    0.00098     0.39938
      H   26    0.11185      0.00000     0.38731    0.00084     0.38815
      H   27    0.10170      0.00000     0.39556    0.00274     0.39830
      H   28    0.10061      0.00000     0.39602    0.00338     0.39939
      H   29    0.10407      0.00000     0.39353    0.00240     0.39593
 =======================================================================
   * Total *    0.00000     14.99479    40.80122    0.20399    56.00000

 Normal termination of Gaussian 16 at Thu Dec 10 18:15:40 2020.
