 Gaussian 16, Revision A.03,

 -----------------------------------------------------------
 # opt freq B3LYP/6-31G(d) empiricaldispersion=gd3bj scf=xqc
 -----------------------------------------------------------

 -------------------------------
 CID_61788651_JID_10198_neutraal
 -------------------------------
 Symbolic Z-matrix:
 Charge =  0 Multiplicity = 1

 SCF Done:  E(RB3LYP) =  -1296.15178588     A.U. after   15 cycles
 SCF Done:  E(RB3LYP) =  -1296.16073003     A.U. after   13 cycles
 SCF Done:  E(RB3LYP) =  -1296.16214170     A.U. after   12 cycles
 SCF Done:  E(RB3LYP) =  -1296.16239862     A.U. after   11 cycles
 SCF Done:  E(RB3LYP) =  -1296.16245147     A.U. after   11 cycles
 SCF Done:  E(RB3LYP) =  -1296.16246496     A.U. after   10 cycles
 SCF Done:  E(RB3LYP) =  -1296.16247584     A.U. after    9 cycles
 SCF Done:  E(RB3LYP) =  -1296.16247940     A.U. after    9 cycles
 SCF Done:  E(RB3LYP) =  -1296.16248071     A.U. after    8 cycles
 SCF Done:  E(RB3LYP) =  -1296.16248120     A.U. after    8 cycles
 SCF Done:  E(RB3LYP) =  -1296.16248138     A.U. after    8 cycles
 SCF Done:  E(RB3LYP) =  -1296.16248147     A.U. after    9 cycles
 SCF Done:  E(RB3LYP) =  -1296.16248146     A.U. after    8 cycles
 SCF Done:  E(RB3LYP) =  -1296.16248146     A.U. after    7 cycles
 Optimization completed.
    -- Stationary point found.
 Normal termination of Gaussian 16 at Mon Dec 14 17:34:13 2020.

 --------------------------------------------------------------------
 #N Geom=AllCheck Guess=TCheck SCRF=Check GenChk RB3LYP/6-31G(d) Freq
 --------------------------------------------------------------------

 Structure from the checkpoint file:  "JID_10198.chk"
 -------------------------------
 CID_61788651_JID_10198_neutraal
 -------------------------------
 Charge =  0 Multiplicity = 1

 SCF Done:  E(RB3LYP) =  -1296.16248146     A.U. after    1 cycles

  Exact polarizability: 207.857  24.948 177.911   9.837  -6.799 155.995
 Approx polarizability: 245.114  50.564 286.512  23.182  -6.415 269.945

                      1                      2                      3
                      A                      A                      A
 Frequencies --     13.7037                24.0496                34.3937
 Red. masses --      5.9835                 2.9476                 4.0339
 Frc consts  --      0.0007                 0.0010                 0.0028
 IR Inten    --      0.0139                 0.0752                 1.3804

                      4                      5                      6
                      A                      A                      A
 Frequencies --     42.1566                72.2396                82.0960
 Red. masses --      4.0349                 5.2181                 2.5648
 Frc consts  --      0.0042                 0.0160                 0.0102
 IR Inten    --      0.1671                 1.7782                 0.5648

                      7                      8                      9
                      A                      A                      A
 Frequencies --    103.4461               118.2404               161.9580
 Red. masses --      4.1326                 3.1626                 6.7339
 Frc consts  --      0.0261                 0.0261                 0.1041
 IR Inten    --      5.4208                 1.0049                 3.5207

                     10                     11                     12
                      A                      A                      A
 Frequencies --    163.2862               200.8750               209.8193
 Red. masses --      4.8339                 4.3424                 2.9483
 Frc consts  --      0.0759                 0.1032                 0.0765
 IR Inten    --      0.2774                 3.7258                 2.1183

                     13                     14                     15
                      A                      A                      A
 Frequencies --    210.7387               248.9772               269.8354
 Red. masses --      1.8620                 2.1981                 1.6081
 Frc consts  --      0.0487                 0.0803                 0.0690
 IR Inten    --      0.3800                 0.3427                 0.6505

                     16                     17                     18
                      A                      A                      A
 Frequencies --    285.2807               305.3423               346.2658
 Red. masses --      8.8037                 3.0251                 4.6608
 Frc consts  --      0.4221                 0.1662                 0.3293
 IR Inten    --      1.1283                 0.5667                 2.5753

                     19                     20                     21
                      A                      A                      A
 Frequencies --    359.9213               375.9123               399.0211
 Red. masses --      4.7569                 2.4723                 3.6645
 Frc consts  --      0.3631                 0.2058                 0.3438
 IR Inten    --      7.6581                 1.7266                 5.0359

                     22                     23                     24
                      A                      A                      A
 Frequencies --    407.0055               434.5600               461.2859
 Red. masses --      3.4083                 2.7200                 3.1427
 Frc consts  --      0.3327                 0.3026                 0.3940
 IR Inten    --      1.1602                 1.9670                 2.7117

                     25                     26                     27
                      A                      A                      A
 Frequencies --    468.9524               478.2829               498.7747
 Red. masses --      3.3780                 3.0964                 2.9377
 Frc consts  --      0.4377                 0.4173                 0.4306
 IR Inten    --     11.1055                 4.5521                18.6847

                     28                     29                     30
                      A                      A                      A
 Frequencies --    504.4776               522.5737               558.5783
 Red. masses --      3.9722                 4.7085                 4.8887
 Frc consts  --      0.5956                 0.7576                 0.8987
 IR Inten    --      9.9437               113.6327               104.5729

                     31                     32                     33
                      A                      A                      A
 Frequencies --    612.7548               634.9429               643.1121
 Red. masses --      2.2984                 7.2631                 1.9991
 Frc consts  --      0.5085                 1.7252                 0.4871
 IR Inten    --     10.4093                 1.3996               132.3984

                     34                     35                     36
                      A                      A                      A
 Frequencies --    672.5258               715.7686               751.7151
 Red. masses --      7.2751                 1.7184                 2.0334
 Frc consts  --      1.9387                 0.5187                 0.6770
 IR Inten    --     22.5225                15.2246                48.8695

                     37                     38                     39
                      A                      A                      A
 Frequencies --    777.5001               810.7441               818.0694
 Red. masses --      2.8392                 1.6832                 3.2072
 Frc consts  --      1.0112                 0.6519                 1.2646
 IR Inten    --      6.9841                36.8159                 6.4968

                     40                     41                     42
                      A                      A                      A
 Frequencies --    829.2268               832.6259               846.8964
 Red. masses --      1.6039                 1.5261                 1.7884
 Frc consts  --      0.6498                 0.6233                 0.7557
 IR Inten    --     11.0014                17.5022                39.9059

                     43                     44                     45
                      A                      A                      A
 Frequencies --    888.7870               926.0182               941.6131
 Red. masses --      2.5052                 1.3450                 1.8608
 Frc consts  --      1.1660                 0.6795                 0.9720
 IR Inten    --    120.0498                 0.3888                 7.1989

                     46                     47                     48
                      A                      A                      A
 Frequencies --    957.5920               989.6367              1004.3108
 Red. masses --      2.2876                 1.5557                 2.2209
 Frc consts  --      1.2359                 0.8977                 1.3198
 IR Inten    --      3.8607                21.9022                11.0755

                     49                     50                     51
                      A                      A                      A
 Frequencies --   1005.1940              1010.7508              1015.4246
 Red. masses --      2.8051                 1.2766                 1.7354
 Frc consts  --      1.6699                 0.7684                 1.0542
 IR Inten    --      3.6849                 0.1630                 7.9113

                     52                     53                     54
                      A                      A                      A
 Frequencies --   1053.3016              1076.9613              1096.8282
 Red. masses --      2.2739                 3.4559                 6.1138
 Frc consts  --      1.4864                 2.3616                 4.3335
 IR Inten    --      6.8883                83.0368                83.2648

                     55                     56                     57
                      A                      A                      A
 Frequencies --   1105.4606              1113.1837              1127.7309
 Red. masses --      2.3481                 2.4739                 2.4499
 Frc consts  --      1.6906                 1.8062                 1.8358
 IR Inten    --      8.0436                 2.6432                20.6926

                     58                     59                     60
                      A                      A                      A
 Frequencies --   1138.4590              1148.5791              1157.0867
 Red. masses --      1.8614                 2.0843                 3.0403
 Frc consts  --      1.4215                 1.6200                 2.3983
 IR Inten    --     32.6189                25.2467               187.2447

                     61                     62                     63
                      A                      A                      A
 Frequencies --   1175.7695              1186.1841              1197.7883
 Red. masses --      2.1937                 2.3958                 1.3104
 Frc consts  --      1.7868                 1.9861                 1.1077
 IR Inten    --      7.7443                43.3105                 4.5902

                     64                     65                     66
                      A                      A                      A
 Frequencies --   1230.7583              1232.6922              1242.7423
 Red. masses --      1.7131                 1.6256                 1.7456
 Frc consts  --      1.5289                 1.4554                 1.5884
 IR Inten    --     11.5706                 2.0348                42.0336

                     67                     68                     69
                      A                      A                      A
 Frequencies --   1257.8543              1293.5955              1308.9744
 Red. masses --      1.3289                 1.3872                 1.6266
 Frc consts  --      1.2388                 1.3677                 1.6421
 IR Inten    --     19.0652                14.7515                15.6760

                     70                     71                     72
                      A                      A                      A
 Frequencies --   1320.9186              1328.6517              1339.7133
 Red. masses --      1.2847                 2.9207                 1.2331
 Frc consts  --      1.3207                 3.0378                 1.3040
 IR Inten    --      8.7133               102.2684                10.9017

                     73                     74                     75
                      A                      A                      A
 Frequencies --   1358.4178              1359.0292              1365.3709
 Red. masses --      1.5636                 1.3833                 1.2937
 Frc consts  --      1.7000                 1.5053                 1.4210
 IR Inten    --      4.3782                18.2103                17.9851

                     76                     77                     78
                      A                      A                      A
 Frequencies --   1393.9237              1399.4835              1409.0769
 Red. masses --      1.2930                 1.2591                 1.4710
 Frc consts  --      1.4803                 1.4529                 1.7208
 IR Inten    --     13.7671                21.7808                11.0314

                     79                     80                     81
                      A                      A                      A
 Frequencies --   1417.5388              1426.9337              1440.7274
 Red. masses --      1.3315                 1.5940                 1.3118
 Frc consts  --      1.5764                 1.9122                 1.6042
 IR Inten    --     11.1972                 6.1938                24.6959

                     82                     83                     84
                      A                      A                      A
 Frequencies --   1453.3669              1458.5509              1463.5046
 Red. masses --      1.3163                 1.4378                 2.1157
 Frc consts  --      1.6381                 1.8022                 2.6699
 IR Inten    --     44.2850                 4.9745                 7.3546

                     85                     86                     87
                      A                      A                      A
 Frequencies --   1489.5249              1502.8042              1516.6500
 Red. masses --      2.8393                 1.0927                 1.0902
 Frc consts  --      3.7116                 1.4540                 1.4774
 IR Inten    --      7.1156                 0.3956                 4.6269

                     88                     89                     90
                      A                      A                      A
 Frequencies --   1518.7124              1525.0916              1528.1801
 Red. masses --      1.0799                 1.0532                 1.0735
 Frc consts  --      1.4675                 1.4433                 1.4771
 IR Inten    --      2.1961                 5.9925                 2.2180

                     91                     92                     93
                      A                      A                      A
 Frequencies --   1534.6398              1538.5478              1549.7242
 Red. masses --      1.0749                 1.0821                 1.0953
 Frc consts  --      1.4915                 1.5092                 1.5498
 IR Inten    --      1.6082                 8.5318                 5.4716

                     94                     95                     96
                      A                      A                      A
 Frequencies --   1598.1760              1673.9188              1806.3094
 Red. masses --      5.1981                 5.3700                 8.6501
 Frc consts  --      7.8224                 8.8654                16.6286
 IR Inten    --     57.9404                56.0928               630.6319

                     97                     98                     99
                      A                      A                      A
 Frequencies --   2895.9534              2902.9563              2922.8422
 Red. masses --      1.0742                 1.0731                 1.0734
 Frc consts  --      5.3080                 5.3282                 5.4028
 IR Inten    --     23.2817                50.9242               141.0407

                    100                    101                    102
                      A                      A                      A
 Frequencies --   3026.4074              3034.9481              3036.7348
 Red. masses --      1.0804                 1.0596                 1.0620
 Frc consts  --      5.8302                 5.7501                 5.7700
 IR Inten    --      2.8368                35.6500                 8.3540

                    103                    104                    105
                      A                      A                      A
 Frequencies --   3044.6387              3058.2058              3066.4327
 Red. masses --      1.0618                 1.0357                 1.0875
 Frc consts  --      5.7991                 5.7069                 6.0248
 IR Inten    --     37.4917                17.6304                 7.7907

                    106                    107                    108
                      A                      A                      A
 Frequencies --   3078.2195              3081.3021              3083.7435
 Red. masses --      1.1004                 1.0905                 1.1031
 Frc consts  --      6.1433                 6.1002                 6.1806
 IR Inten    --     49.5523                34.7309                17.9778

                    109                    110                    111
                      A                      A                      A
 Frequencies --   3093.6351              3108.8405              3125.6964
 Red. masses --      1.1026                 1.0880                 1.1000
 Frc consts  --      6.2172                 6.1956                 6.3317
 IR Inten    --     61.7553                37.3757                40.8272

                    112                    113                    114
                      A                      A                      A
 Frequencies --   3133.7421              3220.0562              3242.0921
 Red. masses --      1.1028                 1.0892                 1.0946
 Frc consts  --      6.3806                 6.6539                 6.7790
 IR Inten    --     32.4261                 0.2984                 0.8593

                    115                    116                    117
                      A                      A                      A
 Frequencies --   3244.6485              3515.0794              3590.9074
 Red. masses --      1.0941                 1.0740                 1.0781
 Frc consts  --      6.7867                 7.8187                 8.1909
 IR Inten    --      2.0098                23.4758                67.4319

 - Thermochemistry -
 -------------------
 Temperature   298.150 Kelvin.  Pressure   1.00000 Atm.
 Atom     1 has atomic number  6 and mass  12.00000

 Molecular mass:   299.13036 amu.
 Principal axes and moments of inertia in atomic units:
                           1         2         3
     Eigenvalues --  3194.90056********************
           X            0.99997  -0.00793  -0.00071
           Y            0.00791   0.99968  -0.02390
           Z            0.00090   0.02389   0.99971
 This molecule is an asymmetric top.
 Rotational symmetry number  1.
 Warning -- assumption of classical behavior for rotation
           may cause significant error
 Rotational temperatures (Kelvin)      0.02711     0.00584     0.00524
 Rotational constants (GHZ):           0.56488     0.12177     0.10921
 Zero-point vibrational energy     911648.8 (Joules/Mol)
                                  217.88929 (Kcal/Mol)
 Warning -- explicit consideration of  31 degrees of freedom as
           vibrations may cause significant error
 Vibrational temperatures:     19.72    34.60    49.48    60.65   103.94
          (Kelvin)            118.12   148.84   170.12   233.02   234.93
                              289.01   301.88   303.21   358.22   388.23
                              410.46   439.32   498.20   517.85   540.85
                              574.10   585.59   625.23   663.69   674.72
                              688.14   717.63   725.83   751.87   803.67
                              881.62   913.54   925.29   967.61  1029.83
                             1081.55  1118.65  1166.48  1177.02  1193.07
                             1197.96  1218.49  1278.77  1332.33  1354.77
                             1377.76  1423.87  1444.98  1446.25  1454.25
                             1460.97  1515.47  1549.51  1578.09  1590.51
                             1601.62  1622.55  1637.99  1652.55  1664.79
                             1691.67  1706.65  1723.35  1770.79  1773.57
                             1788.03  1809.77  1861.20  1883.32  1900.51
                             1911.63  1927.55  1954.46  1955.34  1964.46
                             2005.55  2013.54  2027.35  2039.52  2053.04
                             2072.89  2091.07  2098.53  2105.66  2143.09
                             2162.20  2182.12  2185.09  2194.27  2198.71
                             2208.00  2213.63  2229.71  2299.42  2408.40
                             2598.88  4166.63  4176.71  4205.32  4354.33
                             4366.61  4369.18  4380.56  4400.08  4411.91
                             4428.87  4433.31  4436.82  4451.05  4472.93
                             4497.18  4508.76  4632.94  4664.65  4668.33
                             5057.42  5166.51

 Zero-point correction=                           0.347229 (Hartree/Particle)
 Thermal correction to Energy=                    0.366866
 Thermal correction to Enthalpy=                  0.367810
 Thermal correction to Gibbs Free Energy=         0.296302
 Sum of electronic and zero-point Energies=          -1295.815253
 Sum of electronic and thermal Energies=             -1295.795616
 Sum of electronic and thermal Enthalpies=           -1295.794671
 Sum of electronic and thermal Free Energies=        -1295.866180

                     E (Thermal)             CV                S
                      KCal/Mol        Cal/Mol-Kelvin    Cal/Mol-Kelvin
 Total                  230.212             74.792            150.501
 Electronic               0.000              0.000              0.000
 Translational            0.889              2.981             42.984
 Rotational               0.889              2.981             35.013
 Vibrational            228.434             68.830             72.504
 Vibration     1          0.593              1.986              7.385
 Vibration     2          0.593              1.985              6.268
 Vibration     3          0.594              1.983              5.558
 Vibration     4          0.595              1.980              5.155
 Vibration     5          0.598              1.967              4.091
 Vibration     6          0.600              1.961              3.840
 Vibration     7          0.605              1.946              3.388
 Vibration     8          0.608              1.934              3.129
 Vibration     9          0.622              1.889              2.527
 Vibration    10          0.623              1.887              2.511
 Vibration    11          0.638              1.839              2.125
 Vibration    12          0.642              1.826              2.045
 Vibration    13          0.643              1.824              2.037
 Vibration    14          0.662              1.764              1.738
 Vibration    15          0.674              1.729              1.597
 Vibration    16          0.683              1.701              1.502
 Vibration    17          0.696              1.664              1.387
 Vibration    18          0.724              1.583              1.183
 Vibration    19          0.734              1.555              1.122
 Vibration    20          0.747              1.521              1.056
 Vibration    21          0.765              1.472              0.966
 Vibration    22          0.772              1.455              0.937
 Vibration    23          0.795              1.395              0.844
 Vibration    24          0.819              1.336              0.762
 Vibration    25          0.826              1.319              0.740
 Vibration    26          0.835              1.298              0.715
 Vibration    27          0.854              1.253              0.661
 Vibration    28          0.860              1.240              0.647
 Vibration    29          0.878              1.200              0.604
 Vibration    30          0.914              1.121              0.527
 Vibration    31          0.972              1.005              0.428

 Optimization completed.
    -- Stationary point found.
 Normal termination of Gaussian 16 at Mon Dec 14 17:52:43 2020.

 ----------------------------------------------------------------------
 # B3LYP/6-311++G(d,p) empiricaldispersion=gd3bj scf=xqc pop=npa geom=c
 heck
 ----------------------------------------------------------------------

 ---------------------------------------
 CID_61788651_JID_10198_Energie_neutraal
 ---------------------------------------
 Structure from the checkpoint file:  "JID_10198.chk"
 Charge =  0 Multiplicity = 1

 SCF Done:  E(RB3LYP) =  -1296.44685114     A.U. after   16 cycles
 Normal termination of Gaussian 16 at Mon Dec 14 18:02:46 2020.

 ----------------------------------------------------------------------
 # B3LYP/6-311++G(d,p) empiricaldispersion=gd3bj scf=xqc pop=npa geom=c
 heck
 ----------------------------------------------------------------------

 -------------------------------------
 CID_61788651_JID_10198_Energie_kation
 -------------------------------------
 Structure from the checkpoint file:  "JID_10198.chk"
 Charge =  1 Multiplicity = 2

 SCF Done:  E(UB3LYP) =  -1296.15424282     A.U. after   33 cycles
 SCF Done:  E(UB3LYP) =  -1296.15424282     a.u. after    1 cycles
 Normal termination of Gaussian 16 at Mon Dec 14 18:32:07 2020.
 Gaussian 16:  ES64L-G16RevA.03 25-Dec-2016

 ----------------------------------------------------------------------
 # B3LYP/6-311++G(d,p) empiricaldispersion=gd3bj scf=xqc pop=npa geom=c
 heck
 ----------------------------------------------------------------------

 ------------------------------------
 CID_61788651_JID_10198_Energie_anion
 ------------------------------------
 Structure from the checkpoint file:  "JID_10198.chk"
 Charge = -1 Multiplicity = 2

                         Standard orientation:
 ---------------------------------------------------------------------
 Center     Atomic      Atomic             Coordinates (Angstroms)
 Number     Number       Type             X           Y           Z
 ---------------------------------------------------------------------
      1          6           0        6.851272   -1.200053    0.472426
      2          6           0        5.949521   -0.614856   -0.613326
      3          7           0        4.628262   -0.224132   -0.121660
      4          6           0        3.924353    0.602863   -1.098213
      5          6           0        2.610249    1.138122   -0.527230
      6          6           0        1.700236   -0.007746   -0.061706
      7          6           0        2.489751   -0.918349    0.888205
      8          6           0        3.808342   -1.371791    0.260926
      9          6           0        0.422281    0.486456    0.617274
     10          7           0       -0.410611    1.247485   -0.328949
     11         16           0       -1.913619    1.769484    0.243835
     12          8           0       -1.856090    2.082240    1.676692
     13          8           0       -2.361438    2.761145   -0.739269
     14          6           0       -2.903100    0.309621    0.081879
     15          6           0       -3.495839    0.041799   -1.120427
     16          7           0       -4.247220   -1.073790   -1.258932
     17          6           0       -4.488712   -2.040991   -0.243385
     18          8           0       -5.177395   -3.019115   -0.494700
     19          6           0       -3.856042   -1.708012    1.021652
     20          6           0       -3.103590   -0.582425    1.177742
     21          1           0        6.901532   -0.520051    1.328998
     22          1           0        7.864194   -1.343052    0.080774
     23          1           0        6.499870   -2.173675    0.828479
     24          1           0        6.423436    0.289963   -1.011908
     25          1           0        5.870369   -1.326247   -1.460477
     26          1           0        3.712728    0.037837   -2.030667
     27          1           0        4.575372    1.440014   -1.373658
     28          1           0        2.118360    1.746211   -1.297449
     29          1           0        2.833606    1.794414    0.324473
     30          1           0        1.406721   -0.594648   -0.943995
     31          1           0        2.711248   -0.374230    1.815585
     32          1           0        1.891196   -1.797680    1.157532
     33          1           0        4.360764   -1.978919    0.982864
     34          1           0        3.597677   -2.021195   -0.615355
     35          1           0       -0.168577   -0.376225    0.945227
     36          1           0        0.664742    1.077808    1.510885
     37          1           0        0.057178    2.070673   -0.706958
     38          1           0       -3.398914    0.698135   -1.977443
     39          1           0       -4.702553   -1.277858   -2.141839
     40          1           0       -4.028044   -2.399438    1.838011
     41          1           0       -2.658961   -0.332511    2.135667
 ---------------------------------------------------------------------

 SCF Done:  E(UB3LYP) =  -1296.46200925     A.U. after   33 cycles
 SCF Done:  E(UB3LYP) =  -1296.46200925     a.u. after    1 cycles

 The electronic state is 2-A.
 Alpha  occ. eigenvalues --  -88.95384 -19.00944 -19.00833 -18.95930 -14.24228
 Alpha  occ. eigenvalues --  -14.23358 -14.22993 -10.14401 -10.12284 -10.12158
 Alpha  occ. eigenvalues --  -10.11989 -10.11813 -10.10049 -10.09595 -10.09379
 Alpha  occ. eigenvalues --  -10.09053 -10.08550 -10.07249 -10.05638 -10.03108
 Alpha  occ. eigenvalues --   -8.01537  -5.97833  -5.97798  -5.97602  -1.01108
 Alpha  occ. eigenvalues --   -0.91338  -0.90188  -0.86069  -0.83043  -0.82849
 Alpha  occ. eigenvalues --   -0.73889  -0.69858  -0.68600  -0.67693  -0.64082
 Alpha  occ. eigenvalues --   -0.61876  -0.56924  -0.55405  -0.55083  -0.52161
 Alpha  occ. eigenvalues --   -0.51384  -0.49300  -0.48445  -0.44475  -0.42599
 Alpha  occ. eigenvalues --   -0.41623  -0.40718  -0.39788  -0.38230  -0.37992
 Alpha  occ. eigenvalues --   -0.37058  -0.36587  -0.36460  -0.35485  -0.35047
 Alpha  occ. eigenvalues --   -0.33835  -0.33231  -0.31968  -0.31747  -0.31463
 Alpha  occ. eigenvalues --   -0.31126  -0.30037  -0.29032  -0.28424  -0.28039
 Alpha  occ. eigenvalues --   -0.27395  -0.25758  -0.25083  -0.25040  -0.24186
 Alpha  occ. eigenvalues --   -0.23871  -0.23021  -0.21915  -0.21006  -0.20043
 Alpha  occ. eigenvalues --   -0.18853  -0.17354  -0.15193  -0.13757  -0.10472
 Alpha  occ. eigenvalues --    0.03307
 Alpha virt. eigenvalues --    0.04275   0.06071   0.06695   0.06762   0.08136
 Alpha virt. eigenvalues --    0.08542   0.08949   0.09369   0.09549   0.09880
 Alpha virt. eigenvalues --    0.10180   0.10439   0.11066   0.11632   0.12394

  Beta  occ. eigenvalues --  -88.95382 -19.00944 -19.00823 -18.95921 -14.24230
  Beta  occ. eigenvalues --  -14.23353 -14.22667 -10.14417 -10.12272 -10.12153
  Beta  occ. eigenvalues --  -10.11984 -10.11804 -10.10049 -10.09594 -10.09378
  Beta  occ. eigenvalues --  -10.09034 -10.08010 -10.07366 -10.05397 -10.02865
  Beta  occ. eigenvalues --   -8.01534  -5.97827  -5.97795  -5.97599  -1.01097
  Beta  occ. eigenvalues --   -0.91209  -0.90177  -0.86059  -0.82999  -0.82292
  Beta  occ. eigenvalues --   -0.73881  -0.69472  -0.68591  -0.67657  -0.63646
  Beta  occ. eigenvalues --   -0.61763  -0.56751  -0.55288  -0.54894  -0.51689
  Beta  occ. eigenvalues --   -0.51241  -0.49090  -0.48431  -0.44304  -0.42568
  Beta  occ. eigenvalues --   -0.41613  -0.40592  -0.39747  -0.38157  -0.37910
  Beta  occ. eigenvalues --   -0.37032  -0.36560  -0.36266  -0.35365  -0.34930
  Beta  occ. eigenvalues --   -0.33743  -0.33196  -0.31943  -0.31556  -0.31110
  Beta  occ. eigenvalues --   -0.30343  -0.29988  -0.29004  -0.28322  -0.28031
  Beta  occ. eigenvalues --   -0.27375  -0.25748  -0.25037  -0.24885  -0.24172
  Beta  occ. eigenvalues --   -0.23845  -0.22146  -0.21881  -0.20962  -0.19949
  Beta  occ. eigenvalues --   -0.17840  -0.16590  -0.15166  -0.13647  -0.09249
  Beta virt. eigenvalues --    0.04769   0.06145   0.06680   0.06791   0.08163
  Beta virt. eigenvalues --    0.08552   0.08937   0.09386   0.09474   0.09571
  Beta virt. eigenvalues --    0.09765   0.10416   0.10804   0.11112   0.11660

 Mulliken charges and spin densities:
               1          2
     1  C    0.200399  -0.731443
     2  C   -0.196589   0.118973
     3  N    0.191197   0.053909
     4  C   -0.228799  -0.298790
     5  C   -0.481446   0.177770
     6  C    0.463072   0.032901
     7  C   -0.206915  -0.086658
     8  C   -0.550584  -0.111729
     9  C   -1.009437  -0.008920
    10  N    0.032464   0.011978
    11  S    0.387745  -0.015696
    12  O   -0.165394   0.010479
    13  O   -0.267487  -0.012734
    14  C   -1.048796  -0.039569
    15  C   -0.000097   0.396017
    16  N   -0.268527   0.102870
    17  C   -0.147038  -0.004026
    18  O   -0.417037   0.004005
    19  C   -0.474974   0.231596
    20  C    0.794430   0.143873
    21  H    0.093696   0.050853
    22  H   -0.218221   0.356046
    23  H   -0.061346   0.192165
    24  H   -0.142196   0.265966
    25  H    0.058452   0.036652
    26  H    0.088487   0.036492
    27  H    0.096597   0.076378
    28  H    0.067494   0.008120
    29  H    0.183468   0.003553
    30  H    0.202289  -0.007123
    31  H    0.169227  -0.003410
    32  H    0.127632   0.015408
    33  H    0.178948  -0.016631
    34  H    0.059138   0.055152
    35  H    0.153501   0.003856
    36  H    0.186220   0.000924
    37  H    0.310825   0.011966
    38  H    0.186953  -0.023728
    39  H    0.299025  -0.006718
    40  H    0.151704  -0.014122
    41  H    0.201915  -0.016606
 Sum of Mulliken charges =  -1.00000   1.00000

 Dipole moment (field-independent basis, Debye):
    X=              7.5548    Y=              1.8950    Z=             -1.1767  Tot=              7.8772
 Quadrupole moment (field-independent basis, Debye-Ang):
   XX=           -261.2585   YY=           -175.0049   ZZ=           -141.5506
   XY=            -11.4214   XZ=              6.1630   YZ=             -5.1985

 Summary of Natural Population Analysis:

                                       Natural Population
                Natural  -----------------------------------------------
    Atom  No    Charge         Core      Valence    Rydberg      Total
 -----------------------------------------------------------------------
      C    1   -0.29160      0.99966     2.28627    0.00567     3.29160
      C    2   -0.08402      0.99963     2.07219    0.01219     3.08402
      N    3   -0.28252      0.99970     2.77036    0.01246     3.78252
      C    4   -0.08386      0.99962     2.07124    0.01300     3.08386
      C    5   -0.19476      0.99961     2.18688    0.00827     3.19476
      C    6   -0.11510      0.99959     2.10551    0.01000     3.11510
      C    7   -0.19116      0.99961     2.18354    0.00801     3.19116
      C    8   -0.08321      0.99962     2.07419    0.00941     3.08321
      C    9   -0.09160      0.99959     2.08102    0.01099     3.09160
      N   10   -0.43181      0.99975     2.91910    0.01297     3.93181
      S   11    1.10786      4.99919     1.79228    0.10066     6.89214
      O   12   -0.46820      0.99991     3.46324    0.00505     4.46820
      O   13   -0.47196      0.99991     3.46670    0.00535     4.47196
      C   14   -0.22486      0.99936     2.21087    0.01463     3.22486
      C   15    0.14630      0.99952     1.84238    0.01180     2.85370
      N   16   -0.24092      0.99966     2.73370    0.00755     3.74092
      C   17    0.31352      0.99964     1.66488    0.02196     2.68648
      O   18   -0.34382      0.99988     3.33649    0.00745     4.34382
      C   19   -0.12141      0.99952     2.11255    0.00934     3.12141
      C   20   -0.04021      0.99953     2.03031    0.01037     3.04021
      H   21    0.10079      0.00000     0.39783    0.00138     0.39921
      H   22    0.10130      0.00000     0.39778    0.00092     0.39870
      H   23    0.09578      0.00000     0.40312    0.00110     0.40422
      H   24    0.09407      0.00000     0.40441    0.00151     0.40593
      H   25    0.07873      0.00000     0.41977    0.00150     0.42127
      H   26    0.07892      0.00000     0.41954    0.00153     0.42108
      H   27    0.09680      0.00000     0.40205    0.00115     0.40320
      H   28    0.09834      0.00000     0.40053    0.00114     0.40166
      H   29    0.09893      0.00000     0.39956    0.00152     0.40107
      H   30    0.09940      0.00000     0.39865    0.00195     0.40060
      H   31    0.09854      0.00000     0.39992    0.00155     0.40146
      H   32    0.10201      0.00000     0.39671    0.00127     0.39799
      H   33    0.09755      0.00000     0.40102    0.00143     0.40245
      H   34    0.07846      0.00000     0.41994    0.00160     0.42154
      H   35    0.10639      0.00000     0.39225    0.00136     0.39361
      H   36    0.09206      0.00000     0.40656    0.00138     0.40794
      H   37    0.18641      0.00000     0.30971    0.00388     0.31359
      H   38    0.09779      0.00000     0.40112    0.00109     0.40221
      H   39    0.18982      0.00000     0.30763    0.00255     0.31018
      H   40    0.09809      0.00000     0.40088    0.00103     0.40191
      H   41    0.10314      0.00000     0.39572    0.00114     0.39686
 =======================================================================
   * Total *   -0.00000     23.99250    55.67838    0.32912    80.00000

 Normal termination of Gaussian 16 at Mon Dec 14 19:01:56 2020.
