 Gaussian 16, Revision A.03,

 -----------------------------------------------------------
 # opt freq B3LYP/6-31G(d) empiricaldispersion=gd3bj scf=xqc
 -----------------------------------------------------------

 ------------------------------
 CID_125476301_JID_966_neutraal
 ------------------------------
 Symbolic Z-matrix:
 Charge =  0 Multiplicity = 1

 SCF Done:  E(RB3LYP) =  -388.215946323     A.U. after   15 cycles
 SCF Done:  E(RB3LYP) =  -388.236129439     A.U. after   13 cycles
 SCF Done:  E(RB3LYP) =  -388.237245286     A.U. after   13 cycles
 SCF Done:  E(RB3LYP) =  -388.228711884     A.U. after   15 cycles
 SCF Done:  E(RB3LYP) =  -388.236358921     A.U. after   12 cycles
 SCF Done:  E(RB3LYP) =  -388.237394324     A.U. after   10 cycles
 SCF Done:  E(RB3LYP) =  -388.237507669     A.U. after   11 cycles
 SCF Done:  E(RB3LYP) =  -388.237538383     A.U. after   11 cycles
 SCF Done:  E(RB3LYP) =  -388.237538570     A.U. after   10 cycles
 SCF Done:  E(RB3LYP) =  -388.237544809     A.U. after    9 cycles
 SCF Done:  E(RB3LYP) =  -388.237544946     A.U. after    7 cycles
 SCF Done:  E(RB3LYP) =  -388.237544984     A.U. after    7 cycles
 Optimization completed.
    -- Stationary point found.
 Normal termination of Gaussian 16 at Tue Dec  8 14:03:02 2020.

 --------------------------------------------------------------------
 #N Geom=AllCheck Guess=TCheck SCRF=Check GenChk RB3LYP/6-31G(d) Freq
 --------------------------------------------------------------------

 Structure from the checkpoint file:  "JID_966.chk"
 ------------------------------
 CID_125476301_JID_966_neutraal
 ------------------------------
 Charge =  0 Multiplicity = 1

 SCF Done:  E(RB3LYP) =  -388.237544984     A.U. after    1 cycles

  Exact polarizability: 194.715 -15.793  91.204   2.413  -1.984  57.159
 Approx polarizability: 290.431 -44.984 144.758   6.754  -4.966  86.359

                      1                      2                      3
                      A                      A                      A
 Frequencies --     71.4174               105.2579               139.4083
 Red. masses --      3.5205                 4.0009                 2.2025
 Frc consts  --      0.0106                 0.0261                 0.0252
 IR Inten    --      0.1507                 0.3972                 0.0993

                      4                      5                      6
                      A                      A                      A
 Frequencies --    154.4191               233.4033               271.0864
 Red. masses --      2.5159                 4.6313                 2.0965
 Frc consts  --      0.0353                 0.1487                 0.0908
 IR Inten    --      0.6889                 0.7372                 0.1114

                      7                      8                      9
                      A                      A                      A
 Frequencies --    318.9318               365.0414               426.1157
 Red. masses --      1.8023                 4.7194                 2.5924
 Frc consts  --      0.1080                 0.3705                 0.2773
 IR Inten    --      0.3469                 1.2495                 0.4439

                     10                     11                     12
                      A                      A                      A
 Frequencies --    468.9078               498.4164               529.1694
 Red. masses --      2.8192                 4.1899                 2.8645
 Frc consts  --      0.3652                 0.6132                 0.4726
 IR Inten    --      0.4141                 0.5975                10.6754

                     13                     14                     15
                      A                      A                      A
 Frequencies --    538.4157               558.8061               623.8760
 Red. masses --      2.0836                 1.8818                 1.2236
 Frc consts  --      0.3559                 0.3462                 0.2806
 IR Inten    --     16.3488                27.5076                44.4747

                     16                     17                     18
                      A                      A                      A
 Frequencies --    695.2478               792.7965               817.2546
 Red. masses --      2.4921                 3.2344                 1.3296
 Frc consts  --      0.7097                 1.1977                 0.5232
 IR Inten    --      5.5812                 1.2703                 7.3489

                     19                     20                     21
                      A                      A                      A
 Frequencies --    838.8387               878.9913               893.0231
 Red. masses --      1.6290                 2.4624                 1.6726
 Frc consts  --      0.6753                 1.1209                 0.7859
 IR Inten    --      2.9398                 0.0638                 0.9110

                     22                     23                     24
                      A                      A                      A
 Frequencies --    939.7407               947.6102               995.2771
 Red. masses --      2.0847                 1.5065                 2.0770
 Frc consts  --      1.0847                 0.7971                 1.2122
 IR Inten    --      2.7711                 1.9397                11.2636

                     25                     26                     27
                      A                      A                      A
 Frequencies --    999.3080              1043.1805              1078.2155
 Red. masses --      1.3423                 3.0442                 2.1780
 Frc consts  --      0.7898                 1.9518                 1.4919
 IR Inten    --     19.6838                 9.1687                 0.8527

                     28                     29                     30
                      A                      A                      A
 Frequencies --   1102.3792              1110.6909              1172.4041
 Red. masses --      1.6286                 1.8612                 1.1707
 Frc consts  --      1.1661                 1.3528                 0.9481
 IR Inten    --      2.6760                 0.7165                 4.2189

                     31                     32                     33
                      A                      A                      A
 Frequencies --   1210.1117              1230.2988              1282.2026
 Red. masses --      1.4765                 1.8541                 1.2782
 Frc consts  --      1.2739                 1.6535                 1.2381
 IR Inten    --      0.3626                 3.4032                 5.0866

                     34                     35                     36
                      A                      A                      A
 Frequencies --   1309.2271              1318.7612              1342.6933
 Red. masses --      1.2060                 1.4049                 1.3756
 Frc consts  --      1.2179                 1.4395                 1.4611
 IR Inten    --      1.8678                 0.8055                 1.6987

                     37                     38                     39
                      A                      A                      A
 Frequencies --   1363.8764              1389.0097              1397.7213
 Red. masses --      1.2677                 1.4184                 1.6498
 Frc consts  --      1.3893                 1.6123                 1.8990
 IR Inten    --      1.5028                 3.9566                 4.4856

                     40                     41                     42
                      A                      A                      A
 Frequencies --   1404.9301              1432.0469              1501.0097
 Red. masses --      1.5464                 1.9409                 1.0935
 Frc consts  --      1.7984                 2.3451                 1.4516
 IR Inten    --     10.3349                 0.0515                 1.9022

                     43                     44                     45
                      A                      A                      A
 Frequencies --   1511.0428              1520.7235              1531.3415
 Red. masses --      1.0836                 1.0894                 1.1023
 Frc consts  --      1.4577                 1.4844                 1.5230
 IR Inten    --      2.6765                 3.7627                 0.8236

                     46                     47                     48
                      A                      A                      A
 Frequencies --   1672.9869              1702.9211              2215.9044
 Red. masses --      5.3583                 6.0977                 6.2225
 Frc consts  --      8.8361                10.4185                18.0019
 IR Inten    --      6.5977                31.0702                 7.8055

                     49                     50                     51
                      A                      A                      A
 Frequencies --   2998.8190              3020.6470              3034.3698
 Red. masses --      1.0712                 1.0679                 1.0691
 Frc consts  --      5.6755                 5.7411                 5.7996
 IR Inten    --     36.0597                18.9107                19.7026

                     52                     53                     54
                      A                      A                      A
 Frequencies --   3039.0844              3052.4462              3066.3176
 Red. masses --      1.0659                 1.0834                 1.0922
 Frc consts  --      5.8001                 5.9473                 6.0504
 IR Inten    --     15.1448                56.5079                31.9802

                     55                     56                     57
                      A                      A                      A
 Frequencies --   3085.7107              3089.2608              3154.3229
 Red. masses --      1.0965                 1.1052                 1.0891
 Frc consts  --      6.1514                 6.2143                 6.3844
 IR Inten    --     65.4372                53.9679                17.6552

                     58                     59                     60
                      A                      A                      A
 Frequencies --   3168.6694              3178.1027              3497.4452
 Red. masses --      1.0909                 1.0849                 1.1545
 Frc consts  --      6.4534                 6.4560                 8.3202
 IR Inten    --      7.1463                22.6844                90.0200

 - Thermochemistry -
 -------------------
 Temperature   298.150 Kelvin.  Pressure   1.00000 Atm.
 Atom     1 has atomic number  6 and mass  12.00000

 Molecular mass:   132.09390 amu.
 Principal axes and moments of inertia in atomic units:
                           1         2         3
     Eigenvalues --   427.961973121.010143472.36351
           X            1.00000   0.00262  -0.00058
           Y           -0.00262   0.99999  -0.00247
           Z            0.00058   0.00247   1.00000
 This molecule is an asymmetric top.
 Rotational symmetry number  1.
 Rotational temperatures (Kelvin)      0.20239     0.02775     0.02494
 Rotational constants (GHZ):           4.21706     0.57826     0.51974
 Zero-point vibrational energy     498421.9 (Joules/Mol)
                                  119.12569 (Kcal/Mol)
 Warning -- explicit consideration of  14 degrees of freedom as
           vibrations may cause significant error
 Vibrational temperatures:    102.75   151.44   200.58   222.17   335.82
          (Kelvin)            390.03   458.87   525.21   613.09   674.65
                              717.11   761.36   774.66   804.00   897.62
                             1000.31  1140.66  1175.85  1206.90  1264.67
                             1284.86  1352.08  1363.40  1431.98  1437.78
                             1500.90  1551.31  1586.08  1598.04  1686.83
                             1741.08  1770.13  1844.80  1883.69  1897.40
                             1931.84  1962.31  1998.48  2011.01  2021.38
                             2060.40  2159.62  2174.05  2187.98  2203.26
                             2407.06  2450.12  3188.19  4314.63  4346.04
                             4365.78  4372.56  4391.79  4411.75  4439.65
                             4444.76  4538.37  4559.01  4572.58  5032.04

 Zero-point correction=                           0.189839 (Hartree/Particle)
 Thermal correction to Energy=                    0.199561
 Thermal correction to Enthalpy=                  0.200505
 Thermal correction to Gibbs Free Energy=         0.154965
 Sum of electronic and zero-point Energies=           -388.047706
 Sum of electronic and thermal Energies=              -388.037984
 Sum of electronic and thermal Enthalpies=            -388.037040
 Sum of electronic and thermal Free Energies=         -388.082580

                     E (Thermal)             CV                S
                      KCal/Mol        Cal/Mol-Kelvin    Cal/Mol-Kelvin
 Total                  125.226             37.479             95.846
 Electronic               0.000              0.000              0.000
 Translational            0.889              2.981             40.548
 Rotational               0.889              2.981             29.918
 Vibrational            123.449             31.517             25.381
 Vibration     1          0.598              1.968              4.114
 Vibration     2          0.605              1.945              3.355
 Vibration     3          0.615              1.914              2.812
 Vibration     4          0.620              1.898              2.617
 Vibration     5          0.654              1.790              1.853
 Vibration     6          0.675              1.727              1.589
 Vibration     7          0.705              1.637              1.316
 Vibration     8          0.738              1.544              1.101
 Vibration     9          0.788              1.413              0.871
 Vibration    10          0.826              1.319              0.741
 Vibration    11          0.854              1.254              0.662
 Vibration    12          0.884              1.185              0.589
 Vibration    13          0.893              1.165              0.569
 Vibration    14          0.914              1.120              0.526

 Optimization completed.
    -- Stationary point found.
 Normal termination of Gaussian 16 at Tue Dec  8 14:07:48 2020.

 ----------------------------------------------------------------------
 # B3LYP/6-311++G(d,p) empiricaldispersion=gd3bj scf=xqc pop=npa geom=c
 heck
 ----------------------------------------------------------------------

 --------------------------------------
 CID_125476301_JID_966_Energie_neutraal
 --------------------------------------
 Structure from the checkpoint file:  "JID_966.chk"
 Charge =  0 Multiplicity = 1

 SCF Done:  E(RB3LYP) =  -388.344113872     A.U. after   14 cycles
 Normal termination of Gaussian 16 at Tue Dec  8 14:11:51 2020.

 ----------------------------------------------------------------------
 # B3LYP/6-311++G(d,p) empiricaldispersion=gd3bj scf=xqc pop=npa geom=c
 heck
 ----------------------------------------------------------------------

 ------------------------------------
 CID_125476301_JID_966_Energie_kation
 ------------------------------------
 Structure from the checkpoint file:  "JID_966.chk"
 Charge =  1 Multiplicity = 2

 SCF Done:  E(UB3LYP) =  -388.058308189     A.U. after   18 cycles
 Normal termination of Gaussian 16 at Tue Dec  8 14:15:56 2020.
 Gaussian 16:  ES64L-G16RevA.03 25-Dec-2016

 ----------------------------------------------------------------------
 # B3LYP/6-311++G(d,p) empiricaldispersion=gd3bj scf=xqc pop=npa geom=c
 heck
 ----------------------------------------------------------------------

 -----------------------------------
 CID_125476301_JID_966_Energie_anion
 -----------------------------------
 Structure from the checkpoint file:  "JID_966.chk"
 Charge = -1 Multiplicity = 2

                         Standard orientation:
 ---------------------------------------------------------------------
 Center     Atomic      Atomic             Coordinates (Angstroms)
 Number     Number       Type             X           Y           Z
 ---------------------------------------------------------------------
      1          6           0        4.738908    0.120531    0.047253
      2          6           0        3.549355   -0.110691    0.041432
      3          6           0        2.164512   -0.415709    0.037297
      4          6           0        1.193196    0.521618   -0.056175
      5          6           0       -0.239337    0.266106   -0.051080
      6          6           0       -1.096465    1.308213   -0.099683
      7          6           0       -2.593248    1.186916   -0.049932
      8          6           0       -3.046372   -0.206496    0.403984
      9          6           0       -2.231304   -1.286556   -0.311967
     10          6           0       -0.739958   -1.162372    0.026171
     11          1           0        5.782007    0.338967    0.050545
     12          1           0        1.902082   -1.468340    0.119905
     13          1           0        1.493611    1.565564   -0.128730
     14          1           0       -0.687128    2.315306   -0.174547
     15          1           0       -3.007699    1.409661   -1.046818
     16          1           0       -3.002217    1.960823    0.613914
     17          1           0       -4.118357   -0.336561    0.216133
     18          1           0       -2.897125   -0.301180    1.488131
     19          1           0       -2.590359   -2.287379   -0.045928
     20          1           0       -2.366921   -1.178375   -1.396824
     21          1           0       -0.549143   -1.555781    1.035780
     22          1           0       -0.154480   -1.792065   -0.655369
 ---------------------------------------------------------------------

 SCF Done:  E(UB3LYP) =  -388.339919470     A.U. after   30 cycles

 The electronic state is 2-A.
 Alpha  occ. eigenvalues --  -10.04507 -10.04361 -10.04122 -10.04054 -10.02948
 Alpha  occ. eigenvalues --  -10.02555 -10.01911 -10.01562 -10.01107 -10.01050
 Alpha  occ. eigenvalues --   -0.70881  -0.65805  -0.61796  -0.61371  -0.57151
 Alpha  occ. eigenvalues --   -0.50354  -0.47984  -0.44496  -0.38480  -0.37927
 Alpha  occ. eigenvalues --   -0.35648  -0.33223  -0.31863  -0.30362  -0.28150
 Alpha  occ. eigenvalues --   -0.26679  -0.25882  -0.24965  -0.22517  -0.21079
 Alpha  occ. eigenvalues --   -0.19486  -0.19202  -0.17892  -0.14020  -0.13299
 Alpha  occ. eigenvalues --   -0.07475   0.05301
 Alpha virt. eigenvalues --    0.07598   0.09154   0.09308   0.10075   0.10266
 Alpha virt. eigenvalues --    0.11717   0.12319   0.12675   0.12794   0.14182
 Alpha virt. eigenvalues --    0.14508   0.15582   0.16261   0.16531   0.17393

  Beta  occ. eigenvalues --  -10.04495 -10.04335 -10.04147 -10.04051 -10.02966
  Beta  occ. eigenvalues --  -10.02581 -10.01715 -10.01297 -10.00873 -10.00709
  Beta  occ. eigenvalues --   -0.70678  -0.65396  -0.61563  -0.61095  -0.56815
  Beta  occ. eigenvalues --   -0.50134  -0.47616  -0.44095  -0.38210  -0.37733
  Beta  occ. eigenvalues --   -0.35507  -0.33063  -0.31644  -0.30250  -0.28027
  Beta  occ. eigenvalues --   -0.26525  -0.25606  -0.24835  -0.22365  -0.20947
  Beta  occ. eigenvalues --   -0.19299  -0.18217  -0.17767  -0.13195  -0.12859
  Beta  occ. eigenvalues --   -0.05746
  Beta virt. eigenvalues --    0.07994   0.09129   0.09488   0.10156   0.10446
  Beta virt. eigenvalues --    0.10646   0.11773   0.12417   0.12715   0.12841
  Beta virt. eigenvalues --    0.14188   0.14435   0.15587   0.16513   0.16620

 Mulliken charges and spin densities:
               1          2
     1  C   -1.211634   0.250511
     2  C    1.129390  -0.094553
     3  C   -0.458118   0.092434
     4  C   -0.094718   0.089782
     5  C    1.076106  -0.049764
     6  C   -0.598926   0.573690
     7  C    0.125801  -0.727671
     8  C   -0.123824  -0.081766
     9  C   -0.522754   0.112470
    10  C   -0.351154  -0.496916
    11  H    0.088999  -0.008009
    12  H    0.088224   0.006530
    13  H    0.049220   0.005633
    14  H    0.119114  -0.018706
    15  H   -0.092112   0.232466
    16  H    0.071886   0.043632
    17  H   -0.475454   0.624755
    18  H    0.069634   0.040453
    19  H   -0.161066   0.300566
    20  H    0.060425   0.062783
    21  H    0.049960   0.098370
    22  H    0.161001  -0.056692
 Sum of Mulliken charges =  -1.00000   1.00000

 Dipole moment (field-independent basis, Debye):
    X=             -1.1722    Y=              0.0098    Z=              0.2482  Tot=              1.1982
 Quadrupole moment (field-independent basis, Debye-Ang):
   XX=           -127.5442   YY=            -74.6918   ZZ=            -76.4813
   XY=             -1.2811   XZ=             -2.4579   YZ=              1.0938

 Summary of Natural Population Analysis:

                                       Natural Population
                Natural  -----------------------------------------------
    Atom  No    Charge         Core      Valence    Rydberg      Total
 -----------------------------------------------------------------------
      C    1   -0.13287      0.99928     2.12872    0.00487     3.13287
      C    2   -0.00537      0.99939     1.99867    0.00731     3.00537
      C    3   -0.13438      0.99947     2.12722    0.00768     3.13438
      C    4   -0.02112      0.99951     2.01238    0.00923     3.02112
      C    5   -0.04940      0.99947     2.04128    0.00865     3.04940
      C    6   -0.00103      0.99950     1.99358    0.00795     3.00103
      C    7   -0.20785      0.99963     2.19883    0.00940     3.20785
      C    8   -0.18799      0.99964     2.17917    0.00918     3.18799
      C    9   -0.18852      0.99964     2.17881    0.01007     3.18852
      C   10   -0.19913      0.99960     2.19132    0.00821     3.19913
      H   11    0.09990      0.00000     0.39912    0.00098     0.40010
      H   12    0.09571      0.00000     0.40267    0.00163     0.40429
      H   13    0.08602      0.00000     0.41227    0.00171     0.41398
      H   14    0.08236      0.00000     0.41627    0.00137     0.41764
      H   15    0.10041      0.00000     0.39788    0.00171     0.39959
      H   16    0.09598      0.00000     0.40293    0.00109     0.40402
      H   17    0.09545      0.00000     0.40294    0.00161     0.40455
      H   18    0.09145      0.00000     0.40733    0.00122     0.40855
      H   19    0.09332      0.00000     0.40576    0.00092     0.40668
      H   20    0.09217      0.00000     0.40656    0.00127     0.40783
      H   21    0.09679      0.00000     0.40180    0.00140     0.40321
      H   22    0.09808      0.00000     0.40054    0.00139     0.40192
 =======================================================================
   * Total *    0.00000      9.99512    25.90602    0.09886    36.00000

 Normal termination of Gaussian 16 at Tue Dec  8 14:23:17 2020.
