 Gaussian 16, Revision A.03,

 -----------------------------------------------------------
 # opt freq B3LYP/6-31G(d) empiricaldispersion=gd3bj scf=xqc
 -----------------------------------------------------------

 ------------------------------
 CID_20719794_JID_1144_neutraal
 ------------------------------
 Symbolic Z-matrix:
 Charge =  0 Multiplicity = 1

 SCF Done:  E(RB3LYP) =  -875.527283307     A.U. after   16 cycles
 SCF Done:  E(RB3LYP) =  -875.533232618     A.U. after   13 cycles
 SCF Done:  E(RB3LYP) =  -875.534576764     A.U. after   13 cycles
 SCF Done:  E(RB3LYP) =  -875.534815234     A.U. after   12 cycles
 SCF Done:  E(RB3LYP) =  -875.534895526     A.U. after   11 cycles
 SCF Done:  E(RB3LYP) =  -875.534910601     A.U. after   11 cycles
 SCF Done:  E(RB3LYP) =  -875.534915691     A.U. after   11 cycles
 SCF Done:  E(RB3LYP) =  -875.534921157     A.U. after   11 cycles
 SCF Done:  E(RB3LYP) =  -875.534927804     A.U. after   12 cycles
 SCF Done:  E(RB3LYP) =  -875.534932719     A.U. after   12 cycles
 SCF Done:  E(RB3LYP) =  -875.535157239     A.U. after   10 cycles
 SCF Done:  E(RB3LYP) =  -875.535158806     A.U. after   10 cycles
 SCF Done:  E(RB3LYP) =  -875.535159395     A.U. after    9 cycles
 SCF Done:  E(RB3LYP) =  -875.535159429     A.U. after    8 cycles
 SCF Done:  E(RB3LYP) =  -875.535159458     A.U. after    7 cycles
 Optimization completed.
    -- Stationary point found.
 Normal termination of Gaussian 16 at Tue Dec  8 19:29:19 2020.

 --------------------------------------------------------------------
 #N Geom=AllCheck Guess=TCheck SCRF=Check GenChk RB3LYP/6-31G(d) Freq
 --------------------------------------------------------------------

 Structure from the checkpoint file:  "JID_1144.chk"
 ------------------------------
 CID_20719794_JID_1144_neutraal
 ------------------------------
 Charge =  0 Multiplicity = 1

 SCF Done:  E(RB3LYP) =  -875.535159458     A.U. after    1 cycles

  Exact polarizability: 153.707   4.577  99.986   4.187  -4.022  57.471
 Approx polarizability: 201.640   0.021 186.299   8.269  -8.126  89.867

                      1                      2                      3
                      A                      A                      A
 Frequencies --     22.2793                51.3246                59.7061
 Red. masses --      4.8799                 1.1973                 3.1181
 Frc consts  --      0.0014                 0.0019                 0.0065
 IR Inten    --      5.0414                 1.2451                 3.6945

                      4                      5                      6
                      A                      A                      A
 Frequencies --     79.7742               166.5294               182.0987
 Red. masses --      4.5073                 3.3880                 1.1396
 Frc consts  --      0.0169                 0.0554                 0.0223
 IR Inten    --      3.6311                 0.0850                 0.2611

                      7                      8                      9
                      A                      A                      A
 Frequencies --    245.3010               256.8619               339.3391
 Red. masses --      3.3236                 5.7731                 3.6582
 Frc consts  --      0.1178                 0.2244                 0.2482
 IR Inten    --      0.3556                 1.7798                 1.0842

                     10                     11                     12
                      A                      A                      A
 Frequencies --    359.6876               380.8802               431.6609
 Red. masses --      4.5022                 3.7607                 3.5620
 Frc consts  --      0.3432                 0.3214                 0.3911
 IR Inten    --     12.8753                 2.3665                 2.7458

                     13                     14                     15
                      A                      A                      A
 Frequencies --    467.7290               493.1171               559.8269
 Red. masses --      6.6572                 3.6852                 4.9732
 Frc consts  --      0.8581                 0.5280                 0.9183
 IR Inten    --     14.6767                16.9111                26.8857

                     16                     17                     18
                      A                      A                      A
 Frequencies --    633.4092               659.3229               684.9222
 Red. masses --      6.6358                 7.4027                 4.8499
 Frc consts  --      1.5686                 1.8960                 1.3405
 IR Inten    --     88.6925                10.6855                24.5094

                     19                     20                     21
                      A                      A                      A
 Frequencies --    744.6135               780.3787               854.6539
 Red. masses --      3.3045                 5.3052                 1.4469
 Frc consts  --      1.0795                 1.9035                 0.6227
 IR Inten    --      2.5082                57.3580                21.1920

                     22                     23                     24
                      A                      A                      A
 Frequencies --    872.8073               942.4903               973.5839
 Red. masses --      6.4447                 1.4089                 1.3372
 Frc consts  --      2.8926                 0.7374                 0.7468
 IR Inten    --     34.4904                 1.4178                 6.8845

                     25                     26                     27
                      A                      A                      A
 Frequencies --    977.5470               984.4751              1021.8930
 Red. masses --      1.3612                 1.4237                 1.4604
 Frc consts  --      0.7664                 0.8130                 0.8985
 IR Inten    --      3.6598                21.4340                 0.7329

                     28                     29                     30
                      A                      A                      A
 Frequencies --   1047.8077              1075.5182              1158.6967
 Red. masses --      2.8977                 1.5676                 2.7068
 Frc consts  --      1.8744                 1.0684                 2.1411
 IR Inten    --     21.9771                 6.8596               109.8216

                     31                     32                     33
                      A                      A                      A
 Frequencies --   1168.6669              1251.0802              1263.6517
 Red. masses --      1.9297                 3.6059                 3.5021
 Frc consts  --      1.5528                 3.3253                 3.2948
 IR Inten    --     32.8991               176.4565                 2.2723

                     34                     35                     36
                      A                      A                      A
 Frequencies --   1314.1350              1325.5795              1358.6399
 Red. masses --      6.6883                 1.3869                 1.1961
 Frc consts  --      6.8052                 1.4358                 1.3009
 IR Inten    --      0.7612                12.0731                 6.7363

                     37                     38                     39
                      A                      A                      A
 Frequencies --   1429.3761              1440.1051              1479.0396
 Red. masses --      3.1856                 1.2692                 1.0504
 Frc consts  --      3.8348                 1.5508                 1.3538
 IR Inten    --     35.2785                 0.0626                 9.7068

                     40                     41                     42
                      A                      A                      A
 Frequencies --   1480.6874              1506.7564              1518.0830
 Red. masses --      1.0516                 1.0455                 1.2157
 Frc consts  --      1.3584                 1.3985                 1.6507
 IR Inten    --      9.4965                 5.5123                31.7380

                     43                     44                     45
                      A                      A                      A
 Frequencies --   1528.8638              1624.2215              1651.3410
 Red. masses --      2.2801                 5.7970                 6.0449
 Frc consts  --      3.1401                 9.0104                 9.7120
 IR Inten    --    117.9495                18.5070                 2.2495

                     46                     47                     48
                      A                      A                      A
 Frequencies --   3057.2042              3078.2787              3116.3906
 Red. masses --      1.0361                 1.0283                 1.1008
 Frc consts  --      5.7053                 5.7407                 6.2991
 IR Inten    --     20.6139                 1.1645                13.0354

                     49                     50                     51
                      A                      A                      A
 Frequencies --   3138.9194              3178.0079              3182.1639
 Red. masses --      1.1031                 1.0909                 1.1070
 Frc consts  --      6.4034                 6.4916                 6.6043
 IR Inten    --     16.6587                20.9783                 1.5309

                     52                     53                     54
                      A                      A                      A
 Frequencies --   3187.2455              3202.8420              3235.2715
 Red. masses --      1.1077                 1.0903                 1.0943
 Frc consts  --      6.6296                 6.5899                 6.7486
 IR Inten    --      1.2959                12.8290                 0.4472

 - Thermochemistry -
 -------------------
 Temperature   298.150 Kelvin.  Pressure   1.00000 Atm.
 Atom     1 has atomic number  6 and mass  12.00000

 Molecular mass:   171.03540 amu.
 Principal axes and moments of inertia in atomic units:
                           1         2         3
     Eigenvalues --   605.718013785.946694197.01348
           X            0.99979   0.01934   0.00708
           Y           -0.01925   0.99973  -0.01325
           Z           -0.00734   0.01311   0.99989
 This molecule is an asymmetric top.
 Rotational symmetry number  1.
 Warning -- assumption of classical behavior for rotation
           may cause significant error
 Rotational temperatures (Kelvin)      0.14299     0.02288     0.02064
 Rotational constants (GHZ):           2.97951     0.47669     0.43001
 Zero-point vibrational energy     402093.5 (Joules/Mol)
                                   96.10266 (Kcal/Mol)
 Warning -- explicit consideration of  15 degrees of freedom as
           vibrations may cause significant error
 Vibrational temperatures:     32.05    73.84    85.90   114.78   239.60
          (Kelvin)            262.00   352.93   369.57   488.23   517.51
                              548.00   621.06   672.96   709.49   805.47
                              911.33   948.62   985.45  1071.33  1122.79
                             1229.66  1255.77  1356.03  1400.77  1406.47
                             1416.44  1470.28  1507.56  1547.43  1667.11
                             1681.45  1800.03  1818.11  1890.75  1907.21
                             1954.78  2056.55  2071.99  2128.01  2130.38
                             2167.89  2184.18  2199.69  2336.89  2375.91
                             4398.63  4428.96  4483.79  4516.20  4572.44
                             4578.42  4585.74  4608.18  4654.83

 Zero-point correction=                           0.153149 (Hartree/Particle)
 Thermal correction to Energy=                    0.164557
 Thermal correction to Enthalpy=                  0.165501
 Thermal correction to Gibbs Free Energy=         0.113815
 Sum of electronic and zero-point Energies=           -875.382010
 Sum of electronic and thermal Energies=              -875.370603
 Sum of electronic and thermal Enthalpies=            -875.369659
 Sum of electronic and thermal Free Energies=         -875.421345

                     E (Thermal)             CV                S
                      KCal/Mol        Cal/Mol-Kelvin    Cal/Mol-Kelvin
 Total                  103.261             40.646            108.783
 Electronic               0.000              0.000              0.000
 Translational            0.889              2.981             41.318
 Rotational               0.889              2.981             30.643
 Vibrational            101.483             34.684             36.822
 Vibration     1          0.593              1.985              6.420
 Vibration     2          0.596              1.977              4.766
 Vibration     3          0.597              1.974              4.467
 Vibration     4          0.600              1.963              3.896
 Vibration     5          0.624              1.884              2.474
 Vibration     6          0.630              1.864              2.307
 Vibration     7          0.660              1.771              1.764
 Vibration     8          0.666              1.751              1.683
 Vibration     9          0.719              1.597              1.215
 Vibration    10          0.734              1.555              1.123
 Vibration    11          0.751              1.511              1.036
 Vibration    12          0.793              1.401              0.853
 Vibration    13          0.825              1.322              0.744
 Vibration    14          0.849              1.265              0.676
 Vibration    15          0.915              1.118              0.524

 Optimization completed.
    -- Stationary point found.
 Normal termination of Gaussian 16 at Tue Dec  8 19:32:49 2020.

 ----------------------------------------------------------------------
 # B3LYP/6-311++G(d,p) empiricaldispersion=gd3bj scf=xqc pop=npa geom=c
 heck
 ----------------------------------------------------------------------

 --------------------------------------
 CID_20719794_JID_1144_Energie_neutraal
 --------------------------------------
 Structure from the checkpoint file:  "JID_1144.chk"
 Charge =  0 Multiplicity = 1

 SCF Done:  E(RB3LYP) =  -875.696242359     A.U. after   16 cycles
 Normal termination of Gaussian 16 at Tue Dec  8 19:34:32 2020.

 ----------------------------------------------------------------------
 # B3LYP/6-311++G(d,p) empiricaldispersion=gd3bj scf=xqc pop=npa geom=c
 heck
 ----------------------------------------------------------------------

 ------------------------------------
 CID_20719794_JID_1144_Energie_kation
 ------------------------------------
 Structure from the checkpoint file:  "JID_1144.chk"
 Charge =  1 Multiplicity = 2

 SCF Done:  E(UB3LYP) =  -875.377213165     A.U. after   27 cycles
 Normal termination of Gaussian 16 at Tue Dec  8 19:38:46 2020.
 Gaussian 16:  ES64L-G16RevA.03 25-Dec-2016

 ----------------------------------------------------------------------
 # B3LYP/6-311++G(d,p) empiricaldispersion=gd3bj scf=xqc pop=npa geom=c
 heck
 ----------------------------------------------------------------------

 -----------------------------------
 CID_20719794_JID_1144_Energie_anion
 -----------------------------------
 Structure from the checkpoint file:  "JID_1144.chk"
 Charge = -1 Multiplicity = 2

                         Standard orientation:
 ---------------------------------------------------------------------
 Center     Atomic      Atomic             Coordinates (Angstroms)
 Number     Number       Type             X           Y           Z
 ---------------------------------------------------------------------
      1          6           0        4.316940    0.186111    0.290767
      2          6           0        2.834865    0.046506    0.058135
      3          7           0        2.321578   -1.188962    0.201518
      4          6           0        1.013644   -1.359141    0.010750
      5          6           0        0.152299   -0.319492   -0.346334
      6          6           0        0.671528    0.964078   -0.502517
      7          6           0        2.036346    1.142662   -0.289464
      8          8           0       -1.183774   -0.606489   -0.575434
      9         16           0       -2.283552    0.132641    0.542275
     10          8           0       -2.486770    1.564667    0.189544
     11          6           0       -3.659864   -0.790241   -0.213095
     12          1           0        4.579494   -0.163843    1.295053
     13          1           0        4.875318   -0.432934   -0.420358
     14          1           0        4.647164    1.223333    0.183710
     15          1           0        0.614793   -2.364516    0.133499
     16          1           0        0.019833    1.785326   -0.779489
     17          1           0        2.481661    2.126962   -0.397719
     18          1           0       -3.678776   -0.545994   -1.277617
     19          1           0       -3.504770   -1.860301   -0.059883
     20          1           0       -4.579133   -0.455877    0.273457
 ---------------------------------------------------------------------

 SCF Done:  E(UB3LYP) =  -875.690876491     A.U. after   33 cycles
 SCF Done:  E(UB3LYP) =  -875.690876491     a.u. after    1 cycles

 The electronic state is 2-A.
 Alpha  occ. eigenvalues --  -88.83638 -19.02110 -18.96788 -14.16663 -10.09467
 Alpha  occ. eigenvalues --  -10.07735 -10.07121 -10.07006 -10.05655 -10.04988
 Alpha  occ. eigenvalues --  -10.03975  -7.91091  -5.87489  -5.87211  -5.86639
 Alpha  occ. eigenvalues --   -0.94209  -0.88209  -0.80918  -0.67003  -0.65898
 Alpha  occ. eigenvalues --   -0.63588  -0.57401  -0.51237  -0.50516  -0.46405
 Alpha  occ. eigenvalues --   -0.39255  -0.37410  -0.36161  -0.34021  -0.32508
 Alpha  occ. eigenvalues --   -0.31591  -0.31420  -0.30135  -0.29116  -0.28213
 Alpha  occ. eigenvalues --   -0.26298  -0.26136  -0.25049  -0.23791  -0.20025
 Alpha  occ. eigenvalues --   -0.17739  -0.15842  -0.12925  -0.12591  -0.10933
 Alpha  occ. eigenvalues --    0.05324
 Alpha virt. eigenvalues --    0.07725   0.07878   0.09751   0.10028   0.10311
 Alpha virt. eigenvalues --    0.10892   0.11345   0.11670   0.12571   0.13016
 Alpha virt. eigenvalues --    0.13684   0.14472   0.15671   0.16444   0.17032

  Beta  occ. eigenvalues --  -88.83518 -19.01981 -18.96607 -14.16406 -10.09412
  Beta  occ. eigenvalues --  -10.07641 -10.07128 -10.06963 -10.05665 -10.05009
  Beta  occ. eigenvalues --  -10.03713  -7.90974  -5.87293  -5.86996  -5.86565
  Beta  occ. eigenvalues --   -0.93824  -0.87873  -0.80554  -0.66624  -0.65692
  Beta  occ. eigenvalues --   -0.63380  -0.57251  -0.50863  -0.50220  -0.46096
  Beta  occ. eigenvalues --   -0.38943  -0.37253  -0.35894  -0.33704  -0.32270
  Beta  occ. eigenvalues --   -0.31430  -0.31178  -0.29949  -0.29024  -0.28012
  Beta  occ. eigenvalues --   -0.26162  -0.25945  -0.24546  -0.23526  -0.19647
  Beta  occ. eigenvalues --   -0.17009  -0.14706  -0.12479  -0.12283  -0.10410
  Beta virt. eigenvalues --    0.07763   0.08461   0.09901   0.10037   0.10379
  Beta virt. eigenvalues --    0.10538   0.11663   0.11827   0.11929   0.12918
  Beta virt. eigenvalues --    0.13329   0.13839   0.14583   0.15781   0.16422

 Mulliken charges and spin densities:
               1          2
     1  C   -0.513049  -0.120990
     2  C   -0.233909   0.100725
     3  N   -0.081541   0.127639
     4  C   -0.069331  -0.000911
     5  C   -0.058927   0.017011
     6  C   -0.123037   0.165661
     7  C   -0.013597   0.015031
     8  O   -0.257171   0.020241
     9  S    0.175709   0.373675
    10  O   -0.455764   0.042862
    11  C    0.588679  -1.116802
    12  H    0.141721  -0.002626
    13  H    0.098438   0.041687
    14  H    0.107553   0.008250
    15  H    0.139488   0.036202
    16  H    0.202459   0.005303
    17  H    0.112603   0.018252
    18  H   -0.168538   0.373666
    19  H   -0.296733   0.447599
    20  H   -0.295054   0.447524
 Sum of Mulliken charges =  -1.00000   1.00000

 Dipole moment (field-independent basis, Debye):
    X=              4.5661    Y=              1.1619    Z=             -0.0489  Tot=              4.7119
 Quadrupole moment (field-independent basis, Debye-Ang):
   XX=           -127.5901   YY=            -94.4356   ZZ=            -87.1817
   XY=              4.9366   XZ=             -0.1851   YZ=             -0.3707

 Summary of Natural Population Analysis:

                                       Natural Population
                Natural  -----------------------------------------------
    Atom  No    Charge         Core      Valence    Rydberg      Total
 -----------------------------------------------------------------------
      C    1   -0.29461      0.99964     2.29022    0.00475     3.29461
      C    2    0.10591      0.99956     1.88176    0.01277     2.89409
      N    3   -0.21669      0.99968     2.70284    0.01418     3.71669
      C    4    0.01030      0.99954     1.97621    0.01395     2.98970
      C    5    0.13167      0.99937     1.85498    0.01398     2.86833
      C    6   -0.06007      0.99952     2.05092    0.00963     3.06007
      C    7   -0.12735      0.99952     2.12033    0.00750     3.12735
      O    8   -0.35542      0.99989     3.34493    0.01061     4.35542
      S    9    0.72797      4.99947     2.20694    0.06562     7.27203
      O   10   -0.44919      0.99992     3.44287    0.00639     4.44919
      C   11   -0.38799      0.99963     2.37858    0.00978     3.38799
      H   12    0.10208      0.00000     0.39688    0.00104     0.39792
      H   13    0.10190      0.00000     0.39701    0.00109     0.39810
      H   14    0.09270      0.00000     0.40654    0.00076     0.40730
      H   15    0.08764      0.00000     0.41028    0.00207     0.41236
      H   16    0.10946      0.00000     0.38938    0.00116     0.39054
      H   17    0.09392      0.00000     0.40507    0.00101     0.40608
      H   18    0.11380      0.00000     0.38391    0.00229     0.38620
      H   19    0.10778      0.00000     0.38871    0.00351     0.39222
      H   20    0.10619      0.00000     0.39166    0.00216     0.39381
 =======================================================================
   * Total *   -0.00000     14.99573    29.82002    0.18425    45.00000

 Normal termination of Gaussian 16 at Tue Dec  8 19:43:54 2020.
