 Gaussian 16, Revision A.03,

 -----------------------------------------------------------
 # opt freq B3LYP/6-31G(d) empiricaldispersion=gd3bj scf=xqc
 -----------------------------------------------------------

 ------------------------------
 CID_103594672_JID_930_neutraal
 ------------------------------
 Symbolic Z-matrix:
 Charge =  0 Multiplicity = 1

 SCF Done:  E(RB3LYP) =  -798.924436271     A.U. after   14 cycles
 SCF Done:  E(RB3LYP) =  -798.930162521     A.U. after   12 cycles
 SCF Done:  E(RB3LYP) =  -798.931048990     A.U. after   12 cycles
 SCF Done:  E(RB3LYP) =  -798.931059732     A.U. after   12 cycles
 SCF Done:  E(RB3LYP) =  -798.931288620     A.U. after   12 cycles
 SCF Done:  E(RB3LYP) =  -798.931311463     A.U. after   10 cycles
 SCF Done:  E(RB3LYP) =  -798.931315867     A.U. after    8 cycles
 SCF Done:  E(RB3LYP) =  -798.931317110     A.U. after    8 cycles
 SCF Done:  E(RB3LYP) =  -798.931317690     A.U. after    7 cycles
 Optimization completed.
    -- Stationary point found.
 Normal termination of Gaussian 16 at Tue Dec  8 13:34:11 2020.

 --------------------------------------------------------------------
 #N Geom=AllCheck Guess=TCheck SCRF=Check GenChk RB3LYP/6-31G(d) Freq
 --------------------------------------------------------------------

 Structure from the checkpoint file:  "JID_930.chk"
 ------------------------------
 CID_103594672_JID_930_neutraal
 ------------------------------
 Charge =  0 Multiplicity = 1

 SCF Done:  E(RB3LYP) =  -798.931317690     A.U. after    1 cycles

  Exact polarizability: 111.032   0.827 102.766  -2.301  -3.750  72.706
 Approx polarizability: 150.866  -2.991 160.205  -2.086  -8.193 113.967

                      1                      2                      3
                      A                      A                      A
 Frequencies --     68.4526               134.4700               144.9050
 Red. masses --      4.0130                 3.3819                 3.5024
 Frc consts  --      0.0111                 0.0360                 0.0433
 IR Inten    --      2.8966                 0.0369                 3.3518

                      4                      5                      6
                      A                      A                      A
 Frequencies --    205.0883               243.6653               272.7358
 Red. masses --      4.3040                 1.1184                 2.3918
 Frc consts  --      0.1067                 0.0391                 0.1048
 IR Inten    --      3.5694                 0.2957                 2.1704

                      7                      8                      9
                      A                      A                      A
 Frequencies --    285.8847               325.4941               364.1009
 Red. masses --      2.7730                 4.3972                 4.2843
 Frc consts  --      0.1335                 0.2745                 0.3346
 IR Inten    --      2.3192                 0.1906                 1.1679

                     10                     11                     12
                      A                      A                      A
 Frequencies --    402.9158               411.9603               469.0011
 Red. masses --      1.5742                 1.7851                 2.6959
 Frc consts  --      0.1506                 0.1785                 0.3494
 IR Inten    --     34.3024                26.1828                 1.6329

                     13                     14                     15
                      A                      A                      A
 Frequencies --    499.6468               524.4457               592.0254
 Red. masses --      2.2555                 2.6957                 2.1155
 Frc consts  --      0.3318                 0.4368                 0.4369
 IR Inten    --     25.4350                35.1692                33.7941

                     16                     17                     18
                      A                      A                      A
 Frequencies --    620.6865               668.8489               714.0497
 Red. masses --      2.4746                 3.8137                 1.9121
 Frc consts  --      0.5617                 1.0052                 0.5744
 IR Inten    --     46.5794                 3.6486               164.4256

                     19                     20                     21
                      A                      A                      A
 Frequencies --    751.2194               799.8011               839.6874
 Red. masses --      4.9308                 2.8226                 2.0928
 Frc consts  --      1.6395                 1.0638                 0.8694
 IR Inten    --      5.6627                13.2543                 5.1053

                     22                     23                     24
                      A                      A                      A
 Frequencies --    924.4576               947.2546               957.8257
 Red. masses --      1.4318                 1.8687                 2.1590
 Frc consts  --      0.7209                 0.9879                 1.1670
 IR Inten    --     20.2634                14.8089                15.1462

                     25                     26                     27
                      A                      A                      A
 Frequencies --    988.6433              1026.8023              1052.6254
 Red. masses --      2.1475                 1.8783                 2.3751
 Frc consts  --      1.2367                 1.1668                 1.5506
 IR Inten    --      6.3682                14.0286                 6.7852

                     28                     29                     30
                      A                      A                      A
 Frequencies --   1073.9592              1134.2858              1157.7798
 Red. masses --      2.2731                 1.8162                 1.8468
 Frc consts  --      1.5447                 1.3768                 1.4585
 IR Inten    --     17.4828                36.8326                17.5969

                     31                     32                     33
                      A                      A                      A
 Frequencies --   1172.8950              1187.5356              1193.8478
 Red. masses --      1.3454                 1.2630                 1.3062
 Frc consts  --      1.0905                 1.0494                 1.0969
 IR Inten    --      2.5968                62.6264                46.6418

                     34                     35                     36
                      A                      A                      A
 Frequencies --   1221.1926              1249.0123              1274.9766
 Red. masses --      1.3649                 1.5873                 1.2854
 Frc consts  --      1.1993                 1.4589                 1.2311
 IR Inten    --      9.6187                 9.8991                10.8177

                     37                     38                     39
                      A                      A                      A
 Frequencies --   1313.9636              1357.9121              1372.3936
 Red. masses --      1.5700                 1.4168                 1.3932
 Frc consts  --      1.5970                 1.5393                 1.5460
 IR Inten    --      1.7624                 1.8666                27.0197

                     40                     41                     42
                      A                      A                      A
 Frequencies --   1397.1005              1413.9345              1447.5642
 Red. masses --      1.3672                 1.2544                 2.3556
 Frc consts  --      1.5724                 1.4776                 2.9083
 IR Inten    --     33.4265                 1.6701                98.9968

                     43                     44                     45
                      A                      A                      A
 Frequencies --   1477.8262              1496.1698              1503.6345
 Red. masses --      1.1496                 1.0853                 1.0868
 Frc consts  --      1.4793                 1.4313                 1.4477
 IR Inten    --      4.2679                 5.6023                 7.8243

                     46                     47                     48
                      A                      A                      A
 Frequencies --   1508.5780              1533.1823              1552.9151
 Red. masses --      1.0959                 1.0651                 1.0509
 Frc consts  --      1.4694                 1.4751                 1.4932
 IR Inten    --      1.5213                13.8999                 1.3190

                     49                     50                     51
                      A                      A                      A
 Frequencies --   1656.3295              1738.9182              2987.9498
 Red. masses --      1.3158                 4.6520                 1.0575
 Frc consts  --      2.1268                 8.2880                 5.5625
 IR Inten    --     73.4924               169.6594                53.3544

                     52                     53                     54
                      A                      A                      A
 Frequencies --   3034.5839              3042.5463              3067.5240
 Red. masses --      1.0812                 1.0621                 1.0607
 Frc consts  --      5.8660                 5.7929                 5.8804
 IR Inten    --     10.5271                40.0732                24.8811

                     55                     56                     57
                      A                      A                      A
 Frequencies --   3073.6594              3092.1051              3093.2343
 Red. masses --      1.0638                 1.0849                 1.0925
 Frc consts  --      5.9216                 6.1113                 6.1590
 IR Inten    --     17.2613                14.5268                51.3670

                     58                     59                     60
                      A                      A                      A
 Frequencies --   3125.9695              3128.3048              3148.9910
 Red. masses --      1.1066                 1.1038                 1.1003
 Frc consts  --      6.3713                 6.3646                 6.4284
 IR Inten    --     20.1049                 6.2426                10.5171

                     61                     62                     63
                      A                      A                      A
 Frequencies --   3452.6286              3551.7449              3661.6729
 Red. masses --      1.0730                 1.0477                 1.0979
 Frc consts  --      7.5360                 7.7873                 8.6728
 IR Inten    --      4.0948                13.4768                14.5128

 - Thermochemistry -
 -------------------
 Temperature   298.150 Kelvin.  Pressure   1.00000 Atm.
 Atom     1 has atomic number  6 and mass  12.00000

 Molecular mass:   159.08302 amu.
 Principal axes and moments of inertia in atomic units:
                           1         2         3
     Eigenvalues --   968.827512065.412502683.82866
           X            0.99898   0.04450  -0.00717
           Y           -0.04449   0.99901   0.00196
           Z            0.00725  -0.00164   0.99997
 This molecule is an asymmetric top.
 Rotational symmetry number  1.
 Warning -- assumption of classical behavior for rotation
           may cause significant error
 Rotational temperatures (Kelvin)      0.08940     0.04194     0.03227
 Rotational constants (GHZ):           1.86281     0.87379     0.67245
 Zero-point vibrational energy     527155.5 (Joules/Mol)
                                  125.99319 (Kcal/Mol)
 Warning -- explicit consideration of  16 degrees of freedom as
           vibrations may cause significant error
 Vibrational temperatures:     98.49   193.47   208.49   295.08   350.58
          (Kelvin)            392.41   411.32   468.31   523.86   579.71
                              592.72   674.79   718.88   754.56   851.79
                              893.03   962.32  1027.36  1080.84  1150.74
                             1208.12  1330.09  1362.89  1378.10  1422.44
                             1477.34  1514.49  1545.19  1631.98  1665.79
                             1687.53  1708.60  1717.68  1757.02  1797.05
                             1834.41  1890.50  1953.73  1974.57  2010.12
                             2034.34  2082.72  2126.26  2152.65  2163.39
                             2170.51  2205.91  2234.30  2383.09  2501.92
                             4298.99  4366.09  4377.55  4413.48  4422.31
                             4448.85  4450.47  4497.57  4500.93  4530.70
                             4967.56  5110.17  5268.33

 Zero-point correction=                           0.200783 (Hartree/Particle)
 Thermal correction to Energy=                    0.210966
 Thermal correction to Enthalpy=                  0.211911
 Thermal correction to Gibbs Free Energy=         0.165565
 Sum of electronic and zero-point Energies=           -798.730535
 Sum of electronic and thermal Energies=              -798.720351
 Sum of electronic and thermal Enthalpies=            -798.719407
 Sum of electronic and thermal Free Energies=         -798.765752

                     E (Thermal)             CV                S
                      KCal/Mol        Cal/Mol-Kelvin    Cal/Mol-Kelvin
 Total                  132.383             39.875             97.542
 Electronic               0.000              0.000              0.000
 Translational            0.889              2.981             41.102
 Rotational               0.889              2.981             30.064
 Vibrational            130.606             33.914             26.376
 Vibration     1          0.598              1.969              4.197
 Vibration     2          0.613              1.919              2.881
 Vibration     3          0.616              1.908              2.738
 Vibration     4          0.640              1.833              2.087
 Vibration     5          0.659              1.773              1.776
 Vibration     6          0.676              1.724              1.579
 Vibration     7          0.684              1.700              1.498
 Vibration     8          0.710              1.624              1.282
 Vibration     9          0.738              1.546              1.105
 Vibration    10          0.768              1.464              0.952
 Vibration    11          0.776              1.444              0.920
 Vibration    12          0.826              1.319              0.740
 Vibration    13          0.855              1.251              0.659
 Vibration    14          0.879              1.196              0.600
 Vibration    15          0.950              1.049              0.464
 Vibration    16          0.981              0.988              0.415

                           ! Non-Optimized Parameters !
 Normal termination of Gaussian 16 at Tue Dec  8 13:42:12 2020.

 ----------------------------------------------------------------------
 # B3LYP/6-311++G(d,p) empiricaldispersion=gd3bj scf=xqc pop=npa geom=c
 heck
 ----------------------------------------------------------------------

 --------------------------------------
 CID_103594672_JID_930_Energie_neutraal
 --------------------------------------
 Structure from the checkpoint file:  "JID_930.chk"
 Charge =  0 Multiplicity = 1

 SCF Done:  E(RB3LYP) =  -799.080974418     A.U. after   14 cycles
 Normal termination of Gaussian 16 at Tue Dec  8 13:46:25 2020.

 ----------------------------------------------------------------------
 # B3LYP/6-311++G(d,p) empiricaldispersion=gd3bj scf=xqc pop=npa geom=c
 heck
 ----------------------------------------------------------------------

 ------------------------------------
 CID_103594672_JID_930_Energie_kation
 ------------------------------------
 Structure from the checkpoint file:  "JID_930.chk"
 Charge =  1 Multiplicity = 2

 SCF Done:  E(UB3LYP) =  -798.787171526     A.U. after   29 cycles
 Normal termination of Gaussian 16 at Tue Dec  8 13:54:31 2020.
 Gaussian 16:  ES64L-G16RevA.03 25-Dec-2016

 ----------------------------------------------------------------------
 # B3LYP/6-311++G(d,p) empiricaldispersion=gd3bj scf=xqc pop=npa geom=c
 heck
 ----------------------------------------------------------------------

 -----------------------------------
 CID_103594672_JID_930_Energie_anion
 -----------------------------------
 Structure from the checkpoint file:  "JID_930.chk"
 Charge = -1 Multiplicity = 2

                         Standard orientation:
 ---------------------------------------------------------------------
 Center     Atomic      Atomic             Coordinates (Angstroms)
 Number     Number       Type             X           Y           Z
 ---------------------------------------------------------------------
      1          6           0       -0.223203    1.697719    1.167166
      2          7           0       -0.041755    1.186533   -0.190591
      3          6           0        1.321106    1.359192   -0.688615
      4          6           0        2.380524    0.514126    0.031719
      5         16           0        2.011842   -1.281415   -0.066760
      6          6           0        0.231803   -1.247116    0.392951
      7          6           0       -0.535634   -0.177623   -0.402419
      8          6           0       -2.065375   -0.202437   -0.224717
      9          7           0       -2.831925    0.778379   -0.513648
     10          7           0       -2.611844   -1.421810    0.145938
     11          1           0       -1.281252    1.645438    1.432865
     12          1           0        0.081751    2.749154    1.187077
     13          1           0        0.354151    1.166890    1.942248
     14          1           0        1.326360    1.108246   -1.755691
     15          1           0        1.583647    2.420795   -0.593565
     16          1           0        2.482083    0.813990    1.079450
     17          1           0        3.357273    0.639953   -0.445261
     18          1           0        0.126686   -1.101624    1.473771
     19          1           0       -0.131365   -2.247150    0.141867
     20          1           0       -0.362451   -0.403705   -1.463762
     21          1           0       -2.251520    1.551719   -0.849935
     22          1           0       -2.122036   -1.950735    0.854860
     23          1           0       -3.609453   -1.355230    0.315835
 ---------------------------------------------------------------------

 SCF Done:  E(UB3LYP) =  -799.068750160     A.U. after   29 cycles

 The electronic state is 2-A.
 Alpha  occ. eigenvalues --  -88.73880 -14.21581 -14.21210 -14.16748 -10.13903
 Alpha  occ. eigenvalues --  -10.11606 -10.10047 -10.09865 -10.09615 -10.08205
 Alpha  occ. eigenvalues --   -7.82487  -5.78877  -5.78532  -5.77850  -0.85460
 Alpha  occ. eigenvalues --   -0.82482  -0.74541  -0.70091  -0.67363  -0.60886
 Alpha  occ. eigenvalues --   -0.55130  -0.53457  -0.48240  -0.45436  -0.43113
 Alpha  occ. eigenvalues --   -0.39265  -0.38098  -0.35758  -0.34877  -0.33911
 Alpha  occ. eigenvalues --   -0.32573  -0.31087  -0.30474  -0.28957  -0.27793
 Alpha  occ. eigenvalues --   -0.26138  -0.24450  -0.24061  -0.21533  -0.16304
 Alpha  occ. eigenvalues --   -0.14365  -0.13866  -0.11343   0.04528
 Alpha virt. eigenvalues --    0.06477   0.08099   0.08526   0.09164   0.09924
 Alpha virt. eigenvalues --    0.10484   0.10897   0.12132   0.12162   0.12631
 Alpha virt. eigenvalues --    0.13035   0.13913   0.14282   0.15228   0.15359

  Beta  occ. eigenvalues --  -88.73876 -14.21522 -14.21211 -14.16739 -10.13899
  Beta  occ. eigenvalues --  -10.11598 -10.10023 -10.09821 -10.09589 -10.08161
  Beta  occ. eigenvalues --   -7.82484  -5.78874  -5.78524  -5.77846  -0.85431
  Beta  occ. eigenvalues --   -0.82447  -0.74486  -0.70050  -0.67322  -0.60829
  Beta  occ. eigenvalues --   -0.55064  -0.53396  -0.48164  -0.45362  -0.43065
  Beta  occ. eigenvalues --   -0.39234  -0.38041  -0.35717  -0.34829  -0.33857
  Beta  occ. eigenvalues --   -0.32538  -0.31035  -0.30429  -0.28913  -0.27757
  Beta  occ. eigenvalues --   -0.26102  -0.24410  -0.24020  -0.21499  -0.16273
  Beta  occ. eigenvalues --   -0.14331  -0.13843  -0.11319
  Beta virt. eigenvalues --    0.07158   0.07938   0.08565   0.09123   0.09785
  Beta virt. eigenvalues --    0.10526   0.10853   0.11314   0.12249   0.12550
  Beta virt. eigenvalues --    0.13071   0.13569   0.14316   0.14657   0.15446

 Mulliken charges and spin densities:
               1          2
     1  C    1.023863  -1.463677
     2  N   -0.068263   0.087522
     3  C   -0.054023  -0.163701
     4  C    0.200726  -0.658360
     5  S    0.261388  -0.337402
     6  C    0.868149  -1.524389
     7  C   -0.572602   0.608615
     8  C    0.046757  -0.091682
     9  N   -0.293474  -0.085969
    10  N   -0.187308  -0.124222
    11  H    0.036638   0.115967
    12  H   -0.268391   0.425771
    13  H   -0.223347   0.367318
    14  H    0.119875   0.017507
    15  H   -0.577798   0.757494
    16  H    0.044531   0.140010
    17  H   -0.400295   0.602566
    18  H   -0.583055   0.826105
    19  H    0.141900   0.035055
    20  H   -0.075057   0.257090
    21  H    0.188239   0.028139
    22  H   -0.528915   0.795898
    23  H   -0.099539   0.384344
 Sum of Mulliken charges =  -1.00000   1.00000

 Dipole moment (field-independent basis, Debye):
    X=              1.6175    Y=             -0.2549    Z=             -3.1931  Tot=              3.5885
 Quadrupole moment (field-independent basis, Debye-Ang):
   XX=           -126.5298   YY=           -115.8339   ZZ=           -101.8754
   XY=             -9.5209   XZ=              1.6048   YZ=              3.3993

 Summary of Natural Population Analysis:

                                       Natural Population
                Natural  -----------------------------------------------
    Atom  No    Charge         Core      Valence    Rydberg      Total
 -----------------------------------------------------------------------
      C    1   -0.18709      0.99963     2.17835    0.00911     3.18709
      N    2   -0.28469      0.99973     2.76984    0.01512     3.78469
      C    3   -0.08688      0.99960     2.07365    0.01364     3.08688
      C    4   -0.25980      0.99959     2.24997    0.01024     3.25980
      S    5    0.08511      4.99965     2.89878    0.01646     7.91489
      C    6   -0.26412      0.99956     2.25272    0.01183     3.26412
      C    7   -0.04160      0.99951     2.02737    0.01473     3.04160
      C    8    0.22572      0.99963     1.75567    0.01898     2.77428
      N    9   -0.36420      0.99971     2.85673    0.00776     3.86420
      N   10   -0.40368      0.99970     2.89284    0.01114     3.90368
      H   11    0.10360      0.00000     0.39497    0.00143     0.39640
      H   12    0.09892      0.00000     0.39967    0.00141     0.40108
      H   13    0.08499      0.00000     0.41311    0.00190     0.41501
      H   14    0.09498      0.00000     0.40354    0.00148     0.40502
      H   15    0.10157      0.00000     0.39649    0.00194     0.39843
      H   16    0.10268      0.00000     0.39552    0.00179     0.39732
      H   17    0.10879      0.00000     0.38964    0.00156     0.39121
      H   18    0.10641      0.00000     0.39088    0.00271     0.39359
      H   19    0.11257      0.00000     0.38588    0.00155     0.38743
      H   20    0.10967      0.00000     0.38864    0.00169     0.39033
      H   21    0.17205      0.00000     0.32553    0.00242     0.32795
      H   22    0.19310      0.00000     0.29967    0.00723     0.30690
      H   23    0.19190      0.00000     0.30566    0.00245     0.30810
 =======================================================================
   * Total *    0.00000     13.99629    28.84513    0.15858    43.00000

 Normal termination of Gaussian 16 at Tue Dec  8 14:05:15 2020.
