 Gaussian 16, Revision A.03,

 -----------------------------------------------------------
 # opt freq B3LYP/6-31G(d) empiricaldispersion=gd3bj scf=xqc
 -----------------------------------------------------------

 -----------------------------
 CID_56630397_JID_650_neutraal
 -----------------------------
 Symbolic Z-matrix:
 Charge =  0 Multiplicity = 1

 SCF Done:  E(RB3LYP) =  -390.718787692     A.U. after   13 cycles
 SCF Done:  E(RB3LYP) =  -390.720391579     A.U. after   11 cycles
 SCF Done:  E(RB3LYP) =  -390.720469026     A.U. after   10 cycles
 SCF Done:  E(RB3LYP) =  -390.720479258     A.U. after   10 cycles
 SCF Done:  E(RB3LYP) =  -390.720481537     A.U. after    9 cycles
 SCF Done:  E(RB3LYP) =  -390.720481968     A.U. after    8 cycles
 SCF Done:  E(RB3LYP) =  -390.720482090     A.U. after    6 cycles
 SCF Done:  E(RB3LYP) =  -390.720482154     A.U. after    6 cycles
 SCF Done:  E(RB3LYP) =  -390.720482172     A.U. after    6 cycles
 Optimization completed.
    -- Stationary point found.
 Normal termination of Gaussian 16 at Tue Dec  8 12:18:06 2020.

 --------------------------------------------------------------------
 #N Geom=AllCheck Guess=TCheck SCRF=Check GenChk RB3LYP/6-31G(d) Freq
 --------------------------------------------------------------------

 Structure from the checkpoint file:  "JID_650.chk"
 -----------------------------
 CID_56630397_JID_650_neutraal
 -----------------------------
 Charge =  0 Multiplicity = 1

 SCF Done:  E(RB3LYP) =  -390.720482172     A.U. after    1 cycles

  Exact polarizability: 111.050 -10.954 110.843   5.824   3.999  77.512
 Approx polarizability: 138.303 -25.062 180.317   6.649   9.146 112.494

                      1                      2                      3
                      A                      A                      A
 Frequencies --     44.4560                61.1448                89.5004
 Red. masses --      3.0951                 3.1534                 2.1912
 Frc consts  --      0.0036                 0.0069                 0.0103
 IR Inten    --      0.0231                 0.0164                 0.0609

                      4                      5                      6
                      A                      A                      A
 Frequencies --    134.4540               185.8921               227.9791
 Red. masses --      1.7482                 2.4564                 1.6862
 Frc consts  --      0.0186                 0.0500                 0.0516
 IR Inten    --      0.5059                 0.1739                 1.5332

                      7                      8                      9
                      A                      A                      A
 Frequencies --    271.5022               349.0870               375.0277
 Red. masses --      1.7085                 2.1892                 1.9649
 Frc consts  --      0.0742                 0.1572                 0.1628
 IR Inten    --      1.2479                 0.2209                 0.2279

                     10                     11                     12
                      A                      A                      A
 Frequencies --    393.7703               443.9921               458.0176
 Red. masses --      2.1627                 2.2795                 3.4407
 Frc consts  --      0.1976                 0.2647                 0.4253
 IR Inten    --      0.1214                 0.2494                 1.8430

                     13                     14                     15
                      A                      A                      A
 Frequencies --    561.5654               578.7892               677.5855
 Red. masses --      3.5179                 3.3869                 1.1820
 Frc consts  --      0.6536                 0.6685                 0.3197
 IR Inten    --      3.2683                 3.6821                25.4989

                     16                     17                     18
                      A                      A                      A
 Frequencies --    723.1883               769.7977               805.5989
 Red. masses --      2.2589                 1.5109                 1.7215
 Frc consts  --      0.6961                 0.5275                 0.6583
 IR Inten    --      4.3507                 4.6021                 1.9813

                     19                     20                     21
                      A                      A                      A
 Frequencies --    852.8374               888.1479               913.9806
 Red. masses --      1.5424                 2.0313                 1.9683
 Frc consts  --      0.6610                 0.9441                 0.9687
 IR Inten    --      1.6394                 0.2461                 3.3799

                     22                     23                     24
                      A                      A                      A
 Frequencies --    926.4987               965.2080               969.0586
 Red. masses --      2.4857                 2.7333                 2.1247
 Frc consts  --      1.2571                 1.5003                 1.1756
 IR Inten    --      1.1105                 0.3862                 2.3423

                     25                     26                     27
                      A                      A                      A
 Frequencies --    988.0141               993.3441              1001.7148
 Red. masses --      1.4080                 1.6247                 1.6757
 Frc consts  --      0.8098                 0.9445                 0.9907
 IR Inten    --      0.0384                 3.0057                15.4819

                     28                     29                     30
                      A                      A                      A
 Frequencies --   1014.6205              1069.0165              1074.1880
 Red. masses --      1.6720                 1.5451                 1.8881
 Frc consts  --      1.0141                 1.0404                 1.2836
 IR Inten    --      0.9279                 0.5198                 0.8379

                     31                     32                     33
                      A                      A                      A
 Frequencies --   1122.9396              1130.7447              1183.2329
 Red. masses --      1.6454                 2.0478                 2.1201
 Frc consts  --      1.2225                 1.5427                 1.7488
 IR Inten    --      0.7510                 1.5988                 2.1146

                     34                     35                     36
                      A                      A                      A
 Frequencies --   1210.5292              1226.7072              1230.7702
 Red. masses --      1.0917                 1.1066                 1.2166
 Frc consts  --      0.9425                 0.9811                 1.0858
 IR Inten    --      0.1544                 0.0183                 0.3560

                     37                     38                     39
                      A                      A                      A
 Frequencies --   1245.5693              1277.5149              1332.7362
 Red. masses --      1.1585                 1.3042                 1.1645
 Frc consts  --      1.0589                 1.2541                 1.2186
 IR Inten    --      0.4018                 0.2266                 1.0470

                     40                     41                     42
                      A                      A                      A
 Frequencies --   1351.0554              1377.8213              1395.0640
 Red. masses --      1.3542                 1.4617                 1.6064
 Frc consts  --      1.4564                 1.6349                 1.8420
 IR Inten    --      0.9897                 4.8711                 2.3140

                     43                     44                     45
                      A                      A                      A
 Frequencies --   1398.8609              1410.1256              1426.3615
 Red. masses --      1.4091                 1.4440                 2.3156
 Frc consts  --      1.6245                 1.6918                 2.7757
 IR Inten    --      3.9151                 2.7907                 0.5734

                     46                     47                     48
                      A                      A                      A
 Frequencies --   1440.9988              1443.1789              1501.0203
 Red. masses --      1.2854                 1.5060                 1.1003
 Frc consts  --      1.5726                 1.8480                 1.4607
 IR Inten    --      5.9202                 1.3703                 0.2501

                     49                     50                     51
                      A                      A                      A
 Frequencies --   1504.6166              1509.5156              1518.1656
 Red. masses --      1.0751                 1.0807                 1.0696
 Frc consts  --      1.4340                 1.4508                 1.4524
 IR Inten    --      2.3435                 2.0629                 3.8917

                     52                     53                     54
                      A                      A                      A
 Frequencies --   1522.6295              1532.2292              1541.2630
 Red. masses --      1.0877                 1.0627                 1.0571
 Frc consts  --      1.4858                 1.4699                 1.4795
 IR Inten    --      3.6996                 6.2330                 2.0768

                     55                     56                     57
                      A                      A                      A
 Frequencies --   1737.0229              1778.6181              2984.8414
 Red. masses --      6.5897                 6.6860                 1.0683
 Frc consts  --     11.7145                12.4619                 5.6079
 IR Inten    --      5.4808                 0.6498                27.0925

                     58                     59                     60
                      A                      A                      A
 Frequencies --   2987.1338              2994.5974              3001.4241
 Red. masses --      1.0607                 1.0987                 1.0887
 Frc consts  --      5.5766                 5.8052                 5.7785
 IR Inten    --     68.2729                34.2273                25.7284

                     61                     62                     63
                      A                      A                      A
 Frequencies --   3015.5195              3033.9804              3040.1415
 Red. masses --      1.0679                 1.0610                 1.0633
 Frc consts  --      5.7214                 5.7544                 5.7903
 IR Inten    --     31.6601                42.3433                32.1323

                     64                     65                     66
                      A                      A                      A
 Frequencies --   3045.0900              3063.6875              3073.1443
 Red. masses --      1.0399                 1.0975                 1.1000
 Frc consts  --      5.6811                 6.0692                 6.1208
 IR Inten    --     22.0892                13.5759                30.1188

                     67                     68                     69
                      A                      A                      A
 Frequencies --   3086.3281              3108.2949              3123.0953
 Red. masses --      1.0964                 1.1011                 1.1010
 Frc consts  --      6.1531                 6.2678                 6.3274
 IR Inten    --     67.5105                45.4423                49.3671

                     70                     71                     72
                      A                      A                      A
 Frequencies --   3150.9972              3154.9863              3178.1653
 Red. masses --      1.0890                 1.0841                 1.0971
 Frc consts  --      6.3707                 6.3577                 6.5288
 IR Inten    --     36.0133                10.5461                49.6509

 - Thermochemistry -
 -------------------
 Temperature   298.150 Kelvin.  Pressure   1.00000 Atm.
 Atom     1 has atomic number  6 and mass  12.00000

 Molecular mass:   136.12520 amu.
 Principal axes and moments of inertia in atomic units:
                           1         2         3
     Eigenvalues --   783.294242274.717482547.36035
           X            1.00000   0.00289   0.00017
           Y           -0.00290   0.99998   0.00643
           Z           -0.00015  -0.00643   0.99998
 This molecule is an asymmetric top.
 Rotational symmetry number  1.
 Warning -- assumption of classical behavior for rotation
           may cause significant error
 Rotational temperatures (Kelvin)      0.11058     0.03808     0.03400
 Rotational constants (GHZ):           2.30404     0.79339     0.70848
 Zero-point vibrational energy     623246.6 (Joules/Mol)
                                  148.95952 (Kcal/Mol)
 Warning -- explicit consideration of  14 degrees of freedom as
           vibrations may cause significant error
 Vibrational temperatures:     63.96    87.97   128.77   193.45   267.46
          (Kelvin)            328.01   390.63   502.26   539.58   566.55
                              638.81   658.99   807.97   832.75   974.89
                             1040.51  1107.57  1159.08  1227.04  1277.85
                             1315.01  1333.03  1388.72  1394.26  1421.53
                             1429.20  1441.24  1459.81  1538.08  1545.52
                             1615.66  1626.89  1702.41  1741.68  1764.96
                             1770.80  1792.10  1838.06  1917.51  1943.87
                             1982.38  2007.19  2012.65  2028.86  2052.22
                             2073.28  2076.41  2159.63  2164.81  2171.86
                             2184.30  2190.72  2204.54  2217.53  2499.19
                             2559.03  4294.52  4297.82  4308.56  4318.38
                             4338.66  4365.22  4374.09  4381.21  4407.96
                             4421.57  4440.54  4472.14  4493.44  4533.58
                             4539.32  4572.67

 Zero-point correction=                           0.237382 (Hartree/Particle)
 Thermal correction to Energy=                    0.247886
 Thermal correction to Enthalpy=                  0.248831
 Thermal correction to Gibbs Free Energy=         0.200819
 Sum of electronic and zero-point Energies=           -390.483100
 Sum of electronic and thermal Energies=              -390.472596
 Sum of electronic and thermal Enthalpies=            -390.471652
 Sum of electronic and thermal Free Energies=         -390.519663

                     E (Thermal)             CV                S
                      KCal/Mol        Cal/Mol-Kelvin    Cal/Mol-Kelvin
 Total                  155.551             39.810            101.049
 Electronic               0.000              0.000              0.000
 Translational            0.889              2.981             40.637
 Rotational               0.889              2.981             29.897
 Vibrational            153.774             33.849             30.516
 Vibration     1          0.595              1.980              5.050
 Vibration     2          0.597              1.973              4.420
 Vibration     3          0.602              1.957              3.671
 Vibration     4          0.613              1.919              2.881
 Vibration     5          0.632              1.859              2.268
 Vibration     6          0.651              1.798              1.895
 Vibration     7          0.675              1.726              1.587
 Vibration     8          0.726              1.577              1.170
 Vibration     9          0.746              1.523              1.059
 Vibration    10          0.761              1.483              0.986
 Vibration    11          0.803              1.374              0.814
 Vibration    12          0.816              1.343              0.772
 Vibration    13          0.917              1.114              0.521
 Vibration    14          0.935              1.077              0.488

                           ! Non-Optimized Parameters !
 Normal termination of Gaussian 16 at Tue Dec  8 12:25:01 2020.

 ----------------------------------------------------------------------
 # B3LYP/6-311++G(d,p) empiricaldispersion=gd3bj scf=xqc pop=npa geom=c
 heck
 ----------------------------------------------------------------------

 -------------------------------------
 CID_56630397_JID_650_Energie_neutraal
 -------------------------------------
 Structure from the checkpoint file:  "JID_650.chk"
 Charge =  0 Multiplicity = 1

 SCF Done:  E(RB3LYP) =  -390.826705647     A.U. after   13 cycles
 Normal termination of Gaussian 16 at Tue Dec  8 12:27:35 2020.

 ----------------------------------------------------------------------
 # B3LYP/6-311++G(d,p) empiricaldispersion=gd3bj scf=xqc pop=npa geom=c
 heck
 ----------------------------------------------------------------------

 -----------------------------------
 CID_56630397_JID_650_Energie_kation
 -----------------------------------
 Structure from the checkpoint file:  "JID_650.chk"
 Charge =  1 Multiplicity = 2

 SCF Done:  E(UB3LYP) =  -390.523927789     A.U. after   19 cycles
 Normal termination of Gaussian 16 at Tue Dec  8 12:40:05 2020.
 Gaussian 16:  ES64L-G16RevA.03 25-Dec-2016

 ----------------------------------------------------------------------
 # B3LYP/6-311++G(d,p) empiricaldispersion=gd3bj scf=xqc pop=npa geom=c
 heck
 ----------------------------------------------------------------------

 ----------------------------------
 CID_56630397_JID_650_Energie_anion
 ----------------------------------
 Structure from the checkpoint file:  "JID_650.chk"
 Charge = -1 Multiplicity = 2

                         Standard orientation:
 ---------------------------------------------------------------------
 Center     Atomic      Atomic             Coordinates (Angstroms)
 Number     Number       Type             X           Y           Z
 ---------------------------------------------------------------------
      1          6           0        2.874087    1.313629   -0.464811
      2          6           0        2.329131   -0.026395   -0.966607
      3          6           0        2.086717   -1.053543    0.147465
      4          6           0        1.042694   -0.617424    1.197345
      5          6           0       -0.298403   -0.247166    0.611657
      6          6           0       -0.803052    0.986177    0.728216
      7          6           0       -2.131241    1.424615    0.175312
      8          6           0       -2.872309    0.316828   -0.520208
      9          6           0       -2.387259   -0.918755   -0.644640
     10          6           0       -1.045976   -1.343146   -0.113183
     11          1           0        2.147468    1.826407    0.173903
     12          1           0        3.107153    1.982589   -1.300728
     13          1           0        3.793237    1.173777    0.118088
     14          1           0        1.390776    0.147666   -1.509007
     15          1           0        3.032233   -0.455692   -1.692417
     16          1           0        1.774646   -2.004309   -0.303627
     17          1           0        3.032927   -1.260016    0.666175
     18          1           0        0.912671   -1.443671    1.912561
     19          1           0        1.431245    0.230914    1.772359
     20          1           0       -0.230779    1.742085    1.265315
     21          1           0       -2.754336    1.839001    0.985545
     22          1           0       -1.987463    2.270773   -0.517611
     23          1           0       -3.849809    0.560246   -0.932931
     24          1           0       -2.970402   -1.680758   -1.159153
     25          1           0       -0.430818   -1.728980   -0.942151
     26          1           0       -1.165087   -2.208948    0.560412
 ---------------------------------------------------------------------

 SCF Done:  E(UB3LYP) =  -390.809169880     A.U. after   32 cycles

 The electronic state is 2-A.
 Alpha  occ. eigenvalues --  -10.06800 -10.06684 -10.06596 -10.06145 -10.06102
 Alpha  occ. eigenvalues --  -10.06053 -10.05923 -10.05765 -10.05538 -10.05208
 Alpha  occ. eigenvalues --   -0.73749  -0.69481  -0.65203  -0.63797  -0.60168
 Alpha  occ. eigenvalues --   -0.54560  -0.52042  -0.47458  -0.44815  -0.38968
 Alpha  occ. eigenvalues --   -0.36492  -0.36036  -0.35387  -0.32986  -0.32583
 Alpha  occ. eigenvalues --   -0.30992  -0.30336  -0.28977  -0.28109  -0.27058
 Alpha  occ. eigenvalues --   -0.26497  -0.24433  -0.22864  -0.22427  -0.21526
 Alpha  occ. eigenvalues --   -0.20169  -0.15116  -0.12526   0.04725
 Alpha virt. eigenvalues --    0.06812   0.07338   0.07942   0.08916   0.09183
 Alpha virt. eigenvalues --    0.10087   0.10330   0.10835   0.11042   0.11588
 Alpha virt. eigenvalues --    0.12075   0.12316   0.13465   0.13829   0.14071

  Beta  occ. eigenvalues --  -10.06778 -10.06658 -10.06597 -10.06131 -10.06087
  Beta  occ. eigenvalues --  -10.06040 -10.05904 -10.05749 -10.05521 -10.05181
  Beta  occ. eigenvalues --   -0.73720  -0.69445  -0.65168  -0.63753  -0.60122
  Beta  occ. eigenvalues --   -0.54506  -0.51983  -0.47405  -0.44763  -0.38907
  Beta  occ. eigenvalues --   -0.36447  -0.35999  -0.35348  -0.32951  -0.32550
  Beta  occ. eigenvalues --   -0.30957  -0.30304  -0.28938  -0.28071  -0.27022
  Beta  occ. eigenvalues --   -0.26459  -0.24398  -0.22819  -0.22399  -0.21492
  Beta  occ. eigenvalues --   -0.20130  -0.15096  -0.12493
  Beta virt. eigenvalues --    0.06892   0.07733   0.08146   0.08474   0.09603
  Beta virt. eigenvalues --    0.09765   0.10572   0.10771   0.11018   0.11269
  Beta virt. eigenvalues --    0.12127   0.12498   0.12670   0.13690   0.14127

 Mulliken charges and spin densities:
               1          2
     1  C    0.709645  -1.313074
     2  C   -0.831693   0.680953
     3  C    0.901976  -1.218188
     4  C    0.428461  -0.671318
     5  C    1.488155  -0.291520
     6  C   -3.516887   3.143097
     7  C    3.189216  -4.334888
     8  C   -0.449584   0.592066
     9  C    1.346349  -1.446308
    10  C   -0.972602   0.202216
    11  H    0.048889   0.085812
    12  H   -0.219675   0.349310
    13  H   -0.188458   0.316972
    14  H    0.108428   0.007219
    15  H   -0.120547   0.268490
    16  H   -0.299577   0.448815
    17  H   -0.295772   0.449530
    18  H   -0.151967   0.316807
    19  H   -0.151045   0.306912
    20  H   -0.373464   0.517963
    21  H   -0.142587   0.281494
    22  H   -0.148743   0.298842
    23  H   -0.582970   0.756574
    24  H   -0.642586   0.829200
    25  H    0.052589   0.090320
    26  H   -0.185553   0.332703
 Sum of Mulliken charges =  -1.00000   1.00000

 Dipole moment (field-independent basis, Debye):
    X=              0.8594    Y=              0.3342    Z=              0.5857  Tot=              1.0924
 Quadrupole moment (field-independent basis, Debye-Ang):
   XX=           -132.5370   YY=           -106.0148   ZZ=            -96.1235
   XY=             -0.0402   XZ=             -2.5953   YZ=              0.1702

 Summary of Natural Population Analysis:

                                       Natural Population
                Natural  -----------------------------------------------
    Atom  No    Charge         Core      Valence    Rydberg      Total
 -----------------------------------------------------------------------
      C    1   -0.28495      0.99967     2.28080    0.00448     3.28495
      C    2   -0.19292      0.99964     2.18510    0.00818     3.19292
      C    3   -0.18592      0.99963     2.17747    0.00883     3.18592
      C    4   -0.19955      0.99959     2.18989    0.01007     3.19955
      C    5   -0.00433      0.99948     1.99281    0.01205     3.00433
      C    6   -0.09193      0.99945     2.08246    0.01002     3.09193
      C    7   -0.21917      0.99961     2.21021    0.00936     3.21917
      C    8   -0.08955      0.99953     2.08034    0.00967     3.08955
      C    9   -0.08825      0.99953     2.07836    0.01036     3.08825
      C   10   -0.22042      0.99957     2.21158    0.00927     3.22042
      H   11    0.09781      0.00000     0.40077    0.00143     0.40219
      H   12    0.09730      0.00000     0.40159    0.00111     0.40270
      H   13    0.09362      0.00000     0.40501    0.00137     0.40638
      H   14    0.09693      0.00000     0.40158    0.00149     0.40307
      H   15    0.09419      0.00000     0.40467    0.00114     0.40581
      H   16    0.09614      0.00000     0.40233    0.00153     0.40386
      H   17    0.09561      0.00000     0.40298    0.00140     0.40439
      H   18    0.10089      0.00000     0.39767    0.00144     0.39911
      H   19    0.09890      0.00000     0.39962    0.00148     0.40110
      H   20    0.09394      0.00000     0.40470    0.00135     0.40606
      H   21    0.10339      0.00000     0.39511    0.00150     0.39661
      H   22    0.10484      0.00000     0.39353    0.00163     0.39516
      H   23    0.09648      0.00000     0.40190    0.00162     0.40352
      H   24    0.09640      0.00000     0.40213    0.00146     0.40360
      H   25    0.10536      0.00000     0.39290    0.00174     0.39464
      H   26    0.10516      0.00000     0.39321    0.00163     0.39484
 =======================================================================
   * Total *    0.00000      9.99567    27.88874    0.11559    38.00000

 Normal termination of Gaussian 16 at Tue Dec  8 12:50:23 2020.
