 Gaussian 16, Revision A.03,

 -----------------------------------------------------------
 # opt freq B3LYP/6-31G(d) empiricaldispersion=gd3bj scf=xqc
 -----------------------------------------------------------

 ------------------------------
 CID_55109458_JID_8521_neutraal
 ------------------------------
 Symbolic Z-matrix:
 Charge =  0 Multiplicity = 1

 SCF Done:  E(RB3LYP) =  -1182.79478924     A.U. after   14 cycles
 SCF Done:  E(RB3LYP) =  -1182.80386888     A.U. after   12 cycles
 SCF Done:  E(RB3LYP) =  -1182.80547585     A.U. after   12 cycles
 SCF Done:  E(RB3LYP) =  -1182.80611539     A.U. after   12 cycles
 SCF Done:  E(RB3LYP) =  -1182.80643781     A.U. after   12 cycles
 SCF Done:  E(RB3LYP) =  -1182.80660863     A.U. after   11 cycles
 SCF Done:  E(RB3LYP) =  -1182.80674609     A.U. after   11 cycles
 SCF Done:  E(RB3LYP) =  -1182.80681308     A.U. after   11 cycles
 SCF Done:  E(RB3LYP) =  -1182.80684718     A.U. after   11 cycles
 SCF Done:  E(RB3LYP) =  -1182.80688890     A.U. after   11 cycles
 SCF Done:  E(RB3LYP) =  -1182.80703489     A.U. after    9 cycles
 SCF Done:  E(RB3LYP) =  -1182.80703801     A.U. after   10 cycles
 SCF Done:  E(RB3LYP) =  -1182.80703808     A.U. after    7 cycles
 SCF Done:  E(RB3LYP) =  -1182.80703808     A.U. after    9 cycles
 SCF Done:  E(RB3LYP) =  -1182.80703813     A.U. after    9 cycles
 Optimization completed.
    -- Stationary point found.
 Normal termination of Gaussian 16 at Fri Dec 11 21:19:55 2020.

 --------------------------------------------------------------------
 #N Geom=AllCheck Guess=TCheck SCRF=Check GenChk RB3LYP/6-31G(d) Freq
 --------------------------------------------------------------------

 Structure from the checkpoint file:  "JID_8521.chk"
 ------------------------------
 CID_55109458_JID_8521_neutraal
 ------------------------------
 Charge =  0 Multiplicity = 1

 SCF Done:  E(RB3LYP) =  -1182.80703813     A.U. after    1 cycles

  Exact polarizability: 191.841  -3.563 144.391  -1.501   2.240 145.532
 Approx polarizability: 267.062 -14.505 202.043   2.822  13.039 245.152

                      1                      2                      3
                      A                      A                      A
 Frequencies --     15.2229                30.1456                41.4468
 Red. masses --      3.9910                 3.0810                 3.0896
 Frc consts  --      0.0005                 0.0016                 0.0031
 IR Inten    --      0.4019                 0.6241                 1.0381

                      4                      5                      6
                      A                      A                      A
 Frequencies --     54.0815                77.7413                79.7659
 Red. masses --      6.9189                 4.6219                 4.2865
 Frc consts  --      0.0119                 0.0165                 0.0161
 IR Inten    --      2.8114                 4.7020                 1.5967

                      7                      8                      9
                      A                      A                      A
 Frequencies --     93.3518               115.2910               152.1337
 Red. masses --      2.0556                 3.9514                 2.1709
 Frc consts  --      0.0106                 0.0309                 0.0296
 IR Inten    --      0.0910                 2.3262                 0.2800

                     10                     11                     12
                      A                      A                      A
 Frequencies --    175.3749               189.0728               204.5596
 Red. masses --      2.6379                 2.5309                 4.2881
 Frc consts  --      0.0478                 0.0533                 0.1057
 IR Inten    --      0.5723                 1.1355                 1.2949

                     13                     14                     15
                      A                      A                      A
 Frequencies --    245.5619               266.2257               292.2819
 Red. masses --      1.3742                 1.6378                 3.1514
 Frc consts  --      0.0488                 0.0684                 0.1586
 IR Inten    --      0.4064                 0.2287                 0.8251

                     16                     17                     18
                      A                      A                      A
 Frequencies --    316.2932               323.4753               340.9010
 Red. masses --      3.1260                 2.3873                 3.5753
 Frc consts  --      0.1843                 0.1472                 0.2448
 IR Inten    --      1.9856                 5.8109                 0.4083

                     19                     20                     21
                      A                      A                      A
 Frequencies --    360.3661               374.0000               406.2009
 Red. masses --      2.7685                 3.6541                 4.6936
 Frc consts  --      0.2118                 0.3011                 0.4563
 IR Inten    --      4.0794                 7.0051                23.8664

                     22                     23                     24
                      A                      A                      A
 Frequencies --    429.9802               454.4894               481.3299
 Red. masses --      2.6808                 3.4026                 4.1633
 Frc consts  --      0.2920                 0.4141                 0.5683
 IR Inten    --      6.6167                 1.8202                21.6793

                     25                     26                     27
                      A                      A                      A
 Frequencies --    524.9486               562.3818               608.6789
 Red. masses --      2.7023                 4.8914                 3.3309
 Frc consts  --      0.4388                 0.9115                 0.7271
 IR Inten    --      1.8514                 7.7194                 8.5701

                     28                     29                     30
                      A                      A                      A
 Frequencies --    642.7938               656.5779               663.2757
 Red. masses --      3.3419                 4.1201                 4.3428
 Frc consts  --      0.8136                 1.0465                 1.1257
 IR Inten    --     22.8579                 1.6905                12.3481

                     31                     32                     33
                      A                      A                      A
 Frequencies --    692.5901               698.7742               753.7636
 Red. masses --      3.2672                 2.7012                 1.8342
 Frc consts  --      0.9234                 0.7771                 0.6140
 IR Inten    --     25.5585                33.7428                65.4091

                     34                     35                     36
                      A                      A                      A
 Frequencies --    774.6692               792.4186               832.6985
 Red. masses --      1.9558                 1.2231                 1.3616
 Frc consts  --      0.6915                 0.4525                 0.5562
 IR Inten    --     13.7276                18.8242                33.5856

                     37                     38                     39
                      A                      A                      A
 Frequencies --    840.6660               867.8591               879.6344
 Red. masses --      1.3893                 1.4381                 2.8799
 Frc consts  --      0.5785                 0.6382                 1.3129
 IR Inten    --     26.2791                11.0342                16.8552

                     40                     41                     42
                      A                      A                      A
 Frequencies --    898.6928               901.0142               923.7320
 Red. masses --      2.1469                 2.1772                 1.6301
 Frc consts  --      1.0216                 1.0414                 0.8195
 IR Inten    --      7.4787                14.8738                 1.8329

                     43                     44                     45
                      A                      A                      A
 Frequencies --    935.0110               983.9881               996.4968
 Red. masses --      1.9282                 1.8933                 2.1583
 Frc consts  --      0.9932                 1.0801                 1.2627
 IR Inten    --     23.2321                 5.6063                 8.3863

                     46                     47                     48
                      A                      A                      A
 Frequencies --   1012.9359              1020.7737              1039.3133
 Red. masses --      2.5112                 2.8873                 2.7521
 Frc consts  --      1.5181                 1.7726                 1.7515
 IR Inten    --     14.8105                 2.0036                 2.8517

                     49                     50                     51
                      A                      A                      A
 Frequencies --   1057.9198              1073.5354              1097.5950
 Red. masses --      2.1483                 1.6534                 1.9852
 Frc consts  --      1.4166                 1.1227                 1.4091
 IR Inten    --      5.1779                10.5472                17.0619

                     52                     53                     54
                      A                      A                      A
 Frequencies --   1101.4984              1109.6059              1124.3150
 Red. masses --      5.1757                 1.6503                 2.0572
 Frc consts  --      3.6999                 1.1971                 1.5322
 IR Inten    --    114.8005                 5.2036                 8.5808

                     55                     56                     57
                      A                      A                      A
 Frequencies --   1134.8197              1158.3349              1178.9537
 Red. masses --      1.2125                 1.4556                 2.8485
 Frc consts  --      0.9200                 1.1507                 2.3327
 IR Inten    --      5.6420                23.3995                61.9422

                     58                     59                     60
                      A                      A                      A
 Frequencies --   1179.6608              1188.7965              1210.6411
 Red. masses --      1.5546                 1.8516                 2.1829
 Frc consts  --      1.2746                 1.5418                 1.8850
 IR Inten    --     36.6875                36.3811                 4.7604

                     61                     62                     63
                      A                      A                      A
 Frequencies --   1240.0762              1249.2456              1284.9914
 Red. masses --      1.6607                 1.5619                 1.8001
 Frc consts  --      1.5047                 1.4362                 1.7512
 IR Inten    --     18.5790                 8.3914                 8.1574

                     64                     65                     66
                      A                      A                      A
 Frequencies --   1287.2057              1302.6852              1305.9038
 Red. masses --      1.5798                 1.5416                 1.3236
 Frc consts  --      1.5422                 1.5413                 1.3299
 IR Inten    --     11.7228                43.4935                17.9573

                     67                     68                     69
                      A                      A                      A
 Frequencies --   1320.0741              1328.3740              1344.7051
 Red. masses --      1.9172                 2.2576                 1.4200
 Frc consts  --      1.9684                 2.3472                 1.5129
 IR Inten    --     48.6806                94.3531                21.7268

                     70                     71                     72
                      A                      A                      A
 Frequencies --   1368.3005              1375.6164              1393.4854
 Red. masses --      1.4732                 1.4130                 1.3838
 Frc consts  --      1.6251                 1.5754                 1.5832
 IR Inten    --      9.1333                 5.4424                10.2225

                     73                     74                     75
                      A                      A                      A
 Frequencies --   1405.5710              1410.6600              1414.0311
 Red. masses --      1.4995                 1.5744                 4.0465
 Frc consts  --      1.7455                 1.8459                 4.7670
 IR Inten    --      6.5374                22.9298                36.7586

                     76                     77                     78
                      A                      A                      A
 Frequencies --   1434.9824              1438.3494              1449.7443
 Red. masses --      1.2533                 1.2816                 2.5599
 Frc consts  --      1.5206                 1.5621                 3.1700
 IR Inten    --     10.9627                 2.0736                15.6307

                     79                     80                     81
                      A                      A                      A
 Frequencies --   1472.6172              1485.9047              1487.1345
 Red. masses --      2.2165                 1.2119                 1.0994
 Frc consts  --      2.8320                 1.5765                 1.4325
 IR Inten    --      9.5567                14.6801                 9.1123

                     82                     83                     84
                      A                      A                      A
 Frequencies --   1506.5631              1514.7624              1515.6372
 Red. masses --      1.0777                 1.1102                 1.1147
 Frc consts  --      1.4412                 1.5008                 1.5087
 IR Inten    --      9.9729                 5.0348                10.4793

                     85                     86                     87
                      A                      A                      A
 Frequencies --   1517.4661              1526.0903              1528.5649
 Red. masses --      1.0796                 1.1002                 1.0527
 Frc consts  --      1.4647                 1.5097                 1.4491
 IR Inten    --      0.8213                 6.6358                 3.8082

                     88                     89                     90
                      A                      A                      A
 Frequencies --   1537.2089              1538.0691              1610.9490
 Red. masses --      1.0659                 1.0933                 4.7821
 Frc consts  --      1.4840                 1.5239                 7.3119
 IR Inten    --      6.2322                 9.9711                15.1870

                     91                     92                     93
                      A                      A                      A
 Frequencies --   3025.8237              3034.3967              3040.8392
 Red. masses --      1.0723                 1.0617                 1.0763
 Frc consts  --      5.7844                 5.7596                 5.8636
 IR Inten    --      9.1737                53.4095                29.1975

                     94                     95                     96
                      A                      A                      A
 Frequencies --   3044.3767              3047.5086              3071.7717
 Red. masses --      1.0407                 1.0389                 1.1019
 Frc consts  --      5.6829                 5.6847                 6.1261
 IR Inten    --     27.8186                26.0494                29.8502

                     97                     98                     99
                      A                      A                      A
 Frequencies --   3081.4244              3091.5609              3103.4527
 Red. masses --      1.0649                 1.0952                 1.1017
 Frc consts  --      5.9573                 6.1672                 6.2518
 IR Inten    --     14.7214                 8.4054                46.1707

                    100                    101                    102
                      A                      A                      A
 Frequencies --   3112.6850              3114.5049              3120.2131
 Red. masses --      1.1017                 1.0586                 1.0639
 Frc consts  --      6.2892                 6.0502                 6.1025
 IR Inten    --     39.7394                 0.6222                 1.9137

                    103                    104                    105
                      A                      A                      A
 Frequencies --   3122.7387              3129.6455              3146.7500
 Red. masses --      1.1016                 1.0812                 1.1015
 Frc consts  --      6.3290                 6.2397                 6.4262
 IR Inten    --     61.3600                 6.9403                 5.4360

                    106                    107                    108
                      A                      A                      A
 Frequencies --   3147.9398              3181.8672              3187.6484
 Red. masses --      1.0984                 1.1097                 1.1095
 Frc consts  --      6.4132                 6.6194                 6.6422
 IR Inten    --     34.5500                 1.1420                 0.0969

                    109                    110                    111
                      A                      A                      A
 Frequencies --   3245.8873              3268.4886              3485.8961
 Red. masses --      1.0954                 1.0988                 1.0732
 Frc consts  --      6.7994                 6.9163                 7.6838
 IR Inten    --      5.6617                12.1213                 1.0977

 - Thermochemistry -
 -------------------
 Temperature   298.150 Kelvin.  Pressure   1.00000 Atm.
 Atom     1 has atomic number  6 and mass  12.00000

 Molecular mass:   271.13545 amu.
 Principal axes and moments of inertia in atomic units:
                           1         2         3
     Eigenvalues --  2807.806038427.724738781.12733
           X            0.99983  -0.00174  -0.01836
           Y           -0.00015   0.99475  -0.10237
           Z            0.01845   0.10236   0.99458
 This molecule is an asymmetric top.
 Rotational symmetry number  1.
 Warning -- assumption of classical behavior for rotation
           may cause significant error
 Rotational temperatures (Kelvin)      0.03085     0.01028     0.00986
 Rotational constants (GHZ):           0.64276     0.21414     0.20553
 Zero-point vibrational energy     879488.8 (Joules/Mol)
                                  210.20287 (Kcal/Mol)
 Warning -- explicit consideration of  27 degrees of freedom as
           vibrations may cause significant error
 Vibrational temperatures:     21.90    43.37    59.63    77.81   111.85
          (Kelvin)            114.77   134.31   165.88   218.89   252.33
                              272.03   294.32   353.31   383.04   420.53
                              455.08   465.41   490.48   518.49   538.10
                              584.43   618.65   653.91   692.53   755.28
                              809.14   875.75   924.84   944.67   954.31
                              996.48  1005.38  1084.50  1114.58  1140.11
                             1198.07  1209.53  1248.66  1265.60  1293.02
                             1296.36  1329.04  1345.27  1415.74  1433.74
                             1457.39  1468.67  1495.34  1522.11  1544.58
                             1579.19  1584.81  1596.48  1617.64  1632.75
                             1666.59  1696.25  1697.27  1710.41  1741.84
                             1784.19  1797.39  1848.82  1852.00  1874.27
                             1878.90  1899.29  1911.23  1934.73  1968.68
                             1979.21  2004.91  2022.30  2029.63  2034.48
                             2064.62  2069.46  2085.86  2118.77  2137.89
                             2139.65  2167.61  2179.41  2180.66  2183.30
                             2195.70  2199.26  2211.70  2212.94  2317.80
                             4353.49  4365.82  4375.09  4380.18  4384.69
                             4419.59  4433.48  4448.07  4465.18  4478.46
                             4481.08  4489.29  4492.92  4502.86  4527.47
                             4529.18  4578.00  4586.32  4670.11  4702.63
                             5015.43

 Zero-point correction=                           0.334980 (Hartree/Particle)
 Thermal correction to Energy=                    0.353529
 Thermal correction to Enthalpy=                  0.354473
 Thermal correction to Gibbs Free Energy=         0.285984
 Sum of electronic and zero-point Energies=          -1182.472059
 Sum of electronic and thermal Energies=             -1182.453509
 Sum of electronic and thermal Enthalpies=           -1182.452565
 Sum of electronic and thermal Free Energies=        -1182.521054

                     E (Thermal)             CV                S
                      KCal/Mol        Cal/Mol-Kelvin    Cal/Mol-Kelvin
 Total                  221.843             69.835            144.149
 Electronic               0.000              0.000              0.000
 Translational            0.889              2.981             42.691
 Rotational               0.889              2.981             33.696
 Vibrational            220.066             63.873             67.761
 Vibration     1          0.593              1.986              7.176
 Vibration     2          0.594              1.984              5.820
 Vibration     3          0.594              1.981              5.189
 Vibration     4          0.596              1.976              4.662
 Vibration     5          0.599              1.964              3.947
 Vibration     6          0.600              1.963              3.897
 Vibration     7          0.602              1.954              3.589
 Vibration     8          0.608              1.937              3.178
 Vibration     9          0.619              1.900              2.645
 Vibration    10          0.627              1.873              2.377
 Vibration    11          0.633              1.855              2.237
 Vibration    12          0.640              1.833              2.092
 Vibration    13          0.660              1.770              1.762
 Vibration    14          0.672              1.735              1.621
 Vibration    15          0.688              1.688              1.461
 Vibration    16          0.703              1.643              1.329
 Vibration    17          0.708              1.628              1.292
 Vibration    18          0.720              1.594              1.208
 Vibration    19          0.735              1.554              1.121
 Vibration    20          0.745              1.525              1.063
 Vibration    21          0.771              1.457              0.940
 Vibration    22          0.791              1.405              0.859
 Vibration    23          0.813              1.351              0.782
 Vibration    24          0.838              1.291              0.706
 Vibration    25          0.880              1.195              0.599
 Vibration    26          0.918              1.113              0.519
 Vibration    27          0.968              1.013              0.435

                           ! Non-Optimized Parameters !
 Normal termination of Gaussian 16 at Fri Dec 11 21:41:30 2020.

 ----------------------------------------------------------------------
 # B3LYP/6-311++G(d,p) empiricaldispersion=gd3bj scf=xqc pop=npa geom=c
 heck
 ----------------------------------------------------------------------

 --------------------------------------
 CID_55109458_JID_8521_Energie_neutraal
 --------------------------------------
 Structure from the checkpoint file:  "JID_8521.chk"
 Charge =  0 Multiplicity = 1

 SCF Done:  E(RB3LYP) =  -1183.05430951     A.U. after   16 cycles
 Normal termination of Gaussian 16 at Fri Dec 11 21:52:23 2020.

 ----------------------------------------------------------------------
 # B3LYP/6-311++G(d,p) empiricaldispersion=gd3bj scf=xqc pop=npa geom=c
 heck
 ----------------------------------------------------------------------

 ------------------------------------
 CID_55109458_JID_8521_Energie_kation
 ------------------------------------
 Structure from the checkpoint file:  "JID_8521.chk"
 Charge =  1 Multiplicity = 2

 SCF Done:  E(UB3LYP) =  -1182.75938652     A.U. after   25 cycles
 Normal termination of Gaussian 16 at Fri Dec 11 22:16:42 2020.
 Gaussian 16:  ES64L-G16RevA.03 25-Dec-2016

 ----------------------------------------------------------------------
 # B3LYP/6-311++G(d,p) empiricaldispersion=gd3bj scf=xqc pop=npa geom=c
 heck
 ----------------------------------------------------------------------

 -----------------------------------
 CID_55109458_JID_8521_Energie_anion
 -----------------------------------
 Structure from the checkpoint file:  "JID_8521.chk"
 Charge = -1 Multiplicity = 2

                         Standard orientation:
 ---------------------------------------------------------------------
 Center     Atomic      Atomic             Coordinates (Angstroms)
 Number     Number       Type             X           Y           Z
 ---------------------------------------------------------------------
      1          6           0        1.854514   -3.098062    0.040701
      2          6           0        3.050390   -2.145064    0.067511
      3          6           0        2.728289   -0.729025   -0.449715
      4          6           0        1.608964   -0.103470    0.352376
      5          6           0        0.323913    0.186039   -0.068639
      6          7           0       -0.330723    0.742582    0.996950
      7          7           0        0.452322    0.804216    2.100766
      8          6           0        1.622712    0.299945    1.712060
      9          6           0       -1.740486    1.072429    1.157704
     10          6           0       -2.530651   -0.133619    1.727028
     11          6           0       -2.707859   -1.140573    0.591304
     12         16           0       -3.086759   -0.108725   -0.877473
     13          8           0       -4.544684    0.037061   -1.002135
     14          8           0       -2.272148   -0.535355   -2.028596
     15          6           0       -2.399886    1.451476   -0.169825
     16          7           0        3.977465    0.037432   -0.506570
     17          6           0        3.974664    1.275000   -1.285948
     18          6           0        3.236152    2.489643   -0.702013
     19          1           0        1.050663   -2.746323    0.696326
     20          1           0        2.145370   -4.100963    0.371023
     21          1           0        1.443228   -3.185887   -0.972506
     22          1           0        3.435548   -2.065518    1.094512
     23          1           0        3.869743   -2.537100   -0.544567
     24          1           0        2.381286   -0.825580   -1.487418
     25          1           0       -0.155941    0.031733   -1.024956
     26          1           0        2.442602    0.260114    2.418097
     27          1           0       -1.772538    1.908012    1.859195
     28          1           0       -3.507866    0.214395    2.079236
     29          1           0       -1.990079   -0.563657    2.573079
     30          1           0       -3.541331   -1.831947    0.723581
     31          1           0       -1.789847   -1.690186    0.372915
     32          1           0       -1.719902    1.897692   -0.896319
     33          1           0       -3.255976    2.108179   -0.006618
     34          1           0        4.313657    0.220167    0.437704
     35          1           0        5.024891    1.548840   -1.452301
     36          1           0        3.563341    1.032279   -2.274236
     37          1           0        3.601200    2.718442    0.306987
     38          1           0        3.408178    3.374053   -1.327949
     39          1           0        2.158842    2.321290   -0.633661
 ---------------------------------------------------------------------

 SCF Done:  E(UB3LYP) =  -1183.04660120     A.U. after   33 cycles
 SCF Done:  E(UB3LYP) =  -1183.04660120     a.u. after    1 cycles

 The electronic state is 2-A.
 Alpha  occ. eigenvalues --  -88.95575 -19.03088 -19.02813 -14.30254 -14.24224
 Alpha  occ. eigenvalues --  -14.21436 -10.15110 -10.12536 -10.12424 -10.12360
 Alpha  occ. eigenvalues --  -10.11512 -10.11099 -10.10525 -10.10195 -10.08498
 Alpha  occ. eigenvalues --  -10.08218 -10.07755 -10.07045  -8.02123  -5.98383
 Alpha  occ. eigenvalues --   -5.98251  -5.98227  -1.01969  -0.96505  -0.91786
 Alpha  occ. eigenvalues --   -0.82721  -0.79400  -0.72554  -0.71816  -0.68804
 Alpha  occ. eigenvalues --   -0.67022  -0.65084  -0.62934  -0.58882  -0.54472
 Alpha  occ. eigenvalues --   -0.53168  -0.52267  -0.50941  -0.49277  -0.47639
 Alpha  occ. eigenvalues --   -0.44848  -0.42671  -0.41207  -0.39903  -0.38588
 Alpha  occ. eigenvalues --   -0.38308  -0.37374  -0.37278  -0.36762  -0.35334
 Alpha  occ. eigenvalues --   -0.34584  -0.34065  -0.33785  -0.33132  -0.31865
 Alpha  occ. eigenvalues --   -0.31288  -0.30168  -0.29469  -0.29385  -0.29319
 Alpha  occ. eigenvalues --   -0.28995  -0.27143  -0.26008  -0.25743  -0.25296
 Alpha  occ. eigenvalues --   -0.24245  -0.23324  -0.21991  -0.20797  -0.20060
 Alpha  occ. eigenvalues --   -0.17157  -0.16191  -0.13926   0.03871
 Alpha virt. eigenvalues --    0.05700   0.06087   0.06831   0.07235   0.07910
 Alpha virt. eigenvalues --    0.08271   0.08594   0.09111   0.09413   0.09698
 Alpha virt. eigenvalues --    0.10072   0.10483   0.11061   0.11548   0.11716

  Beta  occ. eigenvalues --  -88.95573 -19.03086 -19.02808 -14.30243 -14.24196
  Beta  occ. eigenvalues --  -14.21432 -10.15089 -10.12494 -10.12398 -10.12358
  Beta  occ. eigenvalues --  -10.11492 -10.11092 -10.10487 -10.10187 -10.08491
  Beta  occ. eigenvalues --  -10.08220 -10.07744 -10.07027  -8.02121  -5.98381
  Beta  occ. eigenvalues --   -5.98248  -5.98226  -1.01960  -0.96471  -0.91779
  Beta  occ. eigenvalues --   -0.82711  -0.79350  -0.72514  -0.71793  -0.68776
  Beta  occ. eigenvalues --   -0.66958  -0.65063  -0.62882  -0.58854  -0.54407
  Beta  occ. eigenvalues --   -0.53143  -0.52234  -0.50892  -0.49243  -0.47587
  Beta  occ. eigenvalues --   -0.44817  -0.42599  -0.41183  -0.39881  -0.38543
  Beta  occ. eigenvalues --   -0.38290  -0.37345  -0.37243  -0.36732  -0.35297
  Beta  occ. eigenvalues --   -0.34549  -0.34045  -0.33760  -0.33102  -0.31833
  Beta  occ. eigenvalues --   -0.31260  -0.30117  -0.29443  -0.29331  -0.29291
  Beta  occ. eigenvalues --   -0.28940  -0.27120  -0.25990  -0.25727  -0.25280
  Beta  occ. eigenvalues --   -0.24227  -0.23318  -0.21980  -0.20745  -0.20024
  Beta  occ. eigenvalues --   -0.17068  -0.16137  -0.13905
  Beta virt. eigenvalues --    0.05694   0.06395   0.06825   0.07032   0.07770
  Beta virt. eigenvalues --    0.08273   0.08700   0.08890   0.09269   0.09539
  Beta virt. eigenvalues --    0.09962   0.10362   0.10960   0.11207   0.11732

 Mulliken charges and spin densities:
               1          2
     1  C   -0.254384  -0.402664
     2  C   -0.017536   0.004751
     3  C   -1.523612  -0.058844
     4  C    0.786693   0.455621
     5  C   -0.089285  -0.360782
     6  N    0.388870  -0.155479
     7  N   -0.077439   0.252420
     8  C    0.566007  -1.302599
     9  C   -1.339338   1.659899
    10  C    1.459605  -2.056269
    11  C   -0.712195   0.152324
    12  S    0.602342  -0.097315
    13  O   -0.148467   0.008639
    14  O   -0.122271  -0.000705
    15  C    0.644790  -1.615118
    16  N    0.030506   0.044776
    17  C   -0.170651   0.043849
    18  C   -0.060751  -0.519424
    19  H    0.054154   0.119467
    20  H   -0.052079   0.196326
    21  H    0.118665   0.013552
    22  H    0.041177   0.088963
    23  H    0.095252   0.062574
    24  H    0.071615   0.093974
    25  H    0.375153  -0.138948
    26  H   -0.033695   0.160979
    27  H   -0.827548   1.131930
    28  H   -0.207599   0.404375
    29  H   -0.190364   0.403036
    30  H   -0.301740   0.589285
    31  H    0.225539  -0.077767
    32  H    0.047548   0.182704
    33  H   -0.600410   0.925735
    34  H    0.198408   0.038278
    35  H   -0.000382   0.170657
    36  H    0.095112   0.013683
    37  H    0.078277   0.062991
    38  H   -0.155087   0.289637
    39  H    0.005119   0.215488
 Sum of Mulliken charges =  -1.00000   1.00000

 Dipole moment (field-independent basis, Debye):
    X=              6.4306    Y=             -3.4031    Z=             -2.1359  Tot=              7.5826
 Quadrupole moment (field-independent basis, Debye-Ang):
   XX=           -206.7321   YY=           -167.4791   ZZ=           -163.5997
   XY=              6.0431   XZ=              6.7711   YZ=             -4.5847

 Summary of Natural Population Analysis:

                                       Natural Population
                Natural  -----------------------------------------------
    Atom  No    Charge         Core      Valence    Rydberg      Total
 -----------------------------------------------------------------------
      C    1   -0.28722      0.99966     2.28334    0.00421     3.28722
      C    2   -0.18441      0.99962     2.17692    0.00786     3.18441
      C    3   -0.01487      0.99954     2.00270    0.01262     3.01487
      C    4   -0.08047      0.99951     2.06837    0.01259     3.08047
      C    5   -0.01489      0.99947     2.00383    0.01158     3.01489
      N    6   -0.11488      0.99965     2.59932    0.01591     3.61488
      N    7   -0.14428      0.99973     2.63326    0.01129     3.64428
      C    8   -0.01183      0.99955     1.99803    0.01425     3.01183
      C    9   -0.01186      0.99957     1.99554    0.01676     3.01186
      C   10   -0.20130      0.99960     2.19148    0.01021     3.20130
      C   11   -0.28750      0.99959     2.27711    0.01080     3.28750
      S   12    1.00779      4.99930     1.89979    0.09312     6.99221
      O   13   -0.46206      0.99991     3.45641    0.00574     4.46206
      O   14   -0.46923      0.99991     3.46384    0.00547     4.46923
      C   15   -0.29274      0.99957     2.27958    0.01359     3.29274
      N   16   -0.33813      0.99975     2.82701    0.01137     3.83813
      C   17   -0.08496      0.99964     2.07550    0.00982     3.08496
      C   18   -0.29738      0.99966     2.29288    0.00483     3.29738
      H   19    0.10171      0.00000     0.39698    0.00130     0.39829
      H   20    0.09798      0.00000     0.40112    0.00089     0.40202
      H   21    0.09571      0.00000     0.40326    0.00103     0.40429
      H   22    0.09271      0.00000     0.40608    0.00121     0.40729
      H   23    0.09953      0.00000     0.39913    0.00134     0.40047
      H   24    0.09407      0.00000     0.40402    0.00191     0.40593
      H   25    0.11787      0.00000     0.38045    0.00168     0.38213
      H   26    0.09698      0.00000     0.40193    0.00110     0.40302
      H   27    0.12511      0.00000     0.37038    0.00450     0.37489
      H   28    0.11380      0.00000     0.38254    0.00366     0.38620
      H   29    0.11793      0.00000     0.38057    0.00150     0.38207
      H   30    0.12307      0.00000     0.37547    0.00146     0.37693
      H   31    0.11588      0.00000     0.38251    0.00161     0.38412
      H   32    0.12394      0.00000     0.37450    0.00156     0.37606
      H   33    0.13096      0.00000     0.36630    0.00274     0.36904
      H   34    0.16883      0.00000     0.32874    0.00243     0.33117
      H   35    0.08840      0.00000     0.41049    0.00110     0.41160
      H   36    0.08873      0.00000     0.41008    0.00120     0.41127
      H   37    0.09530      0.00000     0.40357    0.00113     0.40470
      H   38    0.09733      0.00000     0.40170    0.00097     0.40267
      H   39    0.10435      0.00000     0.39404    0.00161     0.39565
 =======================================================================
   * Total *   -0.00000     21.99325    50.69881    0.30794    73.00000

 Normal termination of Gaussian 16 at Fri Dec 11 22:49:02 2020.
