 Gaussian 16, Revision A.03,

 -----------------------------------------------------------
 # opt freq B3LYP/6-31G(d) empiricaldispersion=gd3bj scf=xqc
 -----------------------------------------------------------

 ------------------------------
 CID_64986952_JID_2597_neutraal
 ------------------------------
 Symbolic Z-matrix:
 Charge =  0 Multiplicity = 1

 SCF Done:  E(RB3LYP) =  -507.663276615     A.U. after   13 cycles
 SCF Done:  E(RB3LYP) =  -507.667595817     A.U. after   10 cycles
 SCF Done:  E(RB3LYP) =  -507.667509910     A.U. after   10 cycles
 SCF Done:  E(RB3LYP) =  -507.667816976     A.U. after   10 cycles
 SCF Done:  E(RB3LYP) =  -507.667818087     A.U. after    9 cycles
 SCF Done:  E(RB3LYP) =  -507.667834462     A.U. after    9 cycles
 SCF Done:  E(RB3LYP) =  -507.667835701     A.U. after    7 cycles
 SCF Done:  E(RB3LYP) =  -507.667835833     A.U. after    6 cycles
 Optimization completed.
    -- Stationary point found.
 Normal termination of Gaussian 16 at Wed Dec  9 17:38:36 2020.

 --------------------------------------------------------------------
 #N Geom=AllCheck Guess=TCheck SCRF=Check GenChk RB3LYP/6-31G(d) Freq
 --------------------------------------------------------------------

 Structure from the checkpoint file:  "JID_2597.chk"
 ------------------------------
 CID_64986952_JID_2597_neutraal
 ------------------------------
 Charge =  0 Multiplicity = 1

 SCF Done:  E(RB3LYP) =  -507.667835833     A.U. after    1 cycles

  Exact polarizability: 126.655  -0.688 116.459   2.092  -1.774 105.549
 Approx polarizability: 160.786  -2.460 157.650   1.896  -0.620 158.537

                      1                      2                      3
                      A                      A                      A
 Frequencies --     44.3332                57.3060                64.6661
 Red. masses --      2.8253                 3.1847                 2.6843
 Frc consts  --      0.0033                 0.0062                 0.0066
 IR Inten    --      0.1331                 0.2377                 0.0864

                      4                      5                      6
                      A                      A                      A
 Frequencies --    108.6967               135.5183               136.9546
 Red. masses --      2.5677                 2.5286                 2.8712
 Frc consts  --      0.0179                 0.0274                 0.0317
 IR Inten    --      0.4348                 0.5347                 0.8904

                      7                      8                      9
                      A                      A                      A
 Frequencies --    162.4561               211.4929               226.2156
 Red. masses --      2.3028                 1.5798                 2.3450
 Frc consts  --      0.0358                 0.0416                 0.0707
 IR Inten    --      0.0893                 0.4232                 2.2264

                     10                     11                     12
                      A                      A                      A
 Frequencies --    244.3364               277.1465               287.3905
 Red. masses --      1.1051                 1.5400                 2.1175
 Frc consts  --      0.0389                 0.0697                 0.1030
 IR Inten    --      0.0330                31.1509                 5.7250

                     13                     14                     15
                      A                      A                      A
 Frequencies --    312.7000               329.8000               370.2160
 Red. masses --      1.5639                 1.7682                 2.6492
 Frc consts  --      0.0901                 0.1133                 0.2139
 IR Inten    --      2.2192                63.1283                 0.7122

                     16                     17                     18
                      A                      A                      A
 Frequencies --    399.6957               435.1971               457.2104
 Red. masses --      2.8636                 2.1981                 2.9671
 Frc consts  --      0.2695                 0.2453                 0.3654
 IR Inten    --     11.9112                 0.7973                 0.1087

                     19                     20                     21
                      A                      A                      A
 Frequencies --    557.3645               558.5693               637.6277
 Red. masses --      2.4670                 2.3362                 2.1925
 Frc consts  --      0.4515                 0.4294                 0.5252
 IR Inten    --      5.1631                 4.4147                10.7230

                     22                     23                     24
                      A                      A                      A
 Frequencies --    749.7628               755.1712               802.6974
 Red. masses --      1.4597                 1.5516                 1.2102
 Frc consts  --      0.4835                 0.5214                 0.4594
 IR Inten    --      2.3268                 0.7564                 0.2609

                     25                     26                     27
                      A                      A                      A
 Frequencies --    834.5032               864.2350               889.7477
 Red. masses --      1.8916                 1.5036                 2.0403
 Frc consts  --      0.7761                 0.6617                 0.9517
 IR Inten    --      3.7401                 0.8724                 2.7603

                     28                     29                     30
                      A                      A                      A
 Frequencies --    912.7463               915.3882               944.8715
 Red. masses --      1.5813                 1.8657                 2.3851
 Frc consts  --      0.7762                 0.9211                 1.2546
 IR Inten    --      0.9733                 6.4562                 2.0287

                     31                     32                     33
                      A                      A                      A
 Frequencies --    950.0697               971.4756               979.4629
 Red. masses --      2.0968                 1.8456                 1.3302
 Frc consts  --      1.1151                 1.0262                 0.7519
 IR Inten    --      2.7385                 5.1433                 1.0170

                     34                     35                     36
                      A                      A                      A
 Frequencies --   1014.6900              1026.3092              1033.7787
 Red. masses --      2.5086                 1.3922                 3.1432
 Frc consts  --      1.5218                 0.8640                 1.9792
 IR Inten    --     10.3198                 3.7180                79.0137

                     37                     38                     39
                      A                      A                      A
 Frequencies --   1041.6699              1057.0675              1085.2138
 Red. masses --      1.9526                 1.6654                 2.5960
 Frc consts  --      1.2483                 1.0964                 1.8013
 IR Inten    --      1.2846                11.6349                 0.8946

                     40                     41                     42
                      A                      A                      A
 Frequencies --   1115.9715              1145.7479              1174.0444
 Red. masses --      1.6436                 2.0395                 2.1780
 Frc consts  --      1.2060                 1.5774                 1.7688
 IR Inten    --      7.7289                 5.5730                 9.0624

                     43                     44                     45
                      A                      A                      A
 Frequencies --   1178.5126              1193.9061              1214.1015
 Red. masses --      2.0428                 1.9299                 1.3632
 Frc consts  --      1.6716                 1.6208                 1.1839
 IR Inten    --      3.5666                 4.1971                 2.5385

                     46                     47                     48
                      A                      A                      A
 Frequencies --   1224.2187              1254.9408              1271.1162
 Red. masses --      1.4403                 1.3313                 1.2618
 Frc consts  --      1.2718                 1.2353                 1.2012
 IR Inten    --      1.4411                 1.1341                 0.8935

                     49                     50                     51
                      A                      A                      A
 Frequencies --   1273.8059              1282.7985              1292.0695
 Red. masses --      1.3124                 1.2771                 1.4327
 Frc consts  --      1.2547                 1.2382                 1.4093
 IR Inten    --     11.8756                 1.4149                 2.0575

                     52                     53                     54
                      A                      A                      A
 Frequencies --   1298.2557              1316.3263              1325.0773
 Red. masses --      1.2754                 1.3108                 1.2928
 Frc consts  --      1.2666                 1.3382                 1.3374
 IR Inten    --      1.2333                 0.5932                 1.7955

                     55                     56                     57
                      A                      A                      A
 Frequencies --   1353.0270              1367.9615              1384.5743
 Red. masses --      1.3267                 1.3078                 1.4067
 Frc consts  --      1.4309                 1.4420                 1.5888
 IR Inten    --      7.9112                 1.0951                 2.9629

                     58                     59                     60
                      A                      A                      A
 Frequencies --   1390.5376              1404.1543              1415.6356
 Red. masses --      1.3581                 1.3516                 1.4563
 Frc consts  --      1.5472                 1.5700                 1.7195
 IR Inten    --      7.7654                 4.8606                 6.7438

                     61                     62                     63
                      A                      A                      A
 Frequencies --   1425.1358              1440.0038              1443.5818
 Red. masses --      1.4154                 1.2377                 1.2711
 Frc consts  --      1.6937                 1.5121                 1.5606
 IR Inten    --     14.9339                 2.0508                 5.2517

                     64                     65                     66
                      A                      A                      A
 Frequencies --   1447.5987              1511.9571              1513.1561
 Red. masses --      1.2927                 1.0744                 1.0883
 Frc consts  --      1.5961                 1.4471                 1.4681
 IR Inten    --     46.5885                 0.0994                 0.3680

                     67                     68                     69
                      A                      A                      A
 Frequencies --   1516.8859              1518.2478              1522.7340
 Red. masses --      1.0856                 1.0824                 1.0640
 Frc consts  --      1.4717                 1.4700                 1.4535
 IR Inten    --      0.7276                 2.9488                 2.2421

                     70                     71                     72
                      A                      A                      A
 Frequencies --   1528.1230              1534.5940              1534.9110
 Red. masses --      1.0624                 1.0427                 1.0558
 Frc consts  --      1.4617                 1.4468                 1.4655
 IR Inten    --      7.4455                 2.3858                 4.5063

                     73                     74                     75
                      A                      A                      A
 Frequencies --   1544.5684              1546.3675              3013.3474
 Red. masses --      1.1070                 1.0936                 1.0650
 Frc consts  --      1.5560                 1.5408                 5.6976
 IR Inten    --      1.4263                 7.8930                24.0713

                     76                     77                     78
                      A                      A                      A
 Frequencies --   3023.0170              3040.2984              3043.8087
 Red. masses --      1.0640                 1.0459                 1.0519
 Frc consts  --      5.7288                 5.6961                 5.7420
 IR Inten    --     23.3387                20.1725                15.0675

                     79                     80                     81
                      A                      A                      A
 Frequencies --   3045.6463              3047.7297              3055.9524
 Red. masses --      1.0529                 1.0681                 1.0901
 Frc consts  --      5.7543                 5.8455                 5.9978
 IR Inten    --     19.9899                16.5563                19.9870

                     82                     83                     84
                      A                      A                      A
 Frequencies --   3059.3741              3065.5404              3066.9515
 Red. masses --      1.0878                 1.0757                 1.0773
 Frc consts  --      5.9985                 5.9563                 5.9704
 IR Inten    --     10.0001                48.6551                20.2156

                     85                     86                     87
                      A                      A                      A
 Frequencies --   3072.3091              3075.9648              3080.7574
 Red. masses --      1.0599                 1.0939                 1.0922
 Frc consts  --      5.8942                 6.0979                 6.1077
 IR Inten    --     47.4103                61.2018                36.0784

                     88                     89                     90
                      A                      A                      A
 Frequencies --   3086.5234              3105.1193              3108.9322
 Red. masses --      1.0683                 1.1014                 1.1078
 Frc consts  --      5.9964                 6.2566                 6.3085
 IR Inten    --     53.9284                53.7566                11.7303

                     91                     92                     93
                      A                      A                      A
 Frequencies --   3109.9038              3115.5519              3121.2416
 Red. masses --      1.1016                 1.1018                 1.1003
 Frc consts  --      6.2773                 6.3010                 6.3157
 IR Inten    --     50.4222                69.8011                31.6010

                     94                     95                     96
                      A                      A                      A
 Frequencies --   3124.1938              3153.2821              3720.1653
 Red. masses --      1.1078                 1.0997                 1.0658
 Frc consts  --      6.3706                 6.4422                 8.6909
 IR Inten    --     42.0138                43.4149                 5.9546

 - Thermochemistry -
 -------------------
 Temperature   298.150 Kelvin.  Pressure   1.00000 Atm.
 Atom     1 has atomic number  6 and mass  12.00000

 Molecular mass:   170.16707 amu.
 Principal axes and moments of inertia in atomic units:
                           1         2         3
     Eigenvalues --  1660.537913009.348663776.83742
           X            0.99991   0.01196   0.00608
           Y           -0.01179   0.99956  -0.02717
           Z           -0.00641   0.02710   0.99961
 This molecule is an asymmetric top.
 Rotational symmetry number  1.
 Warning -- assumption of classical behavior for rotation
           may cause significant error
 Rotational temperatures (Kelvin)      0.05216     0.02878     0.02293
 Rotational constants (GHZ):           1.08684     0.59971     0.47784
 Zero-point vibrational energy     831907.1 (Joules/Mol)
                                  198.83058 (Kcal/Mol)
 Warning -- explicit consideration of  20 degrees of freedom as
           vibrations may cause significant error
 Vibrational temperatures:     63.79    82.45    93.04   156.39   194.98
          (Kelvin)            197.05   233.74   304.29   325.47   351.55
                              398.75   413.49   449.91   474.51   532.66
                              575.07   626.15   657.82   801.92   803.66
                              917.40  1078.74  1086.52  1154.90  1200.66
                             1243.44  1280.15  1313.24  1317.04  1359.46
                             1366.94  1397.74  1409.23  1459.91  1476.63
                             1487.38  1498.73  1520.88  1561.38  1605.63
                             1648.48  1689.19  1695.62  1717.76  1746.82
                             1761.38  1805.58  1828.85  1832.72  1845.66
                             1859.00  1867.90  1893.90  1906.49  1946.70
                             1968.19  1992.09  2000.67  2020.26  2036.78
                             2050.45  2071.84  2076.99  2082.77  2175.37
                             2177.09  2182.46  2184.42  2190.87  2198.63
                             2207.94  2208.39  2222.29  2224.88  4335.53
                             4349.45  4374.31  4379.36  4382.01  4385.00
                             4396.83  4401.76  4410.63  4412.66  4420.37
                             4425.63  4432.52  4440.82  4467.57  4473.06
                             4474.46  4482.58  4490.77  4495.02  4536.87
                             5352.49

 Zero-point correction=                           0.316857 (Hartree/Particle)
 Thermal correction to Energy=                    0.331013
 Thermal correction to Enthalpy=                  0.331958
 Thermal correction to Gibbs Free Energy=         0.276028
 Sum of electronic and zero-point Energies=           -507.350979
 Sum of electronic and thermal Energies=              -507.336822
 Sum of electronic and thermal Enthalpies=            -507.335878
 Sum of electronic and thermal Free Energies=         -507.391808

                     E (Thermal)             CV                S
                      KCal/Mol        Cal/Mol-Kelvin    Cal/Mol-Kelvin
 Total                  207.714             53.483            117.714
 Electronic               0.000              0.000              0.000
 Translational            0.889              2.981             41.303
 Rotational               0.889              2.981             31.313
 Vibrational            205.937             47.522             45.099
 Vibration     1          0.595              1.980              5.055
 Vibration     2          0.596              1.975              4.548
 Vibration     3          0.597              1.971              4.309
 Vibration     4          0.606              1.942              3.292
 Vibration     5          0.613              1.918              2.866
 Vibration     6          0.614              1.916              2.846
 Vibration     7          0.623              1.888              2.521
 Vibration     8          0.643              1.823              2.031
 Vibration     9          0.650              1.801              1.909
 Vibration    10          0.660              1.772              1.771
 Vibration    11          0.678              1.716              1.551
 Vibration    12          0.685              1.697              1.489
 Vibration    13          0.701              1.649              1.348
 Vibration    14          0.713              1.616              1.261
 Vibration    15          0.742              1.533              1.079
 Vibration    16          0.766              1.471              0.964
 Vibration    17          0.796              1.394              0.842
 Vibration    18          0.815              1.345              0.774
 Vibration    19          0.913              1.124              0.529
 Vibration    20          0.914              1.121              0.527

                           ! Non-Optimized Parameters !
 Normal termination of Gaussian 16 at Wed Dec  9 17:47:49 2020.

 ----------------------------------------------------------------------
 # B3LYP/6-311++G(d,p) empiricaldispersion=gd3bj scf=xqc pop=npa geom=c
 heck
 ----------------------------------------------------------------------

 --------------------------------------
 CID_64986952_JID_2597_Energie_neutraal
 --------------------------------------
 Structure from the checkpoint file:  "JID_2597.chk"
 Charge =  0 Multiplicity = 1

 SCF Done:  E(RB3LYP) =  -507.819324510     A.U. after   13 cycles
 Normal termination of Gaussian 16 at Wed Dec  9 17:51:19 2020.

 ----------------------------------------------------------------------
 # B3LYP/6-311++G(d,p) empiricaldispersion=gd3bj scf=xqc pop=npa geom=c
 heck
 ----------------------------------------------------------------------

 ------------------------------------
 CID_64986952_JID_2597_Energie_kation
 ------------------------------------
 Structure from the checkpoint file:  "JID_2597.chk"
 Charge =  1 Multiplicity = 2

 SCF Done:  E(UB3LYP) =  -507.476418824     A.U. after   28 cycles
 Normal termination of Gaussian 16 at Wed Dec  9 18:01:05 2020.
 Gaussian 16:  ES64L-G16RevA.03 25-Dec-2016

 ----------------------------------------------------------------------
 # B3LYP/6-311++G(d,p) empiricaldispersion=gd3bj scf=xqc pop=npa geom=c
 heck
 ----------------------------------------------------------------------

 -----------------------------------
 CID_64986952_JID_2597_Energie_anion
 -----------------------------------
 Structure from the checkpoint file:  "JID_2597.chk"
 Charge = -1 Multiplicity = 2

                         Standard orientation:
 ---------------------------------------------------------------------
 Center     Atomic      Atomic             Coordinates (Angstroms)
 Number     Number       Type             X           Y           Z
 ---------------------------------------------------------------------
      1          6           0       -2.929146    1.740965   -0.172624
      2          6           0       -3.111558    0.318939   -0.712096
      3          6           0       -1.803738   -0.480628   -0.815774
      4          6           0       -1.036102   -0.683603    0.503956
      5          6           0       -1.906003   -1.364897    1.569661
      6          6           0        0.242997   -1.513542    0.289132
      7          6           0        1.296616   -1.015869   -0.712801
      8          6           0        1.966953    0.327662   -0.407399
      9          6           0        1.243918    1.691739   -0.600169
     10          6           0        2.040309    2.230366    0.617929
     11          6           0        2.309456    0.764250    1.047475
     12          8           0        2.302374   -2.033985   -0.850203
     13          1           0       -2.563531    1.739955    0.860364
     14          1           0       -3.875263    2.293300   -0.185865
     15          1           0       -2.207021    2.302322   -0.778402
     16          1           0       -3.833497   -0.220548   -0.086407
     17          1           0       -3.561570    0.370362   -1.712101
     18          1           0       -2.022114   -1.470448   -1.242536
     19          1           0       -1.150932    0.024449   -1.539188
     20          1           0       -0.749172    0.299197    0.897519
     21          1           0       -2.272080   -2.335733    1.211667
     22          1           0       -1.332593   -1.543018    2.486782
     23          1           0       -2.776262   -0.757089    1.836845
     24          1           0        0.740264   -1.643886    1.262248
     25          1           0       -0.042981   -2.521510   -0.039522
     26          1           0        0.852612   -0.952310   -1.712640
     27          1           0        2.885104    0.343399   -1.006290
     28          1           0        1.381819    2.192747   -1.563654
     29          1           0        0.174448    1.640213   -0.388304
     30          1           0        1.509117    2.874164    1.325475
     31          1           0        2.960155    2.736548    0.307937
     32          1           0        1.558841    0.419919    1.766397
     33          1           0        3.303007    0.518197    1.436636
     34          1           0        2.720446   -2.130637    0.020929
 ---------------------------------------------------------------------

 SCF Done:  E(UB3LYP) =  -507.803619982     A.U. after   30 cycles

 The electronic state is 2-A.
 Alpha  occ. eigenvalues --  -19.02242 -10.12039 -10.07553 -10.07314 -10.06802
 Alpha  occ. eigenvalues --  -10.06769 -10.06692 -10.06658 -10.06599 -10.06538
 Alpha  occ. eigenvalues --  -10.05861 -10.05777  -0.92340  -0.74894  -0.72136
 Alpha  occ. eigenvalues --   -0.66950  -0.62853  -0.58380  -0.57096  -0.56088
 Alpha  occ. eigenvalues --   -0.51970  -0.49969  -0.45437  -0.44632  -0.40991
 Alpha  occ. eigenvalues --   -0.38368  -0.37309  -0.36980  -0.36136  -0.33250
 Alpha  occ. eigenvalues --   -0.32474  -0.30913  -0.30413  -0.29322  -0.28623
 Alpha  occ. eigenvalues --   -0.27475  -0.26591  -0.26225  -0.25697  -0.25134
 Alpha  occ. eigenvalues --   -0.24574  -0.23374  -0.22764  -0.21576  -0.21181
 Alpha  occ. eigenvalues --   -0.20718  -0.19599  -0.17156   0.04477
 Alpha virt. eigenvalues --    0.06296   0.06947   0.07433   0.08208   0.08813
 Alpha virt. eigenvalues --    0.09142   0.09824   0.10340   0.10853   0.11257
 Alpha virt. eigenvalues --    0.11785   0.11945   0.12317   0.13339   0.13821

  Beta  occ. eigenvalues --  -19.02227 -10.12036 -10.07545 -10.07309 -10.06784
  Beta  occ. eigenvalues --  -10.06759 -10.06676 -10.06651 -10.06585 -10.06507
  Beta  occ. eigenvalues --  -10.05831 -10.05744  -0.92309  -0.74872  -0.72113
  Beta  occ. eigenvalues --   -0.66917  -0.62820  -0.58333  -0.57056  -0.56036
  Beta  occ. eigenvalues --   -0.51917  -0.49913  -0.45387  -0.44585  -0.40960
  Beta  occ. eigenvalues --   -0.38311  -0.37278  -0.36954  -0.36109  -0.33214
  Beta  occ. eigenvalues --   -0.32441  -0.30886  -0.30383  -0.29297  -0.28596
  Beta  occ. eigenvalues --   -0.27439  -0.26561  -0.26195  -0.25667  -0.25106
  Beta  occ. eigenvalues --   -0.24543  -0.23345  -0.22734  -0.21546  -0.21147
  Beta  occ. eigenvalues --   -0.20690  -0.19573  -0.17139
  Beta virt. eigenvalues --    0.06625   0.07296   0.07520   0.07889   0.08817
  Beta virt. eigenvalues --    0.09309   0.09522   0.10155   0.10604   0.11337
  Beta virt. eigenvalues --    0.11785   0.12081   0.12279   0.12683   0.13447

 Mulliken charges and spin densities:
               1          2
     1  C    0.057817  -0.617695
     2  C    0.670090  -1.108289
     3  C   -0.894441   0.746578
     4  C   -0.898238   1.189116
     5  C    0.993048  -1.685590
     6  C    0.390594  -0.802878
     7  C   -0.380487  -0.002916
     8  C   -0.153410   0.428496
     9  C   -0.176817  -0.167731
    10  C    0.017390  -0.370805
    11  C    0.396969  -0.769753
    12  O   -0.151992  -0.017551
    13  H   -0.277338   0.433694
    14  H   -0.697035   0.852206
    15  H   -0.091305   0.234397
    16  H    0.057163   0.077296
    17  H   -0.174934   0.331046
    18  H    0.002610   0.152630
    19  H    0.167256  -0.054146
    20  H    0.686534  -0.573574
    21  H   -0.102913   0.254146
    22  H   -0.255225   0.391924
    23  H   -0.108896   0.249296
    24  H   -0.119553   0.259472
    25  H    0.228004  -0.061635
    26  H    0.029434   0.172902
    27  H    0.041813   0.180776
    28  H   -0.336918   0.494987
    29  H    1.070780  -1.052617
    30  H   -0.376977   0.529764
    31  H   -0.018967   0.151607
    32  H   -0.019565   0.172870
    33  H   -0.637826   0.797300
    34  H    0.063334   0.184678
 Sum of Mulliken charges =  -1.00000   1.00000

 Dipole moment (field-independent basis, Debye):
    X=              0.6026    Y=             -2.1546    Z=             -2.5152  Tot=              3.3663
 Quadrupole moment (field-independent basis, Debye-Ang):
   XX=           -155.2585   YY=           -125.4902   ZZ=           -119.2158
   XY=              7.7031   XZ=             -1.2743   YZ=              0.0143

 Summary of Natural Population Analysis:

                                       Natural Population
                Natural  -----------------------------------------------
    Atom  No    Charge         Core      Valence    Rydberg      Total
 -----------------------------------------------------------------------
      C    1   -0.28757      0.99967     2.28268    0.00523     3.28757
      C    2   -0.19010      0.99964     2.18201    0.00845     3.19010
      C    3   -0.18731      0.99961     2.17931    0.00839     3.18731
      C    4   -0.11982      0.99959     2.11066    0.00956     3.11982
      C    5   -0.28403      0.99965     2.27774    0.00664     3.28403
      C    6   -0.19748      0.99960     2.18749    0.01039     3.19748
      C    7    0.06573      0.99951     1.92207    0.01268     2.93427
      C    8   -0.11978      0.99958     2.10840    0.01179     3.11978
      C    9   -0.18800      0.99962     2.18081    0.00757     3.18800
      C   10   -0.18737      0.99965     2.17957    0.00816     3.18737
      C   11   -0.19062      0.99963     2.18236    0.00862     3.19062
      O   12   -0.37264      0.99990     3.36674    0.00599     4.37264
      H   13    0.09741      0.00000     0.40132    0.00127     0.40259
      H   14    0.10061      0.00000     0.39806    0.00132     0.39939
      H   15    0.09533      0.00000     0.40337    0.00129     0.40467
      H   16    0.09452      0.00000     0.40425    0.00123     0.40548
      H   17    0.09448      0.00000     0.40458    0.00094     0.40552
      H   18    0.09534      0.00000     0.40363    0.00104     0.40466
      H   19    0.09545      0.00000     0.40308    0.00147     0.40455
      H   20    0.09583      0.00000     0.40081    0.00336     0.40417
      H   21    0.09501      0.00000     0.40404    0.00096     0.40499
      H   22    0.10088      0.00000     0.39814    0.00099     0.39912
      H   23    0.10164      0.00000     0.39733    0.00103     0.39836
      H   24    0.09736      0.00000     0.40134    0.00130     0.40264
      H   25    0.10065      0.00000     0.39816    0.00119     0.39935
      H   26    0.08600      0.00000     0.41215    0.00185     0.41400
      H   27    0.10222      0.00000     0.39639    0.00139     0.39778
      H   28    0.09467      0.00000     0.40428    0.00105     0.40533
      H   29    0.09888      0.00000     0.39896    0.00216     0.40112
      H   30    0.09640      0.00000     0.40266    0.00094     0.40360
      H   31    0.09507      0.00000     0.40361    0.00133     0.40493
      H   32    0.09765      0.00000     0.40047    0.00188     0.40235
      H   33    0.09805      0.00000     0.39996    0.00198     0.40195
      H   34    0.22553      0.00000     0.27148    0.00298     0.27447
 =======================================================================
   * Total *   -0.00000     11.99566    35.86793    0.13642    48.00000

 Normal termination of Gaussian 16 at Wed Dec  9 18:11:58 2020.
