 Gaussian 16, Revision A.03,

 -----------------------------------------------------------
 # opt freq B3LYP/6-31G(d) empiricaldispersion=gd3bj scf=xqc
 -----------------------------------------------------------

 -------------------------------
 CID_127016354_JID_3120_neutraal
 -------------------------------
 Symbolic Z-matrix:
 Charge =  0 Multiplicity = 1

 SCF Done:  E(RB3LYP) =  -538.333314447     A.U. after   14 cycles
 SCF Done:  E(RB3LYP) =  -538.337538608     A.U. after   12 cycles
 SCF Done:  E(RB3LYP) =  -538.336826500     A.U. after   12 cycles
 SCF Done:  E(RB3LYP) =  -538.337987556     A.U. after   11 cycles
 SCF Done:  E(RB3LYP) =  -538.338171591     A.U. after   10 cycles
 SCF Done:  E(RB3LYP) =  -538.338202924     A.U. after   10 cycles
 SCF Done:  E(RB3LYP) =  -538.338243135     A.U. after   10 cycles
 SCF Done:  E(RB3LYP) =  -538.338302690     A.U. after   11 cycles
 SCF Done:  E(RB3LYP) =  -538.338362624     A.U. after   11 cycles
 SCF Done:  E(RB3LYP) =  -538.338218883     A.U. after   13 cycles
 SCF Done:  E(RB3LYP) =  -538.339459950     A.U. after    9 cycles
 SCF Done:  E(RB3LYP) =  -538.339460405     A.U. after    9 cycles
 SCF Done:  E(RB3LYP) =  -538.339460116     A.U. after    7 cycles
 SCF Done:  E(RB3LYP) =  -538.339461005     A.U. after    9 cycles
 SCF Done:  E(RB3LYP) =  -538.339461069     A.U. after    7 cycles
 Optimization completed.
    -- Stationary point found.
 Normal termination of Gaussian 16 at Wed Dec  9 22:48:54 2020.

 --------------------------------------------------------------------
 #N Geom=AllCheck Guess=TCheck SCRF=Check GenChk RB3LYP/6-31G(d) Freq
 --------------------------------------------------------------------

 Structure from the checkpoint file:  "JID_3120.chk"
 -------------------------------
 CID_127016354_JID_3120_neutraal
 -------------------------------
 Charge =  0 Multiplicity = 1

 SCF Done:  E(RB3LYP) =  -538.339461069     A.U. after    1 cycles

  Exact polarizability: 156.712   0.192 123.340  -5.293  -2.140  90.655
 Approx polarizability: 216.960  -3.782 206.208 -11.921  -4.890 130.620

                      1                      2                      3
                      A                      A                      A
 Frequencies --     49.1361                63.4022                84.9213
 Red. masses --      1.0802                 2.9474                 3.4978
 Frc consts  --      0.0015                 0.0070                 0.0149
 IR Inten    --      0.3147                 0.2209                 0.5079

                      4                      5                      6
                      A                      A                      A
 Frequencies --    132.8225               167.2608               186.3357
 Red. masses --      1.6951                 1.3837                 2.1881
 Frc consts  --      0.0176                 0.0228                 0.0448
 IR Inten    --      0.9208                 0.2650                 1.2693

                      7                      8                      9
                      A                      A                      A
 Frequencies --    197.8960               208.8570               220.5679
 Red. masses --      2.1498                 2.0581                 1.5323
 Frc consts  --      0.0496                 0.0529                 0.0439
 IR Inten    --      0.2230                 4.1751                 4.2777

                     10                     11                     12
                      A                      A                      A
 Frequencies --    259.8969               287.4563               313.0048
 Red. masses --      3.1131                 2.4767                 1.6779
 Frc consts  --      0.1239                 0.1206                 0.0969
 IR Inten    --      5.8569                 5.0225                13.5142

                     13                     14                     15
                      A                      A                      A
 Frequencies --    335.3435               402.5363               440.8501
 Red. masses --      2.7200                 3.1231                 2.8513
 Frc consts  --      0.1802                 0.2982                 0.3265
 IR Inten    --      6.2037                 1.2359                 1.0206

                     16                     17                     18
                      A                      A                      A
 Frequencies --    457.7625               471.7326               481.2465
 Red. masses --      2.3154                 3.2159                 3.0698
 Frc consts  --      0.2859                 0.4216                 0.4189
 IR Inten    --      5.5761                 6.4078                 5.8494

                     19                     20                     21
                      A                      A                      A
 Frequencies --    539.0847               577.2566               617.9347
 Red. masses --      3.8481                 4.1997                 4.1617
 Frc consts  --      0.6589                 0.8245                 0.9363
 IR Inten    --      0.7970                 1.6689                 0.0794

                     22                     23                     24
                      A                      A                      A
 Frequencies --    651.3497               766.9489               774.0804
 Red. masses --      4.5693                 3.5644                 5.3736
 Frc consts  --      1.1422                 1.2353                 1.8971
 IR Inten    --      2.1438                 2.6441                 1.8108

                     25                     26                     27
                      A                      A                      A
 Frequencies --    811.5333               859.5144               889.2829
 Red. masses --      2.4447                 1.9146                 1.2859
 Frc consts  --      0.9486                 0.8334                 0.5992
 IR Inten    --      9.0187                89.0707                 5.9350

                     28                     29                     30
                      A                      A                      A
 Frequencies --    896.3982               908.3984               953.1259
 Red. masses --      1.4704                 1.5955                 2.4972
 Frc consts  --      0.6961                 0.7757                 1.3366
 IR Inten    --     51.3434                61.8748                24.8294

                     31                     32                     33
                      A                      A                      A
 Frequencies --    960.9157               972.8315              1010.5170
 Red. masses --      1.6725                 2.1329                 1.2344
 Frc consts  --      0.9099                 1.1893                 0.7426
 IR Inten    --      2.2219                 3.2554                17.6652

                     34                     35                     36
                      A                      A                      A
 Frequencies --   1016.8202              1047.2424              1069.3556
 Red. masses --      1.4492                 1.5340                 1.3943
 Frc consts  --      0.8828                 0.9912                 0.9394
 IR Inten    --      1.2026                 3.9469                11.2350

                     37                     38                     39
                      A                      A                      A
 Frequencies --   1072.4739              1074.7827              1096.3009
 Red. masses --      1.4594                 1.5679                 2.1964
 Frc consts  --      0.9890                 1.0671                 1.5553
 IR Inten    --      1.0565                 3.5583                17.5858

                     40                     41                     42
                      A                      A                      A
 Frequencies --   1134.7354              1144.9282              1198.2389
 Red. masses --      2.5512                 1.7596                 1.7000
 Frc consts  --      1.9354                 1.3590                 1.4381
 IR Inten    --      1.5930                 5.0277                 4.1615

                     43                     44                     45
                      A                      A                      A
 Frequencies --   1211.5576              1252.0421              1280.1257
 Red. masses --      1.6642                 2.3827                 2.9881
 Frc consts  --      1.4393                 2.2007                 2.8850
 IR Inten    --      9.1525                 6.7562                 5.2757

                     46                     47                     48
                      A                      A                      A
 Frequencies --   1289.4216              1303.9158              1344.7528
 Red. masses --      1.5211                 5.3869                 1.5284
 Frc consts  --      1.4901                 5.3962                 1.6285
 IR Inten    --      0.8076                 0.3291                 2.8944

                     49                     50                     51
                      A                      A                      A
 Frequencies --   1352.2080              1409.7530              1417.8852
 Red. masses --      2.4046                 3.5274                 1.6426
 Frc consts  --      2.5905                 4.1303                 1.9456
 IR Inten    --     22.9878                12.9617                 2.0632

                     52                     53                     54
                      A                      A                      A
 Frequencies --   1437.3919              1441.5637              1452.1032
 Red. masses --      1.2478                 1.4115                 1.3806
 Frc consts  --      1.5189                 1.7282                 1.7151
 IR Inten    --      1.6124                 4.7583                 1.5108

                     55                     56                     57
                      A                      A                      A
 Frequencies --   1505.3948              1506.5924              1514.5879
 Red. masses --      1.3278                 1.0538                 1.1315
 Frc consts  --      1.7730                 1.4093                 1.5293
 IR Inten    --     10.5810                 6.1512                 8.6038

                     58                     59                     60
                      A                      A                      A
 Frequencies --   1517.8044              1522.4938              1524.7016
 Red. masses --      1.1571                 1.0765                 1.0489
 Frc consts  --      1.5706                 1.4701                 1.4366
 IR Inten    --      8.5336                14.0976                 2.0152

                     61                     62                     63
                      A                      A                      A
 Frequencies --   1536.0526              1540.0831              1605.0273
 Red. masses --      1.0959                 2.3442                 5.6228
 Frc consts  --      1.5235                 3.2759                 8.5344
 IR Inten    --     12.6965                21.0966                13.3953

                     64                     65                     66
                      A                      A                      A
 Frequencies --   1656.5436              1697.3280              3041.6980
 Red. masses --      6.0277                 1.1009                 1.0475
 Frc consts  --      9.7456                 1.8686                 5.7102
 IR Inten    --     62.9192                10.3578                20.6030

                     67                     68                     69
                      A                      A                      A
 Frequencies --   3045.2100              3055.4454              3101.1627
 Red. masses --      1.0369                 1.0359                 1.1015
 Frc consts  --      5.6651                 5.6980                 6.2413
 IR Inten    --     30.7238                22.7277                31.6359

                     70                     71                     72
                      A                      A                      A
 Frequencies --   3107.4231              3114.7730              3122.0814
 Red. masses --      1.0886                 1.1007                 1.1000
 Frc consts  --      6.1932                 6.2920                 6.3171
 IR Inten    --     18.0941                13.9464                16.7588

                     73                     74                     75
                      A                      A                      A
 Frequencies --   3135.9656              3147.8734              3155.5629
 Red. masses --      1.1031                 1.1011                 1.0560
 Frc consts  --      6.3916                 6.4284                 6.1956
 IR Inten    --     16.7100                10.7302                 4.4229

                     76                     77                     78
                      A                      A                      A
 Frequencies --   3163.8507              3170.0121              3182.1864
 Red. masses --      1.0890                 1.0878                 1.0907
 Frc consts  --      6.4227                 6.4404                 6.5075
 IR Inten    --     16.4262                33.9885                15.7109

                     79                     80                     81
                      A                      A                      A
 Frequencies --   3242.8996              3461.9837              3545.2393
 Red. masses --      1.1175                 1.0490                 1.0922
 Frc consts  --      6.9243                 7.4072                 8.0880
 IR Inten    --      9.2779                 2.9278                 0.2709

 - Thermochemistry -
 -------------------
 Temperature   298.150 Kelvin.  Pressure   1.00000 Atm.
 Atom     1 has atomic number  6 and mass  12.00000

 Molecular mass:   176.13135 amu.
 Principal axes and moments of inertia in atomic units:
                           1         2         3
     Eigenvalues --  1264.381853364.781263631.64685
           X            0.99998   0.00494   0.00383
           Y           -0.00496   0.99997   0.00551
           Z           -0.00380  -0.00553   0.99998
 This molecule is an asymmetric top.
 Rotational symmetry number  1.
 Warning -- assumption of classical behavior for rotation
           may cause significant error
 Rotational temperatures (Kelvin)      0.06850     0.02574     0.02385
 Rotational constants (GHZ):           1.42737     0.53636     0.49695
 Zero-point vibrational energy     663435.6 (Joules/Mol)
                                  158.56492 (Kcal/Mol)
 Warning -- explicit consideration of  21 degrees of freedom as
           vibrations may cause significant error
 Vibrational temperatures:     70.70    91.22   122.18   191.10   240.65
          (Kelvin)            268.10   284.73   300.50   317.35   373.93
                              413.59   450.34   482.48   579.16   634.28
                              658.62   678.72   692.41   775.62   830.54
                              889.07   937.15  1103.47  1113.73  1167.62
                             1236.65  1279.48  1289.72  1306.98  1371.34
                             1382.54  1399.69  1453.91  1462.98  1506.75
                             1538.56  1543.05  1546.37  1577.33  1632.63
                             1647.30  1724.00  1743.16  1801.41  1841.82
                             1855.19  1876.04  1934.80  1945.53  2028.32
                             2040.02  2068.09  2074.09  2089.25  2165.93
                             2167.65  2179.15  2183.78  2190.53  2193.71
                             2210.04  2215.84  2309.28  2383.40  2442.08
                             4376.33  4381.38  4396.10  4461.88  4470.89
                             4481.46  4491.98  4511.96  4529.09  4540.15
                             4552.08  4560.94  4578.46  4665.81  4981.02
                             5100.81

 Zero-point correction=                           0.252689 (Hartree/Particle)
 Thermal correction to Energy=                    0.266136
 Thermal correction to Enthalpy=                  0.267081
 Thermal correction to Gibbs Free Energy=         0.213156
 Sum of electronic and zero-point Energies=           -538.086772
 Sum of electronic and thermal Energies=              -538.073325
 Sum of electronic and thermal Enthalpies=            -538.072380
 Sum of electronic and thermal Free Energies=         -538.126305

                     E (Thermal)             CV                S
                      KCal/Mol        Cal/Mol-Kelvin    Cal/Mol-Kelvin
 Total                  167.003             51.225            113.494
 Electronic               0.000              0.000              0.000
 Translational            0.889              2.981             41.405
 Rotational               0.889              2.981             31.114
 Vibrational            165.226             45.263             40.975
 Vibration     1          0.595              1.978              4.852
 Vibration     2          0.597              1.972              4.348
 Vibration     3          0.601              1.960              3.774
 Vibration     4          0.613              1.921              2.905
 Vibration     5          0.624              1.883              2.466
 Vibration     6          0.632              1.859              2.264
 Vibration     7          0.637              1.843              2.153
 Vibration     8          0.642              1.827              2.054
 Vibration     9          0.647              1.810              1.954
 Vibration    10          0.668              1.746              1.662
 Vibration    11          0.685              1.697              1.489
 Vibration    12          0.701              1.649              1.346
 Vibration    13          0.716              1.605              1.234
 Vibration    14          0.768              1.465              0.953
 Vibration    15          0.801              1.381              0.824
 Vibration    16          0.816              1.344              0.773
 Vibration    17          0.829              1.313              0.733
 Vibration    18          0.838              1.292              0.707
 Vibration    19          0.894              1.164              0.567
 Vibration    20          0.934              1.080              0.490
 Vibration    21          0.978              0.994              0.420

 Optimization completed.
    -- Stationary point found.
 Normal termination of Gaussian 16 at Wed Dec  9 22:56:59 2020.

 ----------------------------------------------------------------------
 # B3LYP/6-311++G(d,p) empiricaldispersion=gd3bj scf=xqc pop=npa geom=c
 heck
 ----------------------------------------------------------------------

 ---------------------------------------
 CID_127016354_JID_3120_Energie_neutraal
 ---------------------------------------
 Structure from the checkpoint file:  "JID_3120.chk"
 Charge =  0 Multiplicity = 1

 SCF Done:  E(RB3LYP) =  -538.487614920     A.U. after   15 cycles
 Normal termination of Gaussian 16 at Wed Dec  9 23:01:29 2020.

 ----------------------------------------------------------------------
 # B3LYP/6-311++G(d,p) empiricaldispersion=gd3bj scf=xqc pop=npa geom=c
 heck
 ----------------------------------------------------------------------

 -------------------------------------
 CID_127016354_JID_3120_Energie_kation
 -------------------------------------
 Structure from the checkpoint file:  "JID_3120.chk"
 Charge =  1 Multiplicity = 2

 SCF Done:  E(UB3LYP) =  -538.180237007     A.U. after   30 cycles
 Normal termination of Gaussian 16 at Wed Dec  9 23:11:58 2020.
 Gaussian 16:  ES64L-G16RevA.03 25-Dec-2016

 ----------------------------------------------------------------------
 # B3LYP/6-311++G(d,p) empiricaldispersion=gd3bj scf=xqc pop=npa geom=c
 heck
 ----------------------------------------------------------------------

 ------------------------------------
 CID_127016354_JID_3120_Energie_anion
 ------------------------------------
 Structure from the checkpoint file:  "JID_3120.chk"
 Charge = -1 Multiplicity = 2

                         Standard orientation:
 ---------------------------------------------------------------------
 Center     Atomic      Atomic             Coordinates (Angstroms)
 Number     Number       Type             X           Y           Z
 ---------------------------------------------------------------------
      1          6           0       -2.118153    0.146598   -2.036083
      2          6           0       -2.592870   -0.099945   -0.621394
      3          6           0       -2.409317   -1.459327    0.006409
      4          6           0       -1.621594   -0.281561    0.534117
      5          6           0       -0.139367   -0.206119    0.293577
      6          6           0        0.648711   -1.362741    0.288596
      7          7           0        1.972714   -1.395449    0.117402
      8          6           0        2.602190   -0.224165   -0.069611
      9          6           0        1.909250    0.989494   -0.076152
     10          6           0        0.526395    1.021765    0.113728
     11          6           0       -0.199331    2.343141    0.147509
     12          6           0        4.094032   -0.286625   -0.273207
     13          7           0       -2.115218    0.227193    1.805674
     14          1           0       -1.947877    1.212792   -2.228986
     15          1           0       -2.862471   -0.207417   -2.758977
     16          1           0       -1.179343   -0.379100   -2.237129
     17          1           0       -3.504446    0.421048   -0.336954
     18          1           0       -3.194680   -1.841706    0.649597
     19          1           0       -1.887774   -2.208692   -0.582114
     20          1           0        0.168572   -2.328608    0.436011
     21          1           0        2.452740    1.918258   -0.231206
     22          1           0       -0.287751    2.714039    1.177699
     23          1           0        0.344034    3.104005   -0.420907
     24          1           0       -1.210354    2.262748   -0.259689
     25          1           0        4.332981   -0.876473   -1.165347
     26          1           0        4.530120    0.710198   -0.387429
     27          1           0        4.573595   -0.784645    0.576608
     28          1           0       -1.626377   -0.241365    2.568058
     29          1           0       -1.903114    1.219621    1.894303
 ---------------------------------------------------------------------

 SCF Done:  E(UB3LYP) =  -538.473998966     A.U. after   33 cycles
 SCF Done:  E(UB3LYP) =  -538.473998966     a.u. after    1 cycles

 The electronic state is 2-A.
 Alpha  occ. eigenvalues --  -14.18932 -14.18461 -10.10735 -10.09619 -10.08776
 Alpha  occ. eigenvalues --  -10.07719 -10.07552 -10.06731 -10.06723 -10.06437
 Alpha  occ. eigenvalues --  -10.06029 -10.05856 -10.05570  -0.82843  -0.80731
 Alpha  occ. eigenvalues --   -0.72197  -0.70276  -0.66891  -0.61555  -0.59951
 Alpha  occ. eigenvalues --   -0.58725  -0.52025  -0.48478  -0.48254  -0.44281
 Alpha  occ. eigenvalues --   -0.39990  -0.39117  -0.38015  -0.36538  -0.35008
 Alpha  occ. eigenvalues --   -0.32951  -0.32558  -0.31940  -0.30518  -0.29854
 Alpha  occ. eigenvalues --   -0.29440  -0.28270  -0.28170  -0.26433  -0.26066
 Alpha  occ. eigenvalues --   -0.25585  -0.24271  -0.20525  -0.18395  -0.16096
 Alpha  occ. eigenvalues --   -0.15470  -0.13703  -0.12959   0.04844
 Alpha virt. eigenvalues --    0.07076   0.07301   0.07952   0.08415   0.08945
 Alpha virt. eigenvalues --    0.09441   0.09987   0.10346   0.10611   0.11651
 Alpha virt. eigenvalues --    0.11744   0.12130   0.12749   0.13305   0.14333

  Beta  occ. eigenvalues --  -14.18889 -14.18351 -10.10732 -10.09586 -10.08768
  Beta  occ. eigenvalues --  -10.07715 -10.07417 -10.06727 -10.06723 -10.06422
  Beta  occ. eigenvalues --  -10.06016 -10.05853 -10.05529  -0.82703  -0.80674
  Beta  occ. eigenvalues --   -0.72137  -0.70083  -0.66816  -0.61503  -0.59874
  Beta  occ. eigenvalues --   -0.58663  -0.51977  -0.48451  -0.48106  -0.44198
  Beta  occ. eigenvalues --   -0.39939  -0.39055  -0.37972  -0.36484  -0.34923
  Beta  occ. eigenvalues --   -0.32807  -0.32519  -0.31859  -0.30414  -0.29792
  Beta  occ. eigenvalues --   -0.29387  -0.28244  -0.28107  -0.26331  -0.25921
  Beta  occ. eigenvalues --   -0.25484  -0.24218  -0.20466  -0.18357  -0.15748
  Beta  occ. eigenvalues --   -0.15267  -0.13592  -0.12780
  Beta virt. eigenvalues --    0.07021   0.07644   0.08107   0.08584   0.08907
  Beta virt. eigenvalues --    0.08998   0.09842   0.10158   0.10842   0.11090
  Beta virt. eigenvalues --    0.11743   0.11897   0.12392   0.12887   0.13751

 Mulliken charges and spin densities:
               1          2
     1  C    0.099019  -0.864992
     2  C    0.008507   0.489564
     3  C   -0.385883  -0.251758
     4  C    0.671961  -1.212588
     5  C   -0.092783   0.087091
     6  C   -0.645730   0.734086
     7  N   -0.088325   0.142956
     8  C   -0.770829   0.345209
     9  C   -0.542506   0.564634
    10  C   -0.170413   0.553417
    11  C    1.812180  -2.405848
    12  C    0.914003  -1.468823
    13  N   -0.286394   0.050341
    14  H   -0.090547   0.223302
    15  H    0.033500   0.096813
    16  H    0.050842   0.114987
    17  H    0.067506   0.156202
    18  H    0.079865   0.069317
    19  H    0.098513   0.028330
    20  H    0.008427   0.174606
    21  H   -0.488210   0.665566
    22  H   -0.482266   0.700952
    23  H   -0.384868   0.522368
    24  H   -0.132822   0.278852
    25  H   -0.013926   0.162465
    26  H   -0.207205   0.346184
    27  H    0.046278   0.098666
    28  H   -0.066212   0.298312
    29  H   -0.041681   0.299788
 Sum of Mulliken charges =  -1.00000   1.00000

 Dipole moment (field-independent basis, Debye):
    X=             -1.7140    Y=             -4.4948    Z=             -2.6314  Tot=              5.4832
 Quadrupole moment (field-independent basis, Debye-Ang):
   XX=           -131.5584   YY=           -124.5620   ZZ=           -114.7697
   XY=              2.6949   XZ=              4.8820   YZ=             -5.2743

 Summary of Natural Population Analysis:

                                       Natural Population
                Natural  -----------------------------------------------
    Atom  No    Charge         Core      Valence    Rydberg      Total
 -----------------------------------------------------------------------
      C    1   -0.28677      0.99965     2.28244    0.00468     3.28677
      C    2   -0.10897      0.99955     2.09929    0.01013     3.10897
      C    3   -0.19458      0.99958     2.18664    0.00836     3.19458
      C    4    0.04338      0.99949     1.94162    0.01551     2.95662
      C    5   -0.05422      0.99941     2.04234    0.01246     3.05422
      C    6    0.03843      0.99953     1.94966    0.01239     2.96157
      N    7   -0.23644      0.99968     2.72539    0.01137     3.73644
      C    8    0.11152      0.99955     1.87429    0.01464     2.88848
      C    9   -0.12294      0.99946     2.11397    0.00952     3.12294
      C   10    0.03669      0.99948     1.95307    0.01076     2.96331
      C   11   -0.30174      0.99963     2.29521    0.00690     3.30174
      C   12   -0.29558      0.99963     2.29048    0.00547     3.29558
      N   13   -0.41793      0.99975     2.90835    0.00982     3.91793
      H   14    0.10066      0.00000     0.39820    0.00114     0.39934
      H   15    0.09643      0.00000     0.40262    0.00095     0.40357
      H   16    0.10363      0.00000     0.39525    0.00112     0.39637
      H   17    0.10532      0.00000     0.39342    0.00125     0.39468
      H   18    0.10649      0.00000     0.39250    0.00101     0.39351
      H   19    0.10054      0.00000     0.39842    0.00104     0.39946
      H   20    0.08619      0.00000     0.41194    0.00186     0.41381
      H   21    0.10136      0.00000     0.39738    0.00126     0.39864
      H   22    0.11494      0.00000     0.37863    0.00643     0.38506
      H   23    0.10478      0.00000     0.39401    0.00121     0.39522
      H   24    0.10332      0.00000     0.39525    0.00144     0.39668
      H   25    0.10468      0.00000     0.39385    0.00147     0.39532
      H   26    0.09907      0.00000     0.39996    0.00097     0.40093
      H   27    0.10423      0.00000     0.39445    0.00132     0.39577
      H   28    0.17648      0.00000     0.32148    0.00205     0.32352
      H   29    0.18102      0.00000     0.31600    0.00298     0.31898
 =======================================================================
   * Total *   -0.00000     12.99438    34.84613    0.15949    48.00000

 Normal termination of Gaussian 16 at Wed Dec  9 23:23:32 2020.
