 Gaussian 16, Revision A.03,

 -----------------------------------------------------------
 # opt freq B3LYP/6-31G(d) empiricaldispersion=gd3bj scf=xqc
 -----------------------------------------------------------

 ------------------------------
 CID_90453971_JID_4149_neutraal
 ------------------------------
 Symbolic Z-matrix:
 Charge =  0 Multiplicity = 1

 SCF Done:  E(RB3LYP) =  -648.020401933     A.U. after   15 cycles
 SCF Done:  E(RB3LYP) =  -648.029210579     A.U. after   12 cycles
 SCF Done:  E(RB3LYP) =  -648.030263158     A.U. after   12 cycles
 SCF Done:  E(RB3LYP) =  -648.030884682     A.U. after   12 cycles
 SCF Done:  E(RB3LYP) =  -648.031312783     A.U. after   12 cycles
 SCF Done:  E(RB3LYP) =  -648.031705462     A.U. after   12 cycles
 SCF Done:  E(RB3LYP) =  -648.031899695     A.U. after   11 cycles
 SCF Done:  E(RB3LYP) =  -648.031934389     A.U. after   10 cycles
 SCF Done:  E(RB3LYP) =  -648.031945152     A.U. after    9 cycles
 SCF Done:  E(RB3LYP) =  -648.031948779     A.U. after    8 cycles
 SCF Done:  E(RB3LYP) =  -648.031949961     A.U. after    8 cycles
 SCF Done:  E(RB3LYP) =  -648.031950963     A.U. after    8 cycles
 SCF Done:  E(RB3LYP) =  -648.031951117     A.U. after    7 cycles
 SCF Done:  E(RB3LYP) =  -648.031951160     A.U. after    6 cycles
 Optimization completed.
    -- Stationary point found.
 Normal termination of Gaussian 16 at Thu Dec 10 09:18:56 2020.

 --------------------------------------------------------------------
 #N Geom=AllCheck Guess=TCheck SCRF=Check GenChk RB3LYP/6-31G(d) Freq
 --------------------------------------------------------------------

 Structure from the checkpoint file:  "JID_4149.chk"
 ------------------------------
 CID_90453971_JID_4149_neutraal
 ------------------------------
 Charge =  0 Multiplicity = 1

 SCF Done:  E(RB3LYP) =  -648.031951160     A.U. after    1 cycles

  Exact polarizability: 156.296  -6.719 123.726   5.795  -0.773  93.037
 Approx polarizability: 222.568  -9.509 170.966  10.180  -2.355 139.199

                      1                      2                      3
                      A                      A                      A
 Frequencies --     19.1392                50.8832                69.8969
 Red. masses --      3.9156                 4.0455                 3.7948
 Frc consts  --      0.0008                 0.0062                 0.0109
 IR Inten    --      0.7635                 1.5477                 1.2725

                      4                      5                      6
                      A                      A                      A
 Frequencies --     80.3476                98.7686               128.3615
 Red. masses --      3.4473                 3.5595                 2.6790
 Frc consts  --      0.0131                 0.0205                 0.0260
 IR Inten    --      0.9119                 0.2102                 1.3014

                      7                      8                      9
                      A                      A                      A
 Frequencies --    135.1521               152.1769               211.3018
 Red. masses --      1.2128                 2.0826                 2.2810
 Frc consts  --      0.0131                 0.0284                 0.0600
 IR Inten    --      0.4776                 0.8628                 1.0220

                     10                     11                     12
                      A                      A                      A
 Frequencies --    233.0210               262.4239               309.5606
 Red. masses --      2.5260                 1.5523                 2.7802
 Frc consts  --      0.0808                 0.0630                 0.1570
 IR Inten    --      5.4698                 1.8633                 5.8559

                     13                     14                     15
                      A                      A                      A
 Frequencies --    313.6477               324.8303               347.1839
 Red. masses --      1.2684                 2.3363                 2.3148
 Frc consts  --      0.0735                 0.1452                 0.1644
 IR Inten    --     41.0603                 1.2588                 3.1055

                     16                     17                     18
                      A                      A                      A
 Frequencies --    376.9296               425.7590               460.1593
 Red. masses --      3.0197                 2.8092                 2.4604
 Frc consts  --      0.2528                 0.3000                 0.3070
 IR Inten    --     16.0052                 3.6036                 5.7520

                     19                     20                     21
                      A                      A                      A
 Frequencies --    477.1597               496.2416               527.5904
 Red. masses --      4.2028                 2.1287                 2.0869
 Frc consts  --      0.5638                 0.3088                 0.3423
 IR Inten    --      5.4517                 9.2528               146.4091

                     22                     23                     24
                      A                      A                      A
 Frequencies --    547.8625               575.9853               619.2703
 Red. masses --      3.8247                 2.0476                 3.2561
 Frc consts  --      0.6764                 0.4002                 0.7357
 IR Inten    --     14.1336                63.8833                43.1637

                     25                     26                     27
                      A                      A                      A
 Frequencies --    687.0377               744.5208               805.5416
 Red. masses --      3.1910                 3.0615                 2.0096
 Frc consts  --      0.8874                 0.9999                 0.7683
 IR Inten    --     31.0451                 9.5525                28.8088

                     28                     29                     30
                      A                      A                      A
 Frequencies --    811.3939               831.1288               854.4023
 Red. masses --      1.5469                 1.7908                 2.9570
 Frc consts  --      0.6000                 0.7289                 1.2718
 IR Inten    --     16.4964                 8.3392                 4.6871

                     31                     32                     33
                      A                      A                      A
 Frequencies --    884.7140               902.3934               938.0271
 Red. masses --      2.2732                 2.5464                 1.3980
 Frc consts  --      1.0483                 1.2217                 0.7248
 IR Inten    --     85.5195                16.1876                45.3869

                     34                     35                     36
                      A                      A                      A
 Frequencies --    946.6246               969.2238               992.8657
 Red. masses --      2.3132                 1.7429                 4.2740
 Frc consts  --      1.2213                 0.9647                 2.4823
 IR Inten    --     45.6552                15.4939                87.5129

                     37                     38                     39
                      A                      A                      A
 Frequencies --   1018.4217              1064.0913              1077.0348
 Red. masses --      2.6975                 1.3871                 1.9930
 Frc consts  --      1.6484                 0.9254                 1.3621
 IR Inten    --     13.1345                 0.6140                 2.8132

                     40                     41                     42
                      A                      A                      A
 Frequencies --   1103.7924              1106.9357              1120.6142
 Red. masses --      2.0244                 2.1298                 2.7317
 Frc consts  --      1.4532                 1.5376                 2.0211
 IR Inten    --     18.1251                16.8446                 0.7502

                     43                     44                     45
                      A                      A                      A
 Frequencies --   1139.2024              1165.4968              1203.7306
 Red. masses --      2.3359                 3.0092                 2.4589
 Frc consts  --      1.7861                 2.4084                 2.0992
 IR Inten    --     41.8475                98.6330                35.9477

                     46                     47                     48
                      A                      A                      A
 Frequencies --   1212.9961              1223.8221              1235.9780
 Red. masses --      2.1623                 2.4497                 1.5574
 Frc consts  --      1.8745                 2.1617                 1.4018
 IR Inten    --     20.6762                28.1140                 7.8553

                     49                     50                     51
                      A                      A                      A
 Frequencies --   1279.7226              1313.4696              1335.4409
 Red. masses --      1.6767                 1.6406                 1.1264
 Frc consts  --      1.6179                 1.6676                 1.1835
 IR Inten    --      8.1404                38.6752                 9.8230

                     52                     53                     54
                      A                      A                      A
 Frequencies --   1359.5298              1372.1483              1403.4314
 Red. masses --      1.1390                 1.3827                 1.2322
 Frc consts  --      1.2404                 1.5338                 1.4299
 IR Inten    --      1.7823                 7.5328                26.6197

                     55                     56                     57
                      A                      A                      A
 Frequencies --   1406.7054              1418.2599              1433.4492
 Red. masses --      1.2313                 1.3600                 1.2918
 Frc consts  --      1.4356                 1.6118                 1.5639
 IR Inten    --     18.2213                13.8135                17.3940

                     58                     59                     60
                      A                      A                      A
 Frequencies --   1434.9552              1443.3669              1444.9506
 Red. masses --      1.2690                 1.2992                 1.2966
 Frc consts  --      1.5395                 1.5948                 1.5949
 IR Inten    --     12.1157                12.5157                 8.2139

                     61                     62                     63
                      A                      A                      A
 Frequencies --   1487.0090              1496.5321              1506.6966
 Red. masses --      1.3514                 1.5552                 1.0550
 Frc consts  --      1.7606                 2.0521                 1.4111
 IR Inten    --     15.9821               122.1672                 4.2576

                     64                     65                     66
                      A                      A                      A
 Frequencies --   1511.3131              1515.8551              1530.0929
 Red. masses --      1.1967                 1.1231                 1.0717
 Frc consts  --      1.6105                 1.5204                 1.4782
 IR Inten    --     33.0823                28.8194                 1.6604

                     67                     68                     69
                      A                      A                      A
 Frequencies --   1533.9857              1535.5554              1550.2697
 Red. masses --      1.0643                 1.0527                 1.1048
 Frc consts  --      1.4756                 1.4625                 1.5644
 IR Inten    --      1.6839                 4.8789                12.3669

                     70                     71                     72
                      A                      A                      A
 Frequencies --   1692.6618              1723.8089              1767.0574
 Red. masses --      1.0893                 6.0876                 7.6443
 Frc consts  --      1.8388                10.6580                14.0633
 IR Inten    --     24.0353                53.9411               146.5755

                     73                     74                     75
                      A                      A                      A
 Frequencies --   2988.2684              3016.8682              3027.9584
 Red. masses --      1.0703                 1.0827                 1.0494
 Frc consts  --      5.6312                 5.8057                 5.6689
 IR Inten    --     40.5929                50.4956                60.6878

                     76                     77                     78
                      A                      A                      A
 Frequencies --   3041.0607              3048.6292              3053.3099
 Red. masses --      1.0575                 1.0531                 1.0494
 Frc consts  --      5.7623                 5.7668                 5.7640
 IR Inten    --     36.3340                24.0784                 9.9052

                     79                     80                     81
                      A                      A                      A
 Frequencies --   3091.5048              3093.8557              3094.1407
 Red. masses --      1.0998                 1.1031                 1.0865
 Frc consts  --      6.1930                 6.2213                 6.1285
 IR Inten    --     25.0971                12.6139                28.3017

                     82                     83                     84
                      A                      A                      A
 Frequencies --   3103.5911              3115.1035              3128.0014
 Red. masses --      1.0958                 1.1008                 1.1021
 Frc consts  --      6.2187                 6.2937                 6.3533
 IR Inten    --     38.4552                57.2006                19.1149

                     85                     86                     87
                      A                      A                      A
 Frequencies --   3132.5243              3146.4775              3443.7425
 Red. masses --      1.1029                 1.0907                 1.0493
 Frc consts  --      6.3764                 6.3620                 7.3321
 IR Inten    --     45.9508                38.9056                 1.3978

                     88                     89                     90
                      A                      A                      A
 Frequencies --   3530.9740              3544.0350              3614.2537
 Red. masses --      1.0917                 1.0742                 1.0771
 Frc consts  --      8.0193                 7.9493                 8.2895
 IR Inten    --      0.5975                 3.1961                42.6179

 - Thermochemistry -
 -------------------
 Temperature   298.150 Kelvin.  Pressure   1.00000 Atm.
 Atom     1 has atomic number  6 and mass  12.00000

 Molecular mass:   198.14806 amu.
 Principal axes and moments of inertia in atomic units:
                           1         2         3
     Eigenvalues --  1552.988774391.211945277.33097
           X            0.99953  -0.03037   0.00324
           Y            0.03034   0.99949   0.00947
           Z           -0.00353  -0.00937   0.99995
 This molecule is an asymmetric top.
 Rotational symmetry number  1.
 Warning -- assumption of classical behavior for rotation
           may cause significant error
 Rotational temperatures (Kelvin)      0.05577     0.01972     0.01641
 Rotational constants (GHZ):           1.16211     0.41099     0.34198
 Zero-point vibrational energy     741650.1 (Joules/Mol)
                                  177.25862 (Kcal/Mol)
 Warning -- explicit consideration of  24 degrees of freedom as
           vibrations may cause significant error
 Vibrational temperatures:     27.54    73.21   100.57   115.60   142.11
          (Kelvin)            184.68   194.45   218.95   304.02   335.27
                              377.57   445.39   451.27   467.36   499.52
                              542.32   612.57   662.07   686.53   713.98
                              759.08   788.25   828.71   890.99   988.49
                             1071.20  1158.99  1167.41  1195.81  1229.29
                             1272.91  1298.34  1349.61  1361.98  1394.50
                             1428.51  1465.28  1530.99  1549.61  1588.11
                             1592.63  1612.31  1639.06  1676.89  1731.90
                             1745.23  1760.81  1778.30  1841.24  1889.79
                             1921.40  1956.06  1974.22  2019.22  2023.94
                             2040.56  2062.41  2064.58  2076.68  2078.96
                             2139.47  2153.18  2167.80  2174.44  2180.98
                             2201.46  2207.06  2209.32  2230.49  2435.36
                             2480.18  2542.40  4299.45  4340.60  4356.56
                             4375.41  4386.30  4393.03  4447.99  4451.37
                             4451.78  4465.38  4481.94  4500.50  4507.00
                             4527.08  4954.78  5080.28  5099.08  5200.10

 Zero-point correction=                           0.282480 (Hartree/Particle)
 Thermal correction to Energy=                    0.297681
 Thermal correction to Enthalpy=                  0.298625
 Thermal correction to Gibbs Free Energy=         0.239180
 Sum of electronic and zero-point Energies=           -647.749472
 Sum of electronic and thermal Energies=              -647.734271
 Sum of electronic and thermal Enthalpies=            -647.733326
 Sum of electronic and thermal Free Energies=         -647.792771

                     E (Thermal)             CV                S
                      KCal/Mol        Cal/Mol-Kelvin    Cal/Mol-Kelvin
 Total                  186.797             56.512            125.113
 Electronic               0.000              0.000              0.000
 Translational            0.889              2.981             41.756
 Rotational               0.889              2.981             31.954
 Vibrational            185.020             50.550             51.402
 Vibration     1          0.593              1.986              6.722
 Vibration     2          0.595              1.977              4.783
 Vibration     3          0.598              1.968              4.156
 Vibration     4          0.600              1.962              3.882
 Vibration     5          0.604              1.950              3.478
 Vibration     6          0.611              1.925              2.970
 Vibration     7          0.613              1.918              2.871
 Vibration     8          0.619              1.900              2.645
 Vibration     9          0.643              1.824              2.032
 Vibration    10          0.654              1.790              1.856
 Vibration    11          0.670              1.742              1.646
 Vibration    12          0.699              1.656              1.365
 Vibration    13          0.701              1.648              1.343
 Vibration    14          0.709              1.626              1.286
 Vibration    15          0.725              1.581              1.179
 Vibration    16          0.747              1.519              1.051
 Vibration    17          0.788              1.414              0.873
 Vibration    18          0.818              1.338              0.766
 Vibration    19          0.834              1.301              0.718
 Vibration    20          0.852              1.258              0.668
 Vibration    21          0.883              1.189              0.593
 Vibration    22          0.903              1.144              0.549
 Vibration    23          0.932              1.083              0.493
 Vibration    24          0.979              0.991              0.418

                           ! Non-Optimized Parameters !
 Normal termination of Gaussian 16 at Thu Dec 10 09:27:50 2020.

 ----------------------------------------------------------------------
 # B3LYP/6-311++G(d,p) empiricaldispersion=gd3bj scf=xqc pop=npa geom=c
 heck
 ----------------------------------------------------------------------

 --------------------------------------
 CID_90453971_JID_4149_Energie_neutraal
 --------------------------------------
 Structure from the checkpoint file:  "JID_4149.chk"
 Charge =  0 Multiplicity = 1

 SCF Done:  E(RB3LYP) =  -648.228442541     A.U. after   15 cycles
 Normal termination of Gaussian 16 at Thu Dec 10 09:31:30 2020.

 ----------------------------------------------------------------------
 # B3LYP/6-311++G(d,p) empiricaldispersion=gd3bj scf=xqc pop=npa geom=c
 heck
 ----------------------------------------------------------------------

 ------------------------------------
 CID_90453971_JID_4149_Energie_kation
 ------------------------------------
 Structure from the checkpoint file:  "JID_4149.chk"
 Charge =  1 Multiplicity = 2

 SCF Done:  E(UB3LYP) =  -647.946623420     A.U. after   23 cycles
 Normal termination of Gaussian 16 at Thu Dec 10 09:38:59 2020.
 Gaussian 16:  ES64L-G16RevA.03 25-Dec-2016

 ----------------------------------------------------------------------
 # B3LYP/6-311++G(d,p) empiricaldispersion=gd3bj scf=xqc pop=npa geom=c
 heck
 ----------------------------------------------------------------------

 -----------------------------------
 CID_90453971_JID_4149_Energie_anion
 -----------------------------------
 Structure from the checkpoint file:  "JID_4149.chk"
 Charge = -1 Multiplicity = 2

                         Standard orientation:
 ---------------------------------------------------------------------
 Center     Atomic      Atomic             Coordinates (Angstroms)
 Number     Number       Type             X           Y           Z
 ---------------------------------------------------------------------
      1          6           0       -3.368267    1.767893    0.070050
      2          6           0       -3.399132    0.360022   -0.523614
      3          8           0       -3.354658   -0.662650    0.467675
      4          6           0       -2.099458   -0.887875    1.089214
      5          6           0       -1.162061   -1.791499    0.287861
      6          7           0       -0.504594   -1.121642   -0.857065
      7          6           0        0.584905   -0.274206   -0.514054
      8          6           0        1.877488   -0.622293   -0.384180
      9          6           0        2.897846    0.437625   -0.011591
     10          7           0        2.438792    1.825099   -0.172978
     11          6           0        1.185674    2.036893   -0.282942
     12          7           0        0.198107    1.067918   -0.326307
     13          7           0        3.361333    0.183025    1.359240
     14          6           0        2.398605   -2.020858   -0.550780
     15          1           0       -4.180209    1.891840    0.793512
     16          1           0       -3.492040    2.517345   -0.721079
     17          1           0       -2.425121    1.977844    0.587327
     18          1           0       -4.350171    0.204384   -1.043733
     19          1           0       -2.596027    0.215321   -1.257215
     20          1           0       -1.593032    0.052379    1.345245
     21          1           0       -2.331597   -1.397952    2.030842
     22          1           0       -0.414182   -2.213991    0.979477
     23          1           0       -1.757209   -2.617724   -0.114621
     24          1           0       -0.184655   -1.826404   -1.513473
     25          1           0        3.787078    0.321177   -0.647633
     26          1           0        0.811243    3.060104   -0.343854
     27          1           0       -0.689850    1.318324   -0.740146
     28          1           0        4.067165    0.883015    1.591578
     29          1           0        2.578692    0.356264    1.991192
     30          1           0        2.988294   -2.307603    0.326064
     31          1           0        1.602064   -2.759355   -0.683995
     32          1           0        3.067755   -2.088773   -1.420891
 ---------------------------------------------------------------------

 SCF Done:  E(UB3LYP) =  -648.215997743     A.U. after   33 cycles
 SCF Done:  E(UB3LYP) =  -648.215997743     a.u. after    1 cycles

 The electronic state is 2-A.
 Alpha  occ. eigenvalues --  -19.02345 -14.24914 -14.21863 -14.19960 -14.19369
 Alpha  occ. eigenvalues --  -10.14306 -10.13717 -10.13079 -10.11861 -10.11404
 Alpha  occ. eigenvalues --  -10.10262 -10.07211 -10.06688 -10.06416  -0.93450
 Alpha  occ. eigenvalues --   -0.89319  -0.83090  -0.80257  -0.75373  -0.69143
 Alpha  occ. eigenvalues --   -0.66840  -0.62900  -0.60037  -0.56125  -0.54260
 Alpha  occ. eigenvalues --   -0.52449  -0.48516  -0.44791  -0.42990  -0.42272
 Alpha  occ. eigenvalues --   -0.40784  -0.39851  -0.38564  -0.36333  -0.35467
 Alpha  occ. eigenvalues --   -0.34622  -0.34037  -0.32187  -0.31152  -0.30740
 Alpha  occ. eigenvalues --   -0.30155  -0.29581  -0.28458  -0.27893  -0.27549
 Alpha  occ. eigenvalues --   -0.26889  -0.26027  -0.21606  -0.20376  -0.17779
 Alpha  occ. eigenvalues --   -0.16403  -0.15583  -0.14412  -0.11343   0.04314
 Alpha virt. eigenvalues --    0.06113   0.07183   0.07478   0.08471   0.08700
 Alpha virt. eigenvalues --    0.09185   0.09553   0.09929   0.09954   0.10953
 Alpha virt. eigenvalues --    0.11733   0.12101   0.12580   0.12943   0.13145

  Beta  occ. eigenvalues --  -19.02343 -14.24898 -14.21837 -14.19949 -14.19369
  Beta  occ. eigenvalues --  -10.14283 -10.13719 -10.13072 -10.11848 -10.11386
  Beta  occ. eigenvalues --  -10.10238 -10.07196 -10.06655 -10.06377  -0.93440
  Beta  occ. eigenvalues --   -0.89293  -0.83062  -0.80229  -0.75349  -0.69106
  Beta  occ. eigenvalues --   -0.66800  -0.62851  -0.59985  -0.56087  -0.54204
  Beta  occ. eigenvalues --   -0.52395  -0.48451  -0.44729  -0.42945  -0.42246
  Beta  occ. eigenvalues --   -0.40752  -0.39821  -0.38528  -0.36287  -0.35436
  Beta  occ. eigenvalues --   -0.34579  -0.33998  -0.32134  -0.31113  -0.30700
  Beta  occ. eigenvalues --   -0.30119  -0.29544  -0.28418  -0.27849  -0.27523
  Beta  occ. eigenvalues --   -0.26847  -0.25995  -0.21584  -0.20351  -0.17760
  Beta  occ. eigenvalues --   -0.16385  -0.15566  -0.14381  -0.11297
  Beta virt. eigenvalues --    0.06555   0.07276   0.07498   0.07995   0.08852
  Beta virt. eigenvalues --    0.08988   0.09465   0.09806   0.10342   0.10427
  Beta virt. eigenvalues --    0.11418   0.11935   0.12367   0.12839   0.13341

 Mulliken charges and spin densities:
               1          2
     1  C    0.923831  -1.334443
     2  C   -0.517417   0.188133
     3  O   -0.087939   0.029565
     4  C   -0.000993  -0.588903
     5  C    0.312471  -0.350289
     6  N   -0.259750   0.199118
     7  C   -1.072739   0.267170
     8  C    0.618250   0.537718
     9  C   -0.854957  -0.548871
    10  N   -0.094812   0.068105
    11  C    0.484842  -0.443618
    12  N   -0.137068  -0.025616
    13  N   -0.254141   0.063213
    14  C    1.596720  -2.139163
    15  H    0.024102   0.130327
    16  H   -0.437625   0.584359
    17  H   -0.164006   0.285049
    18  H   -0.241519   0.409470
    19  H    0.010724   0.154229
    20  H    0.253748  -0.091058
    21  H   -0.256526   0.426604
    22  H    0.134528  -0.022834
    23  H   -0.254370   0.458198
    24  H   -0.115548   0.419896
    25  H    0.130590   0.075347
    26  H   -0.531388   0.737038
    27  H    0.078593   0.302622
    28  H    0.162494   0.056828
    29  H    0.124245   0.105363
    30  H    0.096896   0.094512
    31  H   -0.575139   0.727278
    32  H   -0.096098   0.224650
 Sum of Mulliken charges =  -1.00000   1.00000

 Dipole moment (field-independent basis, Debye):
    X=              2.2772    Y=             -0.0888    Z=              2.3885  Tot=              3.3013
 Quadrupole moment (field-independent basis, Debye-Ang):
   XX=           -151.1596   YY=           -146.3461   ZZ=           -117.9010
   XY=              4.6850   XZ=             -2.1534   YZ=              2.2859

 Summary of Natural Population Analysis:

                                       Natural Population
                Natural  -----------------------------------------------
    Atom  No    Charge         Core      Valence    Rydberg      Total
 -----------------------------------------------------------------------
      C    1   -0.30477      0.99967     2.29959    0.00551     3.30477
      C    2   -0.01506      0.99958     2.00318    0.01230     3.01506
      O    3   -0.30426      0.99989     3.29406    0.01031     4.30426
      C    4   -0.01598      0.99955     2.00449    0.01194     3.01598
      C    5   -0.09768      0.99960     2.08674    0.01135     3.09768
      N    6   -0.34742      0.99971     2.83462    0.01310     3.84742
      C    7    0.17000      0.99935     1.81582    0.01483     2.83000
      C    8   -0.05199      0.99942     2.04197    0.01059     3.05199
      C    9    0.06259      0.99957     1.92202    0.01582     2.93741
      N   10   -0.27385      0.99970     2.76292    0.01123     3.77385
      C   11    0.15245      0.99963     1.82986    0.01806     2.84755
      N   12   -0.31770      0.99965     2.80785    0.01019     3.81770
      N   13   -0.41808      0.99977     2.90940    0.00891     3.91808
      C   14   -0.29624      0.99963     2.28954    0.00707     3.29624
      H   15    0.09992      0.00000     0.39893    0.00115     0.40008
      H   16    0.10405      0.00000     0.39386    0.00210     0.39595
      H   17    0.09481      0.00000     0.40357    0.00162     0.40519
      H   18    0.08696      0.00000     0.41166    0.00138     0.41304
      H   19    0.08706      0.00000     0.41060    0.00235     0.41294
      H   20    0.08394      0.00000     0.41416    0.00190     0.41606
      H   21    0.09036      0.00000     0.40837    0.00128     0.40964
      H   22    0.08664      0.00000     0.41168    0.00168     0.41336
      H   23    0.10051      0.00000     0.39778    0.00171     0.39949
      H   24    0.19006      0.00000     0.30581    0.00413     0.30994
      H   25    0.08516      0.00000     0.41282    0.00203     0.41484
      H   26    0.08721      0.00000     0.41103    0.00176     0.41279
      H   27    0.20325      0.00000     0.29250    0.00425     0.29675
      H   28    0.17347      0.00000     0.32459    0.00194     0.32653
      H   29    0.17135      0.00000     0.32673    0.00192     0.32865
      H   30    0.11052      0.00000     0.38773    0.00176     0.38948
      H   31    0.10238      0.00000     0.39612    0.00150     0.39762
      H   32    0.10039      0.00000     0.39841    0.00120     0.39961
 =======================================================================
   * Total *   -0.00000     13.99472    39.80839    0.19689    54.00000

 Normal termination of Gaussian 16 at Thu Dec 10 09:49:45 2020.
