 Gaussian 16, Revision A.03,

 -----------------------------------------------------------
 # opt freq B3LYP/6-31G(d) empiricaldispersion=gd3bj scf=xqc
 -----------------------------------------------------------

 -------------------------------
 CID_115024795_JID_5206_neutraal
 -------------------------------
 Symbolic Z-matrix:
 Charge =  0 Multiplicity = 1

 SCF Done:  E(RB3LYP) =  -656.711707218     A.U. after   15 cycles
 SCF Done:  E(RB3LYP) =  -656.711950432     A.U. after   14 cycles
 SCF Done:  E(RB3LYP) =  -656.714356115     A.U. after   13 cycles
 SCF Done:  E(RB3LYP) =  -656.715255098     A.U. after   13 cycles
 SCF Done:  E(RB3LYP) =  -656.715293269     A.U. after   13 cycles
 SCF Done:  E(RB3LYP) =  -656.715675704     A.U. after   12 cycles
 SCF Done:  E(RB3LYP) =  -656.716427000     A.U. after   13 cycles
 SCF Done:  E(RB3LYP) =  -656.716612867     A.U. after   13 cycles
 SCF Done:  E(RB3LYP) =  -656.717055417     A.U. after   14 cycles
 SCF Done:  E(RB3LYP) =  -656.717172117     A.U. after   11 cycles
 SCF Done:  E(RB3LYP) =  -656.720628781     A.U. after   11 cycles
 SCF Done:  E(RB3LYP) =  -656.720634644     A.U. after   10 cycles
 SCF Done:  E(RB3LYP) =  -656.720635520     A.U. after    8 cycles
 SCF Done:  E(RB3LYP) =  -656.720635795     A.U. after    8 cycles
 SCF Done:  E(RB3LYP) =  -656.720635865     A.U. after    8 cycles
 Optimization completed.
    -- Stationary point found.
 Normal termination of Gaussian 16 at Thu Dec 10 15:11:54 2020.

 --------------------------------------------------------------------
 #N Geom=AllCheck Guess=TCheck SCRF=Check GenChk RB3LYP/6-31G(d) Freq
 --------------------------------------------------------------------

 Structure from the checkpoint file:  "JID_5206.chk"
 -------------------------------
 CID_115024795_JID_5206_neutraal
 -------------------------------
 Charge =  0 Multiplicity = 1

 SCF Done:  E(RB3LYP) =  -656.720635865     A.U. after    1 cycles

  Exact polarizability: 168.596   0.863 141.548   5.688 -14.816  98.408
 Approx polarizability: 241.624  -5.598 228.530  18.354 -37.799 153.561

                      1                      2                      3
                      A                      A                      A
 Frequencies --     43.3201                67.4697                87.7486
 Red. masses --      5.0447                 3.4643                 4.2715
 Frc consts  --      0.0056                 0.0093                 0.0194
 IR Inten    --      1.2069                 3.2727                 1.6127

                      4                      5                      6
                      A                      A                      A
 Frequencies --     93.4193               126.1719               164.6747
 Red. masses --      3.4239                 6.1097                 4.0522
 Frc consts  --      0.0176                 0.0573                 0.0647
 IR Inten    --      2.7760                 5.8782                 3.2472

                      7                      8                      9
                      A                      A                      A
 Frequencies --    220.7451               227.2609               241.4129
 Red. masses --      2.1030                 1.5050                 3.1106
 Frc consts  --      0.0604                 0.0458                 0.1068
 IR Inten    --      1.9496                 0.8031                 0.8964

                     10                     11                     12
                      A                      A                      A
 Frequencies --    262.8776               275.2776               282.0974
 Red. masses --      1.3883                 2.6408                 1.3701
 Frc consts  --      0.0565                 0.1179                 0.0642
 IR Inten    --      0.1201                 0.6651                 0.9677

                     13                     14                     15
                      A                      A                      A
 Frequencies --    292.2347               308.0087               331.8978
 Red. masses --      2.2134                 2.3248                 1.7687
 Frc consts  --      0.1114                 0.1299                 0.1148
 IR Inten    --      0.5497                 0.2935                 0.2519

                     16                     17                     18
                      A                      A                      A
 Frequencies --    392.2234               395.3776               395.8001
 Red. masses --      2.4042                 1.2114                 2.1270
 Frc consts  --      0.2179                 0.1116                 0.1963
 IR Inten    --      5.6125                94.9801                12.2908

                     19                     20                     21
                      A                      A                      A
 Frequencies --    437.0121               443.0913               481.3399
 Red. masses --      2.6965                 3.4950                 2.9097
 Frc consts  --      0.3034                 0.4043                 0.3972
 IR Inten    --      3.2605                 7.9061                 4.3435

                     22                     23                     24
                      A                      A                      A
 Frequencies --    511.4036               540.1425               548.8449
 Red. masses --      2.3877                 5.2740                 3.7052
 Frc consts  --      0.3679                 0.9066                 0.6576
 IR Inten    --     13.9153                 0.2736                 2.5048

                     25                     26                     27
                      A                      A                      A
 Frequencies --    626.2355               648.0718               712.2803
 Red. masses --      4.3263                 4.4308                 2.8201
 Frc consts  --      0.9996                 1.0964                 0.8430
 IR Inten    --      0.5873                 0.1026                 7.3683

                     28                     29                     30
                      A                      A                      A
 Frequencies --    744.1600               768.6325               802.9272
 Red. masses --      3.6166                 2.8974                 1.5478
 Frc consts  --      1.1800                 1.0086                 0.5879
 IR Inten    --      6.9336                 7.8026                24.0381

                     31                     32                     33
                      A                      A                      A
 Frequencies --    851.8002               873.0658               889.5418
 Red. masses --      2.9371                 1.5850                 1.5583
 Frc consts  --      1.2556                 0.7118                 0.7265
 IR Inten    --     10.2484                18.1334                 1.9404

                     34                     35                     36
                      A                      A                      A
 Frequencies --    903.6263               946.8348               949.7506
 Red. masses --      1.7110                 1.7438                 1.6826
 Frc consts  --      0.8232                 0.9211                 0.8942
 IR Inten    --      0.7067                 0.3048                 2.1672

                     37                     38                     39
                      A                      A                      A
 Frequencies --    962.8766               967.7997               975.3899
 Red. masses --      2.7119                 1.2561                 1.2102
 Frc consts  --      1.4814                 0.6932                 0.6784
 IR Inten    --     14.6803                 0.7074                 0.1361

                     40                     41                     42
                      A                      A                      A
 Frequencies --   1009.2014              1021.5543              1040.0657
 Red. masses --      2.5441                 5.9063                 1.6506
 Frc consts  --      1.5266                 3.6315                 1.0520
 IR Inten    --     10.1168                 1.9776                 2.8499

                     43                     44                     45
                      A                      A                      A
 Frequencies --   1052.0462              1077.5244              1088.0641
 Red. masses --      1.6290                 1.7058                 2.0279
 Frc consts  --      1.0623                 1.1669                 1.4145
 IR Inten    --      7.5572                 1.2407                26.3819

                     46                     47                     48
                      A                      A                      A
 Frequencies --   1117.4164              1198.0549              1201.3883
 Red. masses --      1.6182                 1.3632                 1.5729
 Frc consts  --      1.1905                 1.1528                 1.3376
 IR Inten    --      3.1692                 5.4766               107.9325

                     49                     50                     51
                      A                      A                      A
 Frequencies --   1213.7489              1232.0379              1249.8423
 Red. masses --      1.6851                 1.3267                 2.0690
 Frc consts  --      1.4626                 1.1865                 1.9042
 IR Inten    --      3.3595                80.4360                11.4615

                     52                     53                     54
                      A                      A                      A
 Frequencies --   1262.5002              1282.0554              1305.1376
 Red. masses --      2.1149                 1.5008                 1.8183
 Frc consts  --      1.9861                 1.4534                 1.8249
 IR Inten    --     13.4109                19.2043                45.9405

                     55                     56                     57
                      A                      A                      A
 Frequencies --   1324.8007              1362.4827              1376.8175
 Red. masses --      2.3043                 2.0486                 1.8685
 Frc consts  --      2.3828                 2.2406                 2.0869
 IR Inten    --     23.5011                 3.6686                 2.4767

                     58                     59                     60
                      A                      A                      A
 Frequencies --   1383.3392              1409.5605              1429.4826
 Red. masses --      1.5465                 1.4808                 1.2326
 Frc consts  --      1.7436                 1.7334                 1.4840
 IR Inten    --      1.8713                27.0998                 2.8164

                     61                     62                     63
                      A                      A                      A
 Frequencies --   1434.1028              1455.8914              1464.9925
 Red. masses --      1.2334                 1.1901                 1.2172
 Frc consts  --      1.4946                 1.4863                 1.5391
 IR Inten    --      6.0970                 7.5099                 8.4833

                     64                     65                     66
                      A                      A                      A
 Frequencies --   1502.4690              1510.0647              1513.8647
 Red. masses --      1.4806                 1.5866                 1.0493
 Frc consts  --      1.9692                 2.1316                 1.4169
 IR Inten    --     47.3253                49.5602                 0.8829

                     67                     68                     69
                      A                      A                      A
 Frequencies --   1519.2027              1522.4783              1539.6138
 Red. masses --      1.0488                 1.0750                 1.0576
 Frc consts  --      1.4262                 1.4681                 1.4770
 IR Inten    --      3.3825                 7.8444                 2.2992

                     70                     71                     72
                      A                      A                      A
 Frequencies --   1541.1290              1550.7964              1561.2095
 Red. masses --      1.0629                 1.0614                 2.3711
 Frc consts  --      1.4873                 1.5039                 3.4050
 IR Inten    --      0.8802                11.4153                 5.4040

                     73                     74                     75
                      A                      A                      A
 Frequencies --   1662.9755              1669.4652              1818.2044
 Red. masses --      5.4617                 5.6447                 9.3296
 Frc consts  --      8.8992                 9.2692                18.1719
 IR Inten    --     37.0003                79.5579               120.4182

                     76                     77                     78
                      A                      A                      A
 Frequencies --   2913.4943              3032.2859              3043.0496
 Red. masses --      1.0834                 1.0819                 1.0371
 Frc consts  --      5.4182                 5.8612                 5.6582
 IR Inten    --    117.9096                11.6591                21.2173

                     79                     80                     81
                      A                      A                      A
 Frequencies --   3047.9823              3060.0799              3065.2387
 Red. masses --      1.0381                 1.0404                 1.0605
 Frc consts  --      5.6823                 5.7399                 5.8705
 IR Inten    --     35.5658                18.3706                22.1191

                     82                     83                     84
                      A                      A                      A
 Frequencies --   3104.7982              3111.0183              3117.3150
 Red. masses --      1.1017                 1.1005                 1.1016
 Frc consts  --      6.2575                 6.2755                 6.3075
 IR Inten    --      1.2944                54.1442                13.8061

                     85                     86                     87
                      A                      A                      A
 Frequencies --   3120.0143              3123.2658              3138.9922
 Red. masses --      1.1011                 1.0990                 1.1003
 Frc consts  --      6.3150                 6.3161                 6.3878
 IR Inten    --     21.4457                50.4305                16.7685

                     88                     89                     90
                      A                      A                      A
 Frequencies --   3142.2057              3185.0148              3201.1234
 Red. masses --      1.1009                 1.0863                 1.0926
 Frc consts  --      6.4042                 6.4924                 6.5965
 IR Inten    --     37.8052                 7.0837                20.8126

                     91                     92                     93
                      A                      A                      A
 Frequencies --   3212.3276              3220.6394              3744.2056
 Red. masses --      1.0902                 1.0943                 1.0658
 Frc consts  --      6.6280                 6.6876                 8.8037
 IR Inten    --     11.8033                11.5140                37.0456

 - Thermochemistry -
 -------------------
 Temperature   298.150 Kelvin.  Pressure   1.00000 Atm.
 Atom     1 has atomic number  6 and mass  12.00000

 Molecular mass:   206.13068 amu.
 Principal axes and moments of inertia in atomic units:
                           1         2         3
     Eigenvalues --  2182.375113841.954325022.45772
           X            0.99989  -0.01345  -0.00594
           Y            0.01346   0.99991   0.00148
           Z            0.00592  -0.00156   0.99998
 This molecule is an asymmetric top.
 Rotational symmetry number  1.
 Warning -- assumption of classical behavior for rotation
           may cause significant error
 Rotational temperatures (Kelvin)      0.03969     0.02254     0.01725
 Rotational constants (GHZ):           0.82696     0.46975     0.35933
 Zero-point vibrational energy     749337.7 (Joules/Mol)
                                  179.09600 (Kcal/Mol)
 Warning -- explicit consideration of  24 degrees of freedom as
           vibrations may cause significant error
 Vibrational temperatures:     62.33    97.07   126.25   134.41   181.53
          (Kelvin)            236.93   317.60   326.98   347.34   378.22
                              396.06   405.88   420.46   443.16   477.53
                              564.32   568.86   569.47   628.76   637.51
                              692.54   735.80   777.14   789.67   901.01
                              932.43  1024.81  1070.68  1105.89  1155.23
                             1225.55  1256.15  1279.85  1300.12  1362.28
                             1366.48  1385.36  1392.45  1403.37  1452.02
                             1469.79  1496.42  1513.66  1550.32  1565.48
                             1607.71  1723.73  1728.53  1746.31  1772.63
                             1798.24  1816.46  1844.59  1877.80  1906.09
                             1960.31  1980.93  1990.32  2028.04  2056.71
                             2063.35  2094.70  2107.80  2161.72  2172.65
                             2178.11  2185.79  2190.51  2215.16  2217.34
                             2231.25  2246.23  2392.65  2401.99  2615.99
                             4191.87  4362.78  4378.27  4385.37  4402.77
                             4410.19  4467.11  4476.06  4485.12  4489.00
                             4493.68  4516.31  4520.93  4582.53  4605.70
                             4621.82  4633.78  5387.08

 Zero-point correction=                           0.285408 (Hartree/Particle)
 Thermal correction to Energy=                    0.300693
 Thermal correction to Enthalpy=                  0.301637
 Thermal correction to Gibbs Free Energy=         0.243855
 Sum of electronic and zero-point Energies=           -656.435228
 Sum of electronic and thermal Energies=              -656.419943
 Sum of electronic and thermal Enthalpies=            -656.418999
 Sum of electronic and thermal Free Energies=         -656.476781

                     E (Thermal)             CV                S
                      KCal/Mol        Cal/Mol-Kelvin    Cal/Mol-Kelvin
 Total                  188.688             59.557            121.614
 Electronic               0.000              0.000              0.000
 Translational            0.889              2.981             41.874
 Rotational               0.889              2.981             32.110
 Vibrational            186.910             53.595             47.630
 Vibration     1          0.595              1.980              5.101
 Vibration     2          0.598              1.970              4.226
 Vibration     3          0.601              1.958              3.710
 Vibration     4          0.602              1.954              3.587
 Vibration     5          0.611              1.927              3.004
 Vibration     6          0.623              1.886              2.495
 Vibration     7          0.647              1.809              1.953
 Vibration     8          0.651              1.799              1.900
 Vibration     9          0.658              1.777              1.792
 Vibration    10          0.670              1.741              1.643
 Vibration    11          0.677              1.719              1.563
 Vibration    12          0.681              1.707              1.521
 Vibration    13          0.688              1.688              1.461
 Vibration    14          0.698              1.658              1.373
 Vibration    15          0.714              1.612              1.251
 Vibration    16          0.760              1.487              0.992
 Vibration    17          0.762              1.480              0.980
 Vibration    18          0.763              1.479              0.978
 Vibration    19          0.797              1.390              0.836
 Vibration    20          0.803              1.376              0.817
 Vibration    21          0.838              1.291              0.706
 Vibration    22          0.867              1.225              0.630
 Vibration    23          0.895              1.161              0.565
 Vibration    24          0.904              1.142              0.547

 Optimization completed.
    -- Stationary point found.
 Normal termination of Gaussian 16 at Thu Dec 10 15:24:48 2020.

 ----------------------------------------------------------------------
 # B3LYP/6-311++G(d,p) empiricaldispersion=gd3bj scf=xqc pop=npa geom=c
 heck
 ----------------------------------------------------------------------

 ---------------------------------------
 CID_115024795_JID_5206_Energie_neutraal
 ---------------------------------------
 Structure from the checkpoint file:  "JID_5206.chk"
 Charge =  0 Multiplicity = 1

 SCF Done:  E(RB3LYP) =  -656.910704846     A.U. after   16 cycles
 Normal termination of Gaussian 16 at Thu Dec 10 15:31:22 2020.

 ----------------------------------------------------------------------
 # B3LYP/6-311++G(d,p) empiricaldispersion=gd3bj scf=xqc pop=npa geom=c
 heck
 ----------------------------------------------------------------------

 -------------------------------------
 CID_115024795_JID_5206_Energie_kation
 -------------------------------------
 Structure from the checkpoint file:  "JID_5206.chk"
 Charge =  1 Multiplicity = 2

 SCF Done:  E(UB3LYP) =  -656.612534893     A.U. after   25 cycles
 Normal termination of Gaussian 16 at Thu Dec 10 15:46:08 2020.
 Gaussian 16:  ES64L-G16RevA.03 25-Dec-2016

 ----------------------------------------------------------------------
 # B3LYP/6-311++G(d,p) empiricaldispersion=gd3bj scf=xqc pop=npa geom=c
 heck
 ----------------------------------------------------------------------

 ------------------------------------
 CID_115024795_JID_5206_Energie_anion
 ------------------------------------
 Structure from the checkpoint file:  "JID_5206.chk"
 Charge = -1 Multiplicity = 2

                         Standard orientation:
 ---------------------------------------------------------------------
 Center     Atomic      Atomic             Coordinates (Angstroms)
 Number     Number       Type             X           Y           Z
 ---------------------------------------------------------------------
      1          6           0        1.582988   -0.070686   -1.725002
      2          6           0        1.854798   -0.838813   -0.420475
      3          6           0        1.561496   -2.329661   -0.677653
      4          6           0        3.342374   -0.712203   -0.042089
      5          6           0        0.964138   -0.346076    0.775916
      6          6           0        1.373371    1.035916    1.391742
      7          6           0        1.650714    2.201801    0.463920
      8          8           0        0.826611    3.008327    0.083368
      9          6           0       -0.531094   -0.447886    0.509824
     10          6           0       -1.255999    0.591907   -0.084042
     11          6           0       -2.626031    0.457812   -0.323502
     12          6           0       -3.296783   -0.718695    0.020659
     13          6           0       -2.579563   -1.748850    0.621040
     14          6           0       -1.212649   -1.617636    0.870670
     15          8           0       -3.359907    1.460505   -0.894192
     16          1           0        2.205673   -0.477692   -2.530046
     17          1           0        1.813414    0.995932   -1.647236
     18          1           0        0.536098   -0.164124   -2.027392
     19          1           0        2.209752   -2.706728   -1.476702
     20          1           0        1.750538   -2.932974    0.218716
     21          1           0        0.523314   -2.489894   -0.980109
     22          1           0        3.664677    0.329743    0.052956
     23          1           0        3.554797   -1.220267    0.906693
     24          1           0        3.968414   -1.174548   -0.813420
     25          1           0        1.170199   -1.057595    1.585802
     26          1           0        0.574877    1.343416    2.074040
     27          1           0        2.284582    0.882331    1.980763
     28          1           0        2.712297    2.322532    0.156562
     29          1           0       -0.767701    1.529412   -0.328867
     30          1           0       -4.360901   -0.799823   -0.174387
     31          1           0       -3.093515   -2.662623    0.906363
     32          1           0       -0.671545   -2.427291    1.351521
     33          1           0       -2.775167    2.217969   -1.054714
 ---------------------------------------------------------------------

 SCF Done:  E(UB3LYP) =  -656.905392308     A.U. after   33 cycles
 SCF Done:  E(UB3LYP) =  -656.905392307     a.u. after    1 cycles

 The electronic state is 2-A.
 Alpha  occ. eigenvalues --  -19.05695 -18.96352 -10.12999 -10.09432 -10.07553
 Alpha  occ. eigenvalues --  -10.07233 -10.07209 -10.06730 -10.06579 -10.05807
 Alpha  occ. eigenvalues --  -10.05708 -10.04950 -10.04558 -10.04313 -10.04204
 Alpha  occ. eigenvalues --   -0.96652  -0.89912  -0.75292  -0.71733  -0.66034
 Alpha  occ. eigenvalues --   -0.63417  -0.62469  -0.57476  -0.57402  -0.54896
 Alpha  occ. eigenvalues --   -0.51696  -0.48417  -0.44689  -0.43786  -0.41335
 Alpha  occ. eigenvalues --   -0.39090  -0.36645  -0.35088  -0.34616  -0.33461
 Alpha  occ. eigenvalues --   -0.33236  -0.32031  -0.31053  -0.30127  -0.29793
 Alpha  occ. eigenvalues --   -0.29004  -0.27999  -0.27255  -0.26320  -0.26127
 Alpha  occ. eigenvalues --   -0.25784  -0.25117  -0.23984  -0.23226  -0.22985
 Alpha  occ. eigenvalues --   -0.21067  -0.20206  -0.19738  -0.14356  -0.12248
 Alpha  occ. eigenvalues --   -0.11364   0.04895
 Alpha virt. eigenvalues --    0.07244   0.07650   0.08389   0.08694   0.09155
 Alpha virt. eigenvalues --    0.09473   0.10123   0.10510   0.10815   0.11355
 Alpha virt. eigenvalues --    0.11613   0.12104   0.12959   0.13139   0.14477

  Beta  occ. eigenvalues --  -19.05695 -18.95974 -10.13001 -10.09053 -10.07554
  Beta  occ. eigenvalues --  -10.07228 -10.07183 -10.06664 -10.06560 -10.05793
  Beta  occ. eigenvalues --  -10.05699 -10.04984 -10.04523 -10.04282 -10.04177
  Beta  occ. eigenvalues --   -0.96651  -0.89175  -0.75249  -0.71684  -0.65967
  Beta  occ. eigenvalues --   -0.63390  -0.62280  -0.57410  -0.57333  -0.54666
  Beta  occ. eigenvalues --   -0.51630  -0.48317  -0.44455  -0.43453  -0.41159
  Beta  occ. eigenvalues --   -0.39026  -0.36567  -0.34956  -0.34507  -0.33307
  Beta  occ. eigenvalues --   -0.33077  -0.31963  -0.31026  -0.30054  -0.29547
  Beta  occ. eigenvalues --   -0.28795  -0.27877  -0.27196  -0.26209  -0.25934
  Beta  occ. eigenvalues --   -0.25486  -0.24584  -0.23862  -0.23165  -0.22463
  Beta  occ. eigenvalues --   -0.20987  -0.20138  -0.19102  -0.14246  -0.12178
  Beta  occ. eigenvalues --   -0.11065
  Beta virt. eigenvalues --    0.07301   0.07930   0.08455   0.08898   0.09307
  Beta virt. eigenvalues --    0.09615   0.10185   0.10333   0.10848   0.11204
  Beta virt. eigenvalues --    0.11814   0.12198   0.12281   0.13162   0.13334

 Mulliken charges and spin densities:
               1          2
     1  C   -0.406161  -0.279680
     2  C   -1.438556   1.852427
     3  C   -0.137143  -0.550523
     4  C    0.896535  -1.430704
     5  C    2.865760  -2.313542
     6  C    0.107764  -0.680264
     7  C   -0.392978   0.361205
     8  O   -0.298213   0.117777
     9  C   -0.414133   1.055988
    10  C   -1.113606   0.832903
    11  C   -0.320697  -0.263912
    12  C   -0.099881   0.018167
    13  C   -0.107851  -0.271849
    14  C    0.375280  -0.571213
    15  O   -0.252775   0.000631
    16  H    0.006806   0.136792
    17  H    0.163536   0.028141
    18  H    0.085050   0.054760
    19  H   -0.188125   0.319806
    20  H   -0.197463   0.360972
    21  H    0.191773  -0.051000
    22  H    0.027066   0.103292
    23  H   -0.252588   0.405035
    24  H   -0.090337   0.230244
    25  H   -0.433378   0.692637
    26  H    0.049380   0.122232
    27  H    0.028492   0.123327
    28  H    0.039881  -0.003197
    29  H    0.231252  -0.056576
    30  H    0.137427   0.020124
    31  H   -0.020490   0.181507
    32  H   -0.309975   0.449664
    33  H    0.268349   0.004829
 Sum of Mulliken charges =  -1.00000   1.00000

 Dipole moment (field-independent basis, Debye):
    X=             -3.4982    Y=              0.9209    Z=             -2.2690  Tot=              4.2701
 Quadrupole moment (field-independent basis, Debye-Ang):
   XX=           -136.8525   YY=           -135.8443   ZZ=           -121.1640
   XY=              7.0507   XZ=             -1.6164   YZ=              2.6614

 Summary of Natural Population Analysis:

                                       Natural Population
                Natural  -----------------------------------------------
    Atom  No    Charge         Core      Valence    Rydberg      Total
 -----------------------------------------------------------------------
      C    1   -0.28825      0.99962     2.28165    0.00699     3.28825
      C    2   -0.04154      0.99957     2.03005    0.01192     3.04154
      C    3   -0.28487      0.99962     2.27782    0.00742     3.28487
      C    4   -0.28453      0.99962     2.27723    0.00768     3.28453
      C    5   -0.10555      0.99951     2.08967    0.01637     3.10555
      C    6   -0.24193      0.99960     2.23163    0.01070     3.24193
      C    7    0.26820      0.99973     1.71186    0.02022     2.73180
      O    8   -0.26652      0.99988     3.25999    0.00666     4.26652
      C    9    0.00727      0.99950     1.98193    0.01130     2.99273
      C   10   -0.14491      0.99945     2.13569    0.00977     3.14491
      C   11    0.15698      0.99939     1.83139    0.01224     2.84302
      C   12   -0.13442      0.99952     2.12558    0.00931     3.13442
      C   13   -0.09584      0.99957     2.08610    0.01017     3.09584
      C   14   -0.11544      0.99950     2.10626    0.00968     3.11544
      O   15   -0.34514      0.99988     3.33900    0.00627     4.34514
      H   16    0.09662      0.00000     0.40265    0.00073     0.40338
      H   17    0.10630      0.00000     0.39295    0.00075     0.39370
      H   18    0.10246      0.00000     0.39674    0.00080     0.39754
      H   19    0.09751      0.00000     0.40160    0.00089     0.40249
      H   20    0.10067      0.00000     0.39795    0.00137     0.39933
      H   21    0.10275      0.00000     0.39626    0.00099     0.39725
      H   22    0.09907      0.00000     0.39966    0.00127     0.40093
      H   23    0.10194      0.00000     0.39673    0.00133     0.39806
      H   24    0.09793      0.00000     0.40112    0.00095     0.40207
      H   25    0.10752      0.00000     0.38906    0.00342     0.39248
      H   26    0.11018      0.00000     0.38872    0.00110     0.38982
      H   27    0.10471      0.00000     0.39412    0.00117     0.39529
      H   28    0.03336      0.00000     0.46434    0.00229     0.46664
      H   29    0.11862      0.00000     0.37892    0.00246     0.38138
      H   30    0.10109      0.00000     0.39791    0.00099     0.39891
      H   31    0.09733      0.00000     0.40192    0.00074     0.40267
      H   32    0.10311      0.00000     0.39537    0.00152     0.39689
      H   33    0.23534      0.00000     0.26222    0.00244     0.26466
 =======================================================================
   * Total *   -0.00000     14.99395    40.82410    0.18195    56.00000

 Normal termination of Gaussian 16 at Thu Dec 10 16:05:45 2020.
