 Gaussian 16, Revision A.03,

 -----------------------------------------------------------
 # opt freq B3LYP/6-31G(d) empiricaldispersion=gd3bj scf=xqc
 -----------------------------------------------------------

 ------------------------------
 CID_147759129_JID_301_neutraal
 ------------------------------
 Symbolic Z-matrix:
 Charge =  0 Multiplicity = 1

 SCF Done:  E(RB3LYP) =  -835.892163936     A.U. after   15 cycles
 SCF Done:  E(RB3LYP) =  -835.906497283     A.U. after   13 cycles
 SCF Done:  E(RB3LYP) =  -835.912758521     A.U. after   13 cycles
 SCF Done:  E(RB3LYP) =  -835.917791341     A.U. after   15 cycles
 SCF Done:  E(RB3LYP) =  -835.919467903     A.U. after   13 cycles
 SCF Done:  E(RB3LYP) =  -835.920227095     A.U. after   12 cycles
 SCF Done:  E(RB3LYP) =  -835.920322352     A.U. after   11 cycles
 SCF Done:  E(RB3LYP) =  -835.920342588     A.U. after   11 cycles
 SCF Done:  E(RB3LYP) =  -835.920364418     A.U. after   10 cycles
 SCF Done:  E(RB3LYP) =  -835.920367568     A.U. after    9 cycles
 SCF Done:  E(RB3LYP) =  -835.920368623     A.U. after    8 cycles
 SCF Done:  E(RB3LYP) =  -835.920368829     A.U. after    8 cycles
 Optimization completed.
    -- Stationary point found.
 Normal termination of Gaussian 16 at Tue Dec  8 10:23:45 2020.

 --------------------------------------------------------------------
 #N Geom=AllCheck Guess=TCheck SCRF=Check GenChk RB3LYP/6-31G(d) Freq
 --------------------------------------------------------------------

 Structure from the checkpoint file:  "JID_301.chk"
 ------------------------------
 CID_147759129_JID_301_neutraal
 ------------------------------
 Charge =  0 Multiplicity = 1

 SCF Done:  E(RB3LYP) =  -835.920368829     A.U. after    1 cycles

  Exact polarizability: 100.802   2.715  90.677   0.875  -2.244  85.723
 Approx polarizability: 142.861   0.156 141.700   6.179 -10.467 131.365

                      1                      2                      3
                      A                      A                      A
 Frequencies --     91.6229               123.5375               144.0708
 Red. masses --      3.4238                 3.4769                 3.2836
 Frc consts  --      0.0169                 0.0313                 0.0402
 IR Inten    --      0.5524                 0.1878                 4.5209

                      4                      5                      6
                      A                      A                      A
 Frequencies --    190.0587               210.3988               235.4472
 Red. masses --      1.1259                 2.7244                 3.4233
 Frc consts  --      0.0240                 0.0711                 0.1118
 IR Inten    --      0.7814                 5.9340                 8.1463

                      7                      8                      9
                      A                      A                      A
 Frequencies --    245.9962               274.7243               277.5196
 Red. masses --      1.6023                 2.5801                 2.0952
 Frc consts  --      0.0571                 0.1147                 0.0951
 IR Inten    --      5.6734                10.3926                15.2596

                     10                     11                     12
                      A                      A                      A
 Frequencies --    342.7187               382.7337               427.9200
 Red. masses --      4.4395                 4.4174                 1.8053
 Frc consts  --      0.3072                 0.3812                 0.1948
 IR Inten    --      6.6324                 4.9929                 1.3547

                     13                     14                     15
                      A                      A                      A
 Frequencies --    445.4160               448.8204               500.9499
 Red. masses --      3.3320                 3.1164                 3.1479
 Frc consts  --      0.3895                 0.3699                 0.4654
 IR Inten    --     41.1708                18.1903                12.0342

                     16                     17                     18
                      A                      A                      A
 Frequencies --    565.9102               611.0925               731.0680
 Red. masses --      3.0131                 3.3390                 3.7384
 Frc consts  --      0.5685                 0.7347                 1.1772
 IR Inten    --     31.6429                 4.3128                31.6978

                     19                     20                     21
                      A                      A                      A
 Frequencies --    800.6152               819.8031               854.8081
 Red. masses --      3.0995                 4.7167                 2.1242
 Frc consts  --      1.1706                 1.8677                 0.9145
 IR Inten    --      3.0242                33.0724                40.9561

                     22                     23                     24
                      A                      A                      A
 Frequencies --    881.7962               928.4428               937.2040
 Red. masses --      2.3249                 2.5941                 2.4262
 Frc consts  --      1.0651                 1.3175                 1.2556
 IR Inten    --      1.8910                42.5612                11.7664

                     25                     26                     27
                      A                      A                      A
 Frequencies --    987.8683              1033.0513              1063.6767
 Red. masses --      1.9955                 1.9182                 1.9399
 Frc consts  --      1.1473                 1.2061                 1.2932
 IR Inten    --     15.5848                 2.0599                25.4937

                     28                     29                     30
                      A                      A                      A
 Frequencies --   1093.2438              1132.4287              1152.3377
 Red. masses --      1.9698                 1.9854                 2.0582
 Frc consts  --      1.3871                 1.5001                 1.6103
 IR Inten    --     31.6262               146.3777                46.0407

                     31                     32                     33
                      A                      A                      A
 Frequencies --   1168.2060              1176.9327              1217.3873
 Red. masses --      1.3162                 1.3574                 2.0861
 Frc consts  --      1.0583                 1.1078                 1.8215
 IR Inten    --     16.2784                 3.3747                40.4967

                     34                     35                     36
                      A                      A                      A
 Frequencies --   1230.1553              1271.1774              1295.5515
 Red. masses --      1.5957                 1.4397                 1.1431
 Frc consts  --      1.4227                 1.3706                 1.1304
 IR Inten    --     53.0206                10.0212                 5.9242

                     37                     38                     39
                      A                      A                      A
 Frequencies --   1313.5368              1334.1914              1344.9432
 Red. masses --      1.2308                 1.6442                 1.4351
 Frc consts  --      1.2511                 1.7244                 1.5294
 IR Inten    --      7.2797                15.7974                 9.4118

                     40                     41                     42
                      A                      A                      A
 Frequencies --   1382.8593              1404.9517              1414.6178
 Red. masses --      1.5745                 1.4123                 1.3602
 Frc consts  --      1.7740                 1.6424                 1.6037
 IR Inten    --      2.4878                13.7741                 9.1486

                     43                     44                     45
                      A                      A                      A
 Frequencies --   1467.8276              1482.0843              1489.9382
 Red. masses --      1.1090                 1.0956                 1.1480
 Frc consts  --      1.4077                 1.4179                 1.5016
 IR Inten    --      5.7917                 8.1458                 9.9290

                     46                     47                     48
                      A                      A                      A
 Frequencies --   1502.1539              1511.2453              1516.3196
 Red. masses --      1.0809                 1.0618                 1.1042
 Frc consts  --      1.4370                 1.4287                 1.4958
 IR Inten    --      3.0543                10.1459                 5.5467

                     49                     50                     51
                      A                      A                      A
 Frequencies --   1545.1795              1691.7857              3029.3373
 Red. masses --      1.0524                 1.0677                 1.0664
 Frc consts  --      1.4804                 1.8005                 5.7657
 IR Inten    --     11.9721                10.5164                45.0305

                     52                     53                     54
                      A                      A                      A
 Frequencies --   3041.6065              3052.5060              3068.9896
 Red. masses --      1.0362                 1.0654                 1.0624
 Frc consts  --      5.6481                 5.8487                 5.8957
 IR Inten    --     35.0066                32.4090                11.9301

                     55                     56                     57
                      A                      A                      A
 Frequencies --   3089.1359              3098.5519              3105.2220
 Red. masses --      1.0641                 1.0952                 1.1015
 Frc consts  --      5.9826                 6.1951                 6.2575
 IR Inten    --      3.3822                22.4039                34.5706

                     58                     59                     60
                      A                      A                      A
 Frequencies --   3111.0072              3128.9127              3153.7741
 Red. masses --      1.0964                 1.1036                 1.1045
 Frc consts  --      6.2518                 6.3657                 6.4728
 IR Inten    --     23.9414                26.0977                 3.1025

                     61                     62                     63
                      A                      A                      A
 Frequencies --   3156.0109              3435.9881              3526.1824
 Red. masses --      1.1057                 1.0499                 1.0933
 Frc consts  --      6.4886                 7.3029                 8.0090
 IR Inten    --      1.3963                 4.6698                 0.2531

 - Thermochemistry -
 -------------------
 Temperature   298.150 Kelvin.  Pressure   1.00000 Atm.
 Atom     1 has atomic number  6 and mass  12.00000

 Molecular mass:   163.07793 amu.
 Principal axes and moments of inertia in atomic units:
                           1         2         3
     Eigenvalues --  1090.866251866.583051924.19008
           X            0.99987   0.00729  -0.01462
           Y           -0.00499   0.98840   0.15179
           Z            0.01556  -0.15170   0.98830
 This molecule is an asymmetric top.
 Rotational symmetry number  1.
 Warning -- assumption of classical behavior for rotation
           may cause significant error
 Rotational temperatures (Kelvin)      0.07940     0.04640     0.04501
 Rotational constants (GHZ):           1.65441     0.96687     0.93792
 Zero-point vibrational energy     518542.6 (Joules/Mol)
                                  123.93465 (Kcal/Mol)
 Warning -- explicit consideration of  17 degrees of freedom as
           vibrations may cause significant error
 Vibrational temperatures:    131.82   177.74   207.29   273.45   302.72
          (Kelvin)            338.76   353.93   395.27   399.29   493.10
                              550.67   615.68   640.85   645.75   720.76
                              814.22   879.23  1051.84  1151.91  1179.51
                             1229.88  1268.71  1335.82  1348.43  1421.32
                             1486.33  1530.39  1572.93  1629.31  1657.96
                             1680.79  1693.34  1751.55  1769.92  1828.94
                             1864.01  1889.89  1919.60  1935.07  1989.63
                             2021.41  2035.32  2111.88  2132.39  2143.69
                             2161.26  2174.34  2181.65  2223.17  2434.10
                             4358.54  4376.19  4391.88  4415.59  4444.58
                             4458.13  4467.72  4476.05  4501.81  4537.58
                             4540.80  4943.62  5073.39

 Zero-point correction=                           0.197502 (Hartree/Particle)
 Thermal correction to Energy=                    0.208338
 Thermal correction to Enthalpy=                  0.209282
 Thermal correction to Gibbs Free Energy=         0.161903
 Sum of electronic and zero-point Energies=           -835.722866
 Sum of electronic and thermal Energies=              -835.712031
 Sum of electronic and thermal Enthalpies=            -835.711087
 Sum of electronic and thermal Free Energies=         -835.758466

                     E (Thermal)             CV                S
                      KCal/Mol        Cal/Mol-Kelvin    Cal/Mol-Kelvin
 Total                  130.734             41.312             99.718
 Electronic               0.000              0.000              0.000
 Translational            0.889              2.981             41.176
 Rotational               0.889              2.981             29.750
 Vibrational            128.957             35.351             28.791
 Vibration     1          0.602              1.955              3.625
 Vibration     2          0.610              1.929              3.044
 Vibration     3          0.616              1.909              2.749
 Vibration     4          0.633              1.854              2.227
 Vibration     5          0.643              1.825              2.040
 Vibration     6          0.655              1.787              1.837
 Vibration     7          0.660              1.769              1.759
 Vibration     8          0.677              1.720              1.566
 Vibration     9          0.678              1.715              1.549
 Vibration    10          0.722              1.590              1.199
 Vibration    11          0.752              1.507              1.028
 Vibration    12          0.789              1.409              0.865
 Vibration    13          0.805              1.371              0.810
 Vibration    14          0.808              1.363              0.799
 Vibration    15          0.856              1.248              0.656
 Vibration    16          0.922              1.105              0.512
 Vibration    17          0.970              1.008              0.431

                           ! Non-Optimized Parameters !
 Normal termination of Gaussian 16 at Tue Dec  8 10:28:32 2020.

 ----------------------------------------------------------------------
 # B3LYP/6-311++G(d,p) empiricaldispersion=gd3bj scf=xqc pop=npa geom=c
 heck
 ----------------------------------------------------------------------

 --------------------------------------
 CID_147759129_JID_301_Energie_neutraal
 --------------------------------------
 Structure from the checkpoint file:  "JID_301.chk"
 Charge =  0 Multiplicity = 1

 SCF Done:  E(RB3LYP) =  -836.081888774     A.U. after   14 cycles
 Normal termination of Gaussian 16 at Tue Dec  8 10:30:39 2020.

 ----------------------------------------------------------------------
 # B3LYP/6-311++G(d,p) empiricaldispersion=gd3bj scf=xqc pop=npa geom=c
 heck
 ----------------------------------------------------------------------

 ------------------------------------
 CID_147759129_JID_301_Energie_kation
 ------------------------------------
 Structure from the checkpoint file:  "JID_301.chk"
 Charge =  1 Multiplicity = 2

 SCF Done:  E(UB3LYP) =  -835.790508623     A.U. after   23 cycles
 Normal termination of Gaussian 16 at Tue Dec  8 10:37:26 2020.
 Gaussian 16:  ES64L-G16RevA.03 25-Dec-2016

 ----------------------------------------------------------------------
 # B3LYP/6-311++G(d,p) empiricaldispersion=gd3bj scf=xqc pop=npa geom=c
 heck
 ----------------------------------------------------------------------

 -----------------------------------
 CID_147759129_JID_301_Energie_anion
 -----------------------------------
 Structure from the checkpoint file:  "JID_301.chk"
 Charge = -1 Multiplicity = 2

                         Standard orientation:
 ---------------------------------------------------------------------
 Center     Atomic      Atomic             Coordinates (Angstroms)
 Number     Number       Type             X           Y           Z
 ---------------------------------------------------------------------
      1          6           0       -2.007538    1.623177    0.056395
      2          7           0       -1.822700    0.275678    0.591464
      3          6           0       -2.065863   -0.807065   -0.362848
      4          6           0       -0.956291   -1.003746   -1.411207
      5          6           0        0.375478   -1.417950   -0.779913
      6         16           0        0.915548   -0.191998    0.469490
      7          7           0        1.146791    1.229442   -0.186893
      8          7           0        2.138388    1.069825   -1.260968
      9          8           0        1.926357   -0.869778    1.326289
     10          6           0       -0.666101    0.076357    1.399788
     11          1           0       -1.930842    2.341980    0.877928
     12          1           0       -3.016246    1.691296   -0.364303
     13          1           0       -1.268631    1.905361   -0.703610
     14          1           0       -2.192256   -1.737141    0.209719
     15          1           0       -3.019524   -0.603444   -0.860732
     16          1           0       -0.814057   -0.079856   -1.981416
     17          1           0       -1.261385   -1.779232   -2.125736
     18          1           0        1.193987   -1.453228   -1.502900
     19          1           0        0.313115   -2.376388   -0.255723
     20          1           0        1.827703    1.718463   -1.982669
     21          1           0        3.013247    1.457089   -0.904196
     22          1           0       -0.470838    0.931640    2.050622
     23          1           0       -0.749360   -0.835597    2.002358
 ---------------------------------------------------------------------

 SCF Done:  E(UB3LYP) =  -836.069279898     A.U. after   26 cycles

 The electronic state is 2-A.
 Alpha  occ. eigenvalues --  -88.90310 -18.99822 -14.22357 -14.22172 -14.19947
 Alpha  occ. eigenvalues --  -10.13645 -10.09840 -10.09684 -10.08261 -10.07349
 Alpha  occ. eigenvalues --   -7.97285  -5.93472  -5.93376  -5.93359  -0.95257
 Alpha  occ. eigenvalues --   -0.84846  -0.83703  -0.72026  -0.68950  -0.63356
 Alpha  occ. eigenvalues --   -0.60962  -0.54440  -0.51588  -0.45771  -0.40662
 Alpha  occ. eigenvalues --   -0.39339  -0.38697  -0.38355  -0.36389  -0.36014
 Alpha  occ. eigenvalues --   -0.33127  -0.32105  -0.31247  -0.29062  -0.28569
 Alpha  occ. eigenvalues --   -0.27557  -0.26704  -0.25650  -0.24561  -0.21272
 Alpha  occ. eigenvalues --   -0.19475  -0.14310  -0.12308  -0.11545   0.04622
 Alpha virt. eigenvalues --    0.07086   0.07773   0.08365   0.09573   0.10354
 Alpha virt. eigenvalues --    0.10709   0.11122   0.11684   0.12733   0.13686
 Alpha virt. eigenvalues --    0.13890   0.14307   0.15140   0.15306   0.16086

  Beta  occ. eigenvalues --  -88.90309 -18.99820 -14.22359 -14.22143 -14.19937
  Beta  occ. eigenvalues --  -10.13630 -10.09813 -10.09644 -10.08220 -10.07308
  Beta  occ. eigenvalues --   -7.97285  -5.93471  -5.93376  -5.93359  -0.95250
  Beta  occ. eigenvalues --   -0.84830  -0.83680  -0.71985  -0.68895  -0.63309
  Beta  occ. eigenvalues --   -0.60892  -0.54363  -0.51532  -0.45693  -0.40621
  Beta  occ. eigenvalues --   -0.39308  -0.38655  -0.38320  -0.36354  -0.35971
  Beta  occ. eigenvalues --   -0.33095  -0.32048  -0.31198  -0.29021  -0.28525
  Beta  occ. eigenvalues --   -0.27502  -0.26657  -0.25608  -0.24517  -0.21255
  Beta  occ. eigenvalues --   -0.19453  -0.14285  -0.12285  -0.11519
  Beta virt. eigenvalues --    0.07144   0.07839   0.08734   0.09199   0.10294
  Beta virt. eigenvalues --    0.10935   0.11199   0.11739   0.11955   0.13218
  Beta virt. eigenvalues --    0.14203   0.14321   0.14830   0.15426   0.15516

 Mulliken charges and spin densities:
               1          2
     1  C    1.081539  -1.466363
     2  N   -0.129844   0.251998
     3  C    1.280165  -1.659397
     4  C   -0.470179   0.321889
     5  C   -0.332446  -0.375529
     6  S    1.359597  -1.084429
     7  N   -0.351623   0.022002
     8  N   -0.390890   0.098315
     9  O   -0.122697   0.039380
    10  C   -0.602903  -0.143531
    11  H   -0.107459   0.248486
    12  H   -0.441431   0.589114
    13  H   -0.164042   0.352053
    14  H   -0.435194   0.610803
    15  H   -0.523626   0.708372
    16  H    0.154563   0.031679
    17  H   -1.297235   1.503182
    18  H    0.080775   0.185364
    19  H    0.052455   0.177880
    20  H   -0.051835   0.295413
    21  H    0.176474   0.053995
    22  H    0.138615   0.099945
    23  H    0.097221   0.139379
 Sum of Mulliken charges =  -1.00000   1.00000

 Dipole moment (field-independent basis, Debye):
    X=              3.8734    Y=              1.8994    Z=              3.5451  Tot=              5.5838
 Quadrupole moment (field-independent basis, Debye-Ang):
   XX=           -123.4896   YY=           -111.2943   ZZ=           -106.2319
   XY=             -1.5779   XZ=            -12.2903   YZ=             -3.7863

 Summary of Natural Population Analysis:

                                       Natural Population
                Natural  -----------------------------------------------
    Atom  No    Charge         Core      Valence    Rydberg      Total
 -----------------------------------------------------------------------
      C    1   -0.17699      0.99962     2.16853    0.00884     3.17699
      N    2   -0.27445      0.99973     2.75853    0.01619     3.77445
      C    3   -0.08344      0.99960     2.07066    0.01318     3.08344
      C    4   -0.21312      0.99962     2.20230    0.01121     3.21312
      C    5   -0.28313      0.99959     2.27080    0.01274     3.28313
      S    6    0.90353      4.99912     2.01455    0.08280     7.09647
      N    7   -0.40463      0.99981     2.89081    0.01402     3.90463
      N    8   -0.34426      0.99977     2.83240    0.01209     3.84426
      O    9   -0.47844      0.99992     3.47305    0.00547     4.47844
      C   10   -0.15675      0.99957     2.14203    0.01515     3.15675
      H   11    0.09399      0.00000     0.40474    0.00127     0.40601
      H   12    0.09685      0.00000     0.40166    0.00149     0.40315
      H   13    0.09809      0.00000     0.39982    0.00209     0.40191
      H   14    0.09548      0.00000     0.40231    0.00221     0.40452
      H   15    0.10600      0.00000     0.39090    0.00310     0.39400
      H   16    0.10588      0.00000     0.39165    0.00246     0.39412
      H   17    0.11176      0.00000     0.38382    0.00442     0.38824
      H   18    0.12522      0.00000     0.37322    0.00156     0.37478
      H   19    0.11255      0.00000     0.38609    0.00136     0.38745
      H   20    0.17504      0.00000     0.32290    0.00206     0.32496
      H   21    0.16924      0.00000     0.32874    0.00202     0.33076
      H   22    0.11400      0.00000     0.38453    0.00147     0.38600
      H   23    0.10760      0.00000     0.39111    0.00130     0.39240
 =======================================================================
   * Total *   -0.00000     13.99633    29.78516    0.21851    44.00000

 Normal termination of Gaussian 16 at Tue Dec  8 10:44:45 2020.
