 Gaussian 16, Revision A.03,

 -----------------------------------------------------------
 # opt freq B3LYP/6-31G(d) empiricaldispersion=gd3bj scf=xqc
 -----------------------------------------------------------

 ------------------------------
 CID_76442404_JID_2182_neutraal
 ------------------------------
 Symbolic Z-matrix:
 Charge =  0 Multiplicity = 1

 SCF Done:  E(RB3LYP) =  -594.384287860     A.U. after   14 cycles
 SCF Done:  E(RB3LYP) =  -594.386441642     A.U. after   12 cycles
 SCF Done:  E(RB3LYP) =  -594.386967488     A.U. after   13 cycles
 SCF Done:  E(RB3LYP) =  -594.388268282     A.U. after   12 cycles
 SCF Done:  E(RB3LYP) =  -594.389215503     A.U. after   13 cycles
 SCF Done:  E(RB3LYP) =  -594.389689598     A.U. after   13 cycles
 SCF Done:  E(RB3LYP) =  -594.390318519     A.U. after   12 cycles
 SCF Done:  E(RB3LYP) =  -594.390582166     A.U. after   12 cycles
 SCF Done:  E(RB3LYP) =  -594.390732722     A.U. after   12 cycles
 SCF Done:  E(RB3LYP) =  -594.390831218     A.U. after   11 cycles
 SCF Done:  E(RB3LYP) =  -594.390875170     A.U. after   11 cycles
 SCF Done:  E(RB3LYP) =  -594.390880939     A.U. after    9 cycles
 SCF Done:  E(RB3LYP) =  -594.390881467     A.U. after    8 cycles
 SCF Done:  E(RB3LYP) =  -594.390882074     A.U. after    8 cycles
 SCF Done:  E(RB3LYP) =  -594.390882238     A.U. after    7 cycles
 Optimization completed.
    -- Stationary point found.
 Normal termination of Gaussian 16 at Wed Dec  9 16:53:49 2020.

 --------------------------------------------------------------------
 #N Geom=AllCheck Guess=TCheck SCRF=Check GenChk RB3LYP/6-31G(d) Freq
 --------------------------------------------------------------------

 Structure from the checkpoint file:  "JID_2182.chk"
 ------------------------------
 CID_76442404_JID_2182_neutraal
 ------------------------------
 Charge =  0 Multiplicity = 1

 SCF Done:  E(RB3LYP) =  -594.390882238     A.U. after    1 cycles

  Exact polarizability: 104.722  -2.264  96.122  -7.375  -2.438  89.090
 Approx polarizability: 129.764  -3.613 135.940 -19.338  -0.406 148.651

                      1                      2                      3
                      A                      A                      A
 Frequencies --     30.7449                47.5525                53.0212
 Red. masses --      3.6892                 8.4289                 3.3168
 Frc consts  --      0.0021                 0.0112                 0.0055
 IR Inten    --      0.1157                 2.1637                 0.0938

                      4                      5                      6
                      A                      A                      A
 Frequencies --     71.4671                94.6150               185.9610
 Red. masses --      6.2415                 3.8073                 2.7045
 Frc consts  --      0.0188                 0.0201                 0.0551
 IR Inten    --      5.1788                 0.2560                 3.2162

                      7                      8                      9
                      A                      A                      A
 Frequencies --    212.7384               229.0616               236.0615
 Red. masses --      4.8651                 2.2948                 1.4484
 Frc consts  --      0.1297                 0.0709                 0.0476
 IR Inten    --      3.2622                 0.9935                 0.9444

                     10                     11                     12
                      A                      A                      A
 Frequencies --    255.3340               298.2372               317.7941
 Red. masses --      1.3141                 2.4478                 2.1226
 Frc consts  --      0.0505                 0.1283                 0.1263
 IR Inten    --      2.9235                 0.7938                 4.2967

                     13                     14                     15
                      A                      A                      A
 Frequencies --    381.2626               405.6889               428.0591
 Red. masses --      2.2782                 4.1370                 1.9055
 Frc consts  --      0.1951                 0.4012                 0.2057
 IR Inten    --      0.2136                 2.0496                 0.2068

                     16                     17                     18
                      A                      A                      A
 Frequencies --    500.5153               508.2233               531.9821
 Red. masses --      3.2711                 3.1631                 1.5351
 Frc consts  --      0.4828                 0.4814                 0.2560
 IR Inten    --      7.5537                 8.6194                93.7200

                     19                     20                     21
                      A                      A                      A
 Frequencies --    543.7693               585.8053               636.1813
 Red. masses --      2.6058                 1.5402                 1.8325
 Frc consts  --      0.4540                 0.3114                 0.4370
 IR Inten    --     47.4826               148.5838                60.4617

                     22                     23                     24
                      A                      A                      A
 Frequencies --    643.6358               714.6599               729.1679
 Red. masses --      2.0181                 1.9324                 2.5084
 Frc consts  --      0.4926                 0.5815                 0.7858
 IR Inten    --     74.7289                49.9839                 4.9140

                     25                     26                     27
                      A                      A                      A
 Frequencies --    763.6367               831.0144               884.1552
 Red. masses --      2.3094                 2.5348                 1.9652
 Frc consts  --      0.7935                 1.0314                 0.9052
 IR Inten    --     25.5459                15.5579                 5.1191

                     28                     29                     30
                      A                      A                      A
 Frequencies --    928.1300               941.2485               948.6915
 Red. masses --      2.2903                 1.2782                 2.8677
 Frc consts  --      1.1624                 0.6672                 1.5207
 IR Inten    --      0.3988                 0.9606                 0.7469

                     31                     32                     33
                      A                      A                      A
 Frequencies --    978.2722              1014.9773              1030.7785
 Red. masses --      1.4299                 1.7881                 1.9950
 Frc consts  --      0.8063                 1.0853                 1.2489
 IR Inten    --      0.5702                 1.9586                 5.0799

                     34                     35                     36
                      A                      A                      A
 Frequencies --   1108.3411              1129.5740              1155.0616
 Red. masses --      2.4592                 1.6997                 1.8952
 Frc consts  --      1.7799                 1.2778                 1.4897
 IR Inten    --      1.1529                 5.8682                51.6335

                     37                     38                     39
                      A                      A                      A
 Frequencies --   1175.1808              1206.6850              1213.7491
 Red. masses --      2.2123                 1.7365                 2.1454
 Frc consts  --      1.8001                 1.4897                 1.8622
 IR Inten    --      1.7288                18.8030               223.9761

                     40                     41                     42
                      A                      A                      A
 Frequencies --   1235.0697              1285.1119              1291.4956
 Red. masses --      1.4290                 1.3701                 1.4246
 Frc consts  --      1.2843                 1.3331                 1.4000
 IR Inten    --      7.4798                 3.7336                 1.8889

                     43                     44                     45
                      A                      A                      A
 Frequencies --   1327.4394              1353.4722              1376.3632
 Red. masses --      1.5540                 1.7719                 1.3494
 Frc consts  --      1.6134                 1.9124                 1.5061
 IR Inten    --     50.3381                70.6814                13.4469

                     46                     47                     48
                      A                      A                      A
 Frequencies --   1386.5507              1399.3763              1414.9038
 Red. masses --      1.3354                 2.7625                 1.4799
 Frc consts  --      1.5127                 3.1872                 1.7456
 IR Inten    --     16.4978                41.4870                 0.5115

                     49                     50                     51
                      A                      A                      A
 Frequencies --   1419.8831              1430.6189              1450.1362
 Red. masses --      1.4200                 1.2816                 1.2354
 Frc consts  --      1.6867                 1.5454                 1.5307
 IR Inten    --      3.5306                 4.2561                 4.0924

                     52                     53                     54
                      A                      A                      A
 Frequencies --   1508.0900              1516.2684              1524.2639
 Red. masses --      1.0766                 1.0604                 1.0513
 Frc consts  --      1.4426                 1.4363                 1.4391
 IR Inten    --      7.8683                 0.5123                 7.3799

                     55                     56                     57
                      A                      A                      A
 Frequencies --   1530.2655              1536.0658              1542.7331
 Red. masses --      1.0801                 1.0566                 1.0490
 Frc consts  --      1.4903                 1.4689                 1.4710
 IR Inten    --      5.3311                 2.3943                 7.5427

                     58                     59                     60
                      A                      A                      A
 Frequencies --   1654.7068              1806.9918              1815.7523
 Red. masses --      1.2349                 8.6631                 9.4729
 Frc consts  --      1.9922                16.6661                18.4012
 IR Inten    --    147.0130               135.5909               393.0674

                     61                     62                     63
                      A                      A                      A
 Frequencies --   3006.7126              3032.9989              3036.9160
 Red. masses --      1.0815                 1.0664                 1.0365
 Frc consts  --      5.7606                 5.7797                 5.6322
 IR Inten    --     15.6061                27.3004                33.4948

                     64                     65                     66
                      A                      A                      A
 Frequencies --   3042.4363              3067.2553              3081.9938
 Red. masses --      1.0400                 1.0813                 1.0633
 Frc consts  --      5.6720                 5.9936                 5.9510
 IR Inten    --     38.7662                 3.4943                17.0003

                     67                     68                     69
                      A                      A                      A
 Frequencies --   3100.0520              3104.7321              3109.1597
 Red. masses --      1.1012                 1.0972                 1.1000
 Frc consts  --      6.2355                 6.2315                 6.2649
 IR Inten    --      5.3188                30.5613                24.7454

                     70                     71                     72
                      A                      A                      A
 Frequencies --   3110.2960              3114.0584              3127.1872
 Red. masses --      1.0986                 1.1009                 1.1020
 Frc consts  --      6.2619                 6.2898                 6.3497
 IR Inten    --     64.3452                43.7200                23.2692

                     73                     74                     75
                      A                      A                      A
 Frequencies --   3542.3732              3671.5146              3678.4381
 Red. masses --      1.0472                 1.1017                 1.0644
 Frc consts  --      7.7425                 8.7502                 8.4855
 IR Inten    --     53.6274                67.7277                52.2692

 - Thermochemistry -
 -------------------
 Temperature   298.150 Kelvin.  Pressure   1.00000 Atm.
 Atom     1 has atomic number  6 and mass  12.00000

 Molecular mass:   173.10519 amu.
 Principal axes and moments of inertia in atomic units:
                           1         2         3
     Eigenvalues --  1436.307613190.500613806.71152
           X            0.99991   0.01262   0.00472
           Y           -0.01252   0.99970  -0.02110
           Z           -0.00498   0.02104   0.99977
 This molecule is an asymmetric top.
 Rotational symmetry number  1.
 Warning -- assumption of classical behavior for rotation
           may cause significant error
 Rotational temperatures (Kelvin)      0.06030     0.02715     0.02275
 Rotational constants (GHZ):           1.25651     0.56566     0.47409
 Zero-point vibrational energy     613580.9 (Joules/Mol)
                                  146.64936 (Kcal/Mol)
 Warning -- explicit consideration of  20 degrees of freedom as
           vibrations may cause significant error
 Vibrational temperatures:     44.24    68.42    76.29   102.83   136.13
          (Kelvin)            267.56   306.08   329.57   339.64   367.37
                              429.10   457.23   548.55   583.70   615.88
                              720.13   731.22   765.40   782.36   842.84
                              915.32   926.05  1028.24  1049.11  1098.70
                             1195.64  1272.10  1335.37  1354.25  1364.96
                             1407.52  1460.33  1483.06  1594.66  1625.21
                             1661.88  1690.82  1736.15  1746.31  1776.99
                             1848.99  1858.17  1909.89  1947.34  1980.28
                             1994.94  2013.39  2035.73  2042.90  2058.34
                             2086.42  2169.81  2181.57  2193.08  2201.71
                             2210.06  2219.65  2380.75  2599.86  2612.46
                             4325.99  4363.81  4369.44  4377.39  4413.10
                             4434.30  4460.28  4467.02  4473.39  4475.02
                             4480.44  4499.32  5096.68  5282.49  5292.45

 Zero-point correction=                           0.233701 (Hartree/Particle)
 Thermal correction to Energy=                    0.247187
 Thermal correction to Enthalpy=                  0.248131
 Thermal correction to Gibbs Free Energy=         0.192529
 Sum of electronic and zero-point Energies=           -594.157182
 Sum of electronic and thermal Energies=              -594.143696
 Sum of electronic and thermal Enthalpies=            -594.142751
 Sum of electronic and thermal Free Energies=         -594.198353

                     E (Thermal)             CV                S
                      KCal/Mol        Cal/Mol-Kelvin    Cal/Mol-Kelvin
 Total                  155.112             49.520            117.023
 Electronic               0.000              0.000              0.000
 Translational            0.889              2.981             41.354
 Rotational               0.889              2.981             31.234
 Vibrational            153.334             43.558             44.435
 Vibration     1          0.594              1.984              5.781
 Vibration     2          0.595              1.979              4.917
 Vibration     3          0.596              1.976              4.701
 Vibration     4          0.598              1.968              4.113
 Vibration     5          0.603              1.953              3.562
 Vibration     6          0.632              1.859              2.268
 Vibration     7          0.644              1.822              2.020
 Vibration     8          0.652              1.797              1.886
 Vibration     9          0.655              1.786              1.832
 Vibration    10          0.666              1.754              1.693
 Vibration    11          0.691              1.677              1.427
 Vibration    12          0.704              1.640              1.321
 Vibration    13          0.751              1.510              1.034
 Vibration    14          0.771              1.458              0.942
 Vibration    15          0.790              1.409              0.865
 Vibration    16          0.856              1.249              0.657
 Vibration    17          0.863              1.232              0.638
 Vibration    18          0.887              1.179              0.583
 Vibration    19          0.899              1.153              0.557
 Vibration    20          0.943              1.062              0.475

                           ! Non-Optimized Parameters !
 Normal termination of Gaussian 16 at Wed Dec  9 17:00:01 2020.

 ----------------------------------------------------------------------
 # B3LYP/6-311++G(d,p) empiricaldispersion=gd3bj scf=xqc pop=npa geom=c
 heck
 ----------------------------------------------------------------------

 --------------------------------------
 CID_76442404_JID_2182_Energie_neutraal
 --------------------------------------
 Structure from the checkpoint file:  "JID_2182.chk"
 Charge =  0 Multiplicity = 1

 SCF Done:  E(RB3LYP) =  -594.582253923     A.U. after   14 cycles
 Normal termination of Gaussian 16 at Wed Dec  9 17:02:55 2020.

 ----------------------------------------------------------------------
 # B3LYP/6-311++G(d,p) empiricaldispersion=gd3bj scf=xqc pop=npa geom=c
 heck
 ----------------------------------------------------------------------

 ------------------------------------
 CID_76442404_JID_2182_Energie_kation
 ------------------------------------
 Structure from the checkpoint file:  "JID_2182.chk"
 Charge =  1 Multiplicity = 2

 SCF Done:  E(UB3LYP) =  -594.233057729     A.U. after   29 cycles
 Normal termination of Gaussian 16 at Wed Dec  9 17:10:50 2020.
 Gaussian 16:  ES64L-G16RevA.03 25-Dec-2016

 ----------------------------------------------------------------------
 # B3LYP/6-311++G(d,p) empiricaldispersion=gd3bj scf=xqc pop=npa geom=c
 heck
 ----------------------------------------------------------------------

 -----------------------------------
 CID_76442404_JID_2182_Energie_anion
 -----------------------------------
 Structure from the checkpoint file:  "JID_2182.chk"
 Charge = -1 Multiplicity = 2

                         Standard orientation:
 ---------------------------------------------------------------------
 Center     Atomic      Atomic             Coordinates (Angstroms)
 Number     Number       Type             X           Y           Z
 ---------------------------------------------------------------------
      1          6           0       -2.579789   -1.537807   -0.744386
      2          6           0       -2.395258   -0.055367   -0.395979
      3          6           0       -3.750811    0.660306   -0.340927
      4          6           0       -1.641877    0.149477    0.930882
      5          6           0       -0.263241   -0.520377    1.040130
      6          6           0        0.722095   -0.102535   -0.056095
      7          6           0        1.143461    1.388560    0.070585
      8          8           0        0.803258    2.081124    1.015823
      9          7           0        1.866603    1.852645   -0.988970
     10          6           0        1.977800   -0.953272   -0.159440
     11          8           0        2.787398   -0.863765   -1.064839
     12          8           0        2.134361   -1.824612    0.855114
     13          1           0       -3.120203   -2.058660    0.056752
     14          1           0       -1.622981   -2.052560   -0.886681
     15          1           0       -3.158483   -1.655592   -1.667754
     16          1           0       -1.813833    0.414364   -1.203874
     17          1           0       -4.388748    0.223162    0.437993
     18          1           0       -3.627768    1.725056   -0.112229
     19          1           0       -4.284487    0.577306   -1.294838
     20          1           0       -1.526567    1.221794    1.115739
     21          1           0       -2.267186   -0.243192    1.745438
     22          1           0        0.173156   -0.275087    2.012500
     23          1           0       -0.372311   -1.608613    1.008749
     24          1           0        0.256783   -0.198052   -1.044818
     25          1           0        2.357654    1.175843   -1.562991
     26          1           0        2.284215    2.767358   -0.877402
     27          1           0        2.970117   -2.297536    0.678810
 ---------------------------------------------------------------------

 SCF Done:  E(UB3LYP) =  -594.566231913     A.U. after   33 cycles
 SCF Done:  E(UB3LYP) =  -594.570510669     a.u. after   10 cycles

 The electronic state is 2-A.
 Alpha  occ. eigenvalues --  -19.07234 -19.02069 -19.00182 -14.23390 -10.21587
 Alpha  occ. eigenvalues --  -10.18714 -10.10246 -10.07631 -10.06907 -10.06425
 Alpha  occ. eigenvalues --  -10.06267 -10.05932  -1.01626  -0.95080  -0.92565
 Alpha  occ. eigenvalues --   -0.81315  -0.72709  -0.69287  -0.61761  -0.58884
 Alpha  occ. eigenvalues --   -0.53850  -0.52717  -0.48146  -0.45891  -0.43730
 Alpha  occ. eigenvalues --   -0.41026  -0.39878  -0.39297  -0.36806  -0.34870
 Alpha  occ. eigenvalues --   -0.34404  -0.33332  -0.32075  -0.31187  -0.30617
 Alpha  occ. eigenvalues --   -0.29181  -0.28660  -0.27359  -0.26563  -0.25738
 Alpha  occ. eigenvalues --   -0.23214  -0.23155  -0.22475  -0.21677  -0.19065
 Alpha  occ. eigenvalues --   -0.18396  -0.16736   0.04462
 Alpha virt. eigenvalues --    0.06452   0.06902   0.07400   0.08526   0.08633
 Alpha virt. eigenvalues --    0.10192   0.10716   0.10920   0.11576   0.11817
 Alpha virt. eigenvalues --    0.12097   0.12684   0.13058   0.14197   0.14943

  Beta  occ. eigenvalues --  -19.07158 -19.02047 -19.00175 -14.23357 -10.21581
  Beta  occ. eigenvalues --  -10.18713 -10.10217 -10.07619 -10.06895 -10.06408
  Beta  occ. eigenvalues --  -10.06262 -10.05901  -1.01524  -0.95064  -0.92487
  Beta  occ. eigenvalues --   -0.81269  -0.72678  -0.69241  -0.61717  -0.58832
  Beta  occ. eigenvalues --   -0.53744  -0.52655  -0.48076  -0.45846  -0.43675
  Beta  occ. eigenvalues --   -0.40985  -0.39834  -0.39241  -0.36769  -0.34831
  Beta  occ. eigenvalues --   -0.34367  -0.33301  -0.32024  -0.31154  -0.30578
  Beta  occ. eigenvalues --   -0.29154  -0.28621  -0.27331  -0.26534  -0.25708
  Beta  occ. eigenvalues --   -0.23169  -0.23111  -0.22443  -0.21651  -0.19010
  Beta  occ. eigenvalues --   -0.18369  -0.16713
  Beta virt. eigenvalues --    0.06639   0.07345   0.07605   0.08190   0.08850
  Beta virt. eigenvalues --    0.09231   0.10481   0.10985   0.11182   0.11683
  Beta virt. eigenvalues --    0.11975   0.12466   0.13042   0.13186   0.14360

 Mulliken charges and spin densities:
               1          2
     1  C    0.956683  -1.637890
     2  C   -0.879317   1.240851
     3  C   -0.236511  -0.361743
     4  C   -0.023892  -0.437004
     5  C    0.704463  -1.369008
     6  C    1.431579  -1.035842
     7  C   -0.331038   0.048728
     8  O   -0.332581   0.010868
     9  N   -0.287022   0.049489
    10  C   -0.304783   0.291203
    11  O   -0.253840   0.010425
    12  O   -0.163387   0.040727
    13  H   -0.021986   0.159655
    14  H   -0.252124   0.402191
    15  H   -0.256101   0.392740
    16  H   -0.089646   0.221208
    17  H    0.028705   0.092802
    18  H   -0.029304   0.164492
    19  H   -0.131504   0.270329
    20  H    0.246174  -0.075895
    21  H    0.061520   0.069167
    22  H    0.097772   0.149045
    23  H    0.209014  -0.026692
    24  H   -0.305165   0.643268
    25  H    0.178544   0.075030
    26  H   -0.195870   0.484756
    27  H   -0.820385   1.127098
 Sum of Mulliken charges =  -1.00000   1.00000

 Dipole moment (field-independent basis, Debye):
    X=             -3.4849    Y=              2.9819    Z=              0.9199  Tot=              4.6779
 Quadrupole moment (field-independent basis, Debye-Ang):
   XX=           -135.3074   YY=           -121.9686   ZZ=           -106.1379
   XY=              9.7195   XZ=             -8.2366   YZ=             -0.7105

 Summary of Natural Population Analysis:

                                       Natural Population
                Natural  -----------------------------------------------
    Atom  No    Charge         Core      Valence    Rydberg      Total
 -----------------------------------------------------------------------
      C    1   -0.28719      0.99965     2.28107    0.00646     3.28719
      C    2   -0.11834      0.99962     2.10894    0.00978     3.11834
      C    3   -0.27965      0.99965     2.27527    0.00473     3.27965
      C    4   -0.18803      0.99961     2.18071    0.00772     3.18803
      C    5   -0.19280      0.99962     2.18190    0.01128     3.19280
      C    6   -0.19690      0.99950     2.18469    0.01271     3.19690
      C    7    0.34746      0.99969     1.62847    0.02438     2.65254
      O    8   -0.31547      0.99987     3.30963    0.00597     4.31547
      N    9   -0.40338      0.99970     2.89608    0.00760     3.90338
      C   10    0.41706      0.99968     1.55799    0.02526     2.58294
      O   11   -0.31821      0.99987     3.31142    0.00692     4.31821
      O   12   -0.33527      0.99987     3.32832    0.00708     4.33527
      H   13    0.09467      0.00000     0.40441    0.00092     0.40533
      H   14    0.10151      0.00000     0.39730    0.00119     0.39849
      H   15    0.09970      0.00000     0.39926    0.00104     0.40030
      H   16    0.09174      0.00000     0.40597    0.00229     0.40826
      H   17    0.09354      0.00000     0.40550    0.00095     0.40646
      H   18    0.09859      0.00000     0.40052    0.00089     0.40141
      H   19    0.09824      0.00000     0.40085    0.00091     0.40176
      H   20    0.10731      0.00000     0.39146    0.00123     0.39269
      H   21    0.09387      0.00000     0.40515    0.00098     0.40613
      H   22    0.11012      0.00000     0.38874    0.00114     0.38988
      H   23    0.10546      0.00000     0.39311    0.00143     0.39454
      H   24    0.12464      0.00000     0.37300    0.00236     0.37536
      H   25    0.20707      0.00000     0.29051    0.00241     0.29293
      H   26    0.19348      0.00000     0.30413    0.00239     0.30652
      H   27    0.25077      0.00000     0.20905    0.04018     0.24923
 =======================================================================
   * Total *    0.00000     11.99633    34.81346    0.19020    47.00000

 Normal termination of Gaussian 16 at Wed Dec  9 18:08:07 2020.
