 Gaussian 16, Revision A.03,

 -----------------------------------------------------------
 # opt freq B3LYP/6-31G(d) empiricaldispersion=gd3bj scf=xqc
 -----------------------------------------------------------

 ------------------------------
 CID_64232636_JID_8579_neutraal
 ------------------------------
 Symbolic Z-matrix:
 Charge =  0 Multiplicity = 1

 SCF Done:  E(RB3LYP) =  -766.009241637     A.U. after   14 cycles
 SCF Done:  E(RB3LYP) =  -766.015697745     A.U. after   12 cycles
 SCF Done:  E(RB3LYP) =  -766.016019815     A.U. after   12 cycles
 SCF Done:  E(RB3LYP) =  -766.016367471     A.U. after   12 cycles
 SCF Done:  E(RB3LYP) =  -766.016446161     A.U. after   11 cycles
 SCF Done:  E(RB3LYP) =  -766.016516360     A.U. after   11 cycles
 SCF Done:  E(RB3LYP) =  -766.016559303     A.U. after   11 cycles
 SCF Done:  E(RB3LYP) =  -766.016586702     A.U. after   11 cycles
 SCF Done:  E(RB3LYP) =  -766.016606795     A.U. after   11 cycles
 SCF Done:  E(RB3LYP) =  -766.016621151     A.U. after   11 cycles
 SCF Done:  E(RB3LYP) =  -766.016690707     A.U. after   11 cycles
 SCF Done:  E(RB3LYP) =  -766.016691186     A.U. after    9 cycles
 SCF Done:  E(RB3LYP) =  -766.016691236     A.U. after    7 cycles
 SCF Done:  E(RB3LYP) =  -766.016691210     A.U. after    7 cycles
 SCF Done:  E(RB3LYP) =  -766.016691233     A.U. after    7 cycles
 Optimization completed.
    -- Stationary point found.
 Normal termination of Gaussian 16 at Fri Dec 11 21:24:17 2020.

 --------------------------------------------------------------------
 #N Geom=AllCheck Guess=TCheck SCRF=Check GenChk RB3LYP/6-31G(d) Freq
 --------------------------------------------------------------------

 Structure from the checkpoint file:  "JID_8579.chk"
 ------------------------------
 CID_64232636_JID_8579_neutraal
 ------------------------------
 Charge =  0 Multiplicity = 1

 SCF Done:  E(RB3LYP) =  -766.016691233     A.U. after    1 cycles

  Exact polarizability: 206.216  16.139 157.757   4.705   7.241 135.138
 Approx polarizability: 288.606  31.070 264.409  17.429  21.978 228.198

                      1                      2                      3
                      A                      A                      A
 Frequencies --     18.9837                38.6224                65.4197
 Red. masses --      4.0809                 5.0776                 4.6584
 Frc consts  --      0.0009                 0.0045                 0.0117
 IR Inten    --      0.8254                 0.4272                 0.4563

                      4                      5                      6
                      A                      A                      A
 Frequencies --     89.7088               108.8900               153.2955
 Red. masses --      1.2747                 3.2749                 3.2190
 Frc consts  --      0.0060                 0.0229                 0.0446
 IR Inten    --      3.0729                 2.2267                 2.1241

                      7                      8                      9
                      A                      A                      A
 Frequencies --    167.7693               210.2004               242.4656
 Red. masses --      4.0155                 3.6204                 2.2743
 Frc consts  --      0.0666                 0.0942                 0.0788
 IR Inten    --      2.6974                 1.4924                 1.0016

                     10                     11                     12
                      A                      A                      A
 Frequencies --    249.2004               263.5390               291.3922
 Red. masses --      3.2470                 2.7991                 1.8759
 Frc consts  --      0.1188                 0.1145                 0.0938
 IR Inten    --      8.4573                 7.1698                16.2645

                     13                     14                     15
                      A                      A                      A
 Frequencies --    322.3957               397.4468               420.4477
 Red. masses --      2.9548                 2.2207                 2.9943
 Frc consts  --      0.1809                 0.2067                 0.3119
 IR Inten    --      7.8033                12.6719                 2.2682

                     16                     17                     18
                      A                      A                      A
 Frequencies --    445.6588               459.4751               485.4818
 Red. masses --      2.7897                 3.0275                 3.3138
 Frc consts  --      0.3264                 0.3766                 0.4602
 IR Inten    --     46.2211                 4.1683                24.2168

                     19                     20                     21
                      A                      A                      A
 Frequencies --    502.4265               511.5038               536.3424
 Red. masses --      2.6459                 3.3443                 4.5252
 Frc consts  --      0.3935                 0.5155                 0.7670
 IR Inten    --     22.6774                 5.4747                 1.0874

                     22                     23                     24
                      A                      A                      A
 Frequencies --    551.2892               562.1029               598.3310
 Red. masses --      4.7159                 4.6830                 3.2202
 Frc consts  --      0.8444                 0.8718                 0.6792
 IR Inten    --      0.3749                 2.8169               102.6799

                     25                     26                     27
                      A                      A                      A
 Frequencies --    608.3063               646.5528               661.6728
 Red. masses --      2.8408                 4.3903                 2.0161
 Frc consts  --      0.6194                 1.0813                 0.5201
 IR Inten    --     76.5756                 1.6234               176.7205

                     28                     29                     30
                      A                      A                      A
 Frequencies --    700.4584               723.9795               732.8470
 Red. masses --      5.5398                 1.8079                 4.0314
 Frc consts  --      1.6014                 0.5583                 1.2757
 IR Inten    --     12.8868                 3.5791                 4.7492

                     31                     32                     33
                      A                      A                      A
 Frequencies --    761.8119               763.2407               777.9436
 Red. masses --      4.2091                 1.3209                 2.2997
 Frc consts  --      1.4392                 0.4534                 0.8200
 IR Inten    --      3.8680                51.6323                66.5099

                     34                     35                     36
                      A                      A                      A
 Frequencies --    806.6176               831.2699               834.3974
 Red. masses --      3.0924                 2.1222                 2.1540
 Frc consts  --      1.1855                 0.8640                 0.8836
 IR Inten    --      0.2933                 0.5824                 6.8823

                     37                     38                     39
                      A                      A                      A
 Frequencies --    858.8005               866.2822               930.3526
 Red. masses --      4.6817                 1.4250                 1.6662
 Frc consts  --      2.0344                 0.6300                 0.8497
 IR Inten    --     19.1329                 1.9125                 2.3880

                     40                     41                     42
                      A                      A                      A
 Frequencies --    935.8328               944.7626               961.3470
 Red. masses --      1.7204                 1.2365                 2.9258
 Frc consts  --      0.8877                 0.6502                 1.5931
 IR Inten    --      3.5422                 0.0983                 2.0235

                     43                     44                     45
                      A                      A                      A
 Frequencies --    969.5678              1013.1250              1045.2649
 Red. masses --      1.2314                 7.5619                 2.2749
 Frc consts  --      0.6821                 4.5730                 1.4644
 IR Inten    --      0.0315                67.8730                 5.6630

                     46                     47                     48
                      A                      A                      A
 Frequencies --   1050.5289              1065.1514              1075.8157
 Red. masses --      2.2104                 1.4565                 1.7283
 Frc consts  --      1.4372                 0.9736                 1.1786
 IR Inten    --      5.0360                 4.9595                11.8101

                     49                     50                     51
                      A                      A                      A
 Frequencies --   1099.9651              1123.1436              1149.8065
 Red. masses --      2.4093                 2.1211                 1.6254
 Frc consts  --      1.7175                 1.5764                 1.2661
 IR Inten    --      2.8963                15.2064                 5.1335

                     52                     53                     54
                      A                      A                      A
 Frequencies --   1176.5658              1186.8698              1206.6140
 Red. masses --      1.4995                 1.1609                 1.6407
 Frc consts  --      1.2230                 0.9635                 1.4074
 IR Inten    --     30.2827                14.0908                38.6665

                     55                     56                     57
                      A                      A                      A
 Frequencies --   1224.3581              1235.1459              1247.4358
 Red. masses --      2.1416                 1.6857                 1.3847
 Frc consts  --      1.8915                 1.5152                 1.2695
 IR Inten    --      8.0389                39.6318                49.1755

                     58                     59                     60
                      A                      A                      A
 Frequencies --   1255.6366              1283.4641              1316.3909
 Red. masses --      1.2363                 3.1276                 1.7120
 Frc consts  --      1.1484                 3.0355                 1.7479
 IR Inten    --      3.1767                64.9858               106.9454

                     61                     62                     63
                      A                      A                      A
 Frequencies --   1323.1242              1339.3558              1363.1471
 Red. masses --      1.5504                 3.8315                 2.9333
 Frc consts  --      1.5992                 4.0496                 3.2114
 IR Inten    --     16.1454                 5.3268                28.2979

                     64                     65                     66
                      A                      A                      A
 Frequencies --   1377.0228              1399.3120              1423.2851
 Red. masses --      4.2506                 1.6721                 1.4881
 Frc consts  --      4.7488                 1.9291                 1.7761
 IR Inten    --     11.3129                 8.9381                10.8606

                     67                     68                     69
                      A                      A                      A
 Frequencies --   1446.7741              1501.0903              1512.0046
 Red. masses --      1.2885                 1.7587                 1.6601
 Frc consts  --      1.5890                 2.3349                 2.2361
 IR Inten    --      0.9818                 9.8336                46.5263

                     70                     71                     72
                      A                      A                      A
 Frequencies --   1515.9471              1525.9211              1532.1693
 Red. masses --      1.9081                 1.8014                 1.7703
 Frc consts  --      2.5835                 2.4713                 2.4486
 IR Inten    --     25.8339                30.0444                91.1882

                     73                     74                     75
                      A                      A                      A
 Frequencies --   1541.1896              1542.5640              1573.3177
 Red. masses --      1.3838                 1.2191                 1.6367
 Frc consts  --      1.9365                 1.7091                 2.3871
 IR Inten    --     47.9832                 3.1232                32.8357

                     76                     77                     78
                      A                      A                      A
 Frequencies --   1656.2184              1659.2237              1663.3916
 Red. masses --      4.9102                 4.9880                 6.3022
 Frc consts  --      7.9356                 8.0907                10.2738
 IR Inten    --    140.2554                19.4674                18.2737

                     79                     80                     81
                      A                      A                      A
 Frequencies --   1671.2288              1697.1004              3022.2957
 Red. masses --      6.7895                 1.2077                 1.0463
 Frc consts  --     11.1727                 2.0494                 5.6311
 IR Inten    --     37.2323               130.3586                47.3149

                     82                     83                     84
                      A                      A                      A
 Frequencies --   3051.8965              3076.8116              3081.3541
 Red. masses --      1.0848                 1.0920                 1.0620
 Frc consts  --      5.9531                 6.0907                 5.9407
 IR Inten    --     19.1718                33.9305                63.8186

                     85                     86                     87
                      A                      A                      A
 Frequencies --   3111.5991              3138.4414              3176.0554
 Red. masses --      1.0977                 1.1078                 1.0868
 Frc consts  --      6.2617                 6.4290                 6.4591
 IR Inten    --     15.3956                25.8482                12.0732

                     88                     89                     90
                      A                      A                      A
 Frequencies --   3187.5146              3196.4696              3197.2801
 Red. masses --      1.0856                 1.0943                 1.0900
 Frc consts  --      6.4989                 6.5873                 6.5650
 IR Inten    --      1.3581                26.3782                14.1806

                     91                     92                     93
                      A                      A                      A
 Frequencies --   3211.3399              3222.3086              3275.6253
 Red. masses --      1.0949                 1.0946                 1.0900
 Frc consts  --      6.6527                 6.6965                 6.8905
 IR Inten    --     26.9979                10.7995                 1.6277

                     94                     95                     96
                      A                      A                      A
 Frequencies --   3553.3036              3608.8599              3652.3882
 Red. masses --      1.0480                 1.0757                 1.0968
 Frc consts  --      7.7963                 8.2542                 8.6209
 IR Inten    --      5.2231                 5.4026                 5.9898

 - Thermochemistry -
 -------------------
 Temperature   298.150 Kelvin.  Pressure   1.00000 Atm.
 Atom     1 has atomic number  6 and mass  12.00000

 Molecular mass:   240.12626 amu.
 Principal axes and moments of inertia in atomic units:
                           1         2         3
     Eigenvalues --  2136.872757158.997997328.63879
           X            0.99996   0.00804   0.00339
           Y           -0.00819   0.99879   0.04843
           Z           -0.00299  -0.04846   0.99882
 This molecule is an asymmetric top.
 Rotational symmetry number  1.
 Warning -- assumption of classical behavior for rotation
           may cause significant error
 Rotational temperatures (Kelvin)      0.04053     0.01210     0.01182
 Rotational constants (GHZ):           0.84457     0.25209     0.24626
 Zero-point vibrational energy     746413.8 (Joules/Mol)
                                  178.39718 (Kcal/Mol)
 Warning -- explicit consideration of  25 degrees of freedom as
           vibrations may cause significant error
 Vibrational temperatures:     27.31    55.57    94.12   129.07   156.67
          (Kelvin)            220.56   241.38   302.43   348.85   358.54
                              379.17   419.25   463.86   571.84   604.93
                              641.20   661.08   698.50   722.88   735.94
                              771.68   793.18   808.74   860.86   875.22
                              930.25   952.00  1007.80  1041.65  1054.40
                             1096.08  1098.13  1119.29  1160.54  1196.01
                             1200.51  1235.62  1246.39  1338.57  1346.45
                             1359.30  1383.16  1394.99  1457.66  1503.90
                             1511.48  1532.52  1547.86  1582.60  1615.95
                             1654.32  1692.82  1707.64  1736.05  1761.58
                             1777.10  1794.78  1806.58  1846.62  1893.99
                             1903.68  1927.03  1961.26  1981.23  2013.30
                             2047.79  2081.59  2159.73  2175.44  2181.11
                             2195.46  2204.45  2217.43  2219.41  2263.65
                             2382.93  2387.25  2393.25  2404.53  2441.75
                             4348.41  4391.00  4426.85  4433.38  4476.90
                             4515.52  4569.64  4586.12  4599.01  4600.17
                             4620.40  4636.18  4712.89  5112.41  5192.34
                             5254.97

 Zero-point correction=                           0.284294 (Hartree/Particle)
 Thermal correction to Energy=                    0.299785
 Thermal correction to Enthalpy=                  0.300729
 Thermal correction to Gibbs Free Energy=         0.240577
 Sum of electronic and zero-point Energies=           -765.732397
 Sum of electronic and thermal Energies=              -765.716906
 Sum of electronic and thermal Enthalpies=            -765.715962
 Sum of electronic and thermal Free Energies=         -765.776114

                     E (Thermal)             CV                S
                      KCal/Mol        Cal/Mol-Kelvin    Cal/Mol-Kelvin
 Total                  188.118             61.907            126.600
 Electronic               0.000              0.000              0.000
 Translational            0.889              2.981             42.329
 Rotational               0.889              2.981             33.083
 Vibrational            186.341             55.945             51.188
 Vibration     1          0.593              1.986              6.738
 Vibration     2          0.594              1.981              5.329
 Vibration     3          0.597              1.971              4.287
 Vibration     4          0.602              1.956              3.666
 Vibration     5          0.606              1.942              3.289
 Vibration     6          0.619              1.899              2.631
 Vibration     7          0.624              1.882              2.460
 Vibration     8          0.642              1.825              2.042
 Vibration     9          0.659              1.775              1.785
 Vibration    10          0.662              1.764              1.736
 Vibration    11          0.670              1.740              1.638
 Vibration    12          0.687              1.690              1.466
 Vibration    13          0.707              1.631              1.298
 Vibration    14          0.764              1.476              0.972
 Vibration    15          0.783              1.426              0.890
 Vibration    16          0.805              1.370              0.809
 Vibration    17          0.817              1.340              0.768
 Vibration    18          0.842              1.282              0.695
 Vibration    19          0.858              1.245              0.652
 Vibration    20          0.867              1.225              0.630
 Vibration    21          0.891              1.170              0.573
 Vibration    22          0.907              1.137              0.542
 Vibration    23          0.918              1.113              0.520
 Vibration    24          0.956              1.035              0.453
 Vibration    25          0.967              1.014              0.436

 Optimization completed.
    -- Stationary point found.
 Normal termination of Gaussian 16 at Fri Dec 11 21:39:16 2020.

 ----------------------------------------------------------------------
 # B3LYP/6-311++G(d,p) empiricaldispersion=gd3bj scf=xqc pop=npa geom=c
 heck
 ----------------------------------------------------------------------

 --------------------------------------
 CID_64232636_JID_8579_Energie_neutraal
 --------------------------------------
 Structure from the checkpoint file:  "JID_8579.chk"
 Charge =  0 Multiplicity = 1

 SCF Done:  E(RB3LYP) =  -766.227237169     A.U. after   15 cycles
 Normal termination of Gaussian 16 at Fri Dec 11 21:45:51 2020.

 ----------------------------------------------------------------------
 # B3LYP/6-311++G(d,p) empiricaldispersion=gd3bj scf=xqc pop=npa geom=c
 heck
 ----------------------------------------------------------------------

 ------------------------------------
 CID_64232636_JID_8579_Energie_kation
 ------------------------------------
 Structure from the checkpoint file:  "JID_8579.chk"
 Charge =  1 Multiplicity = 2

 SCF Done:  E(UB3LYP) =  -765.968130390     A.U. after   24 cycles
 Normal termination of Gaussian 16 at Fri Dec 11 22:00:56 2020.
 Gaussian 16:  ES64L-G16RevA.03 25-Dec-2016

 ----------------------------------------------------------------------
 # B3LYP/6-311++G(d,p) empiricaldispersion=gd3bj scf=xqc pop=npa geom=c
 heck
 ----------------------------------------------------------------------

 -----------------------------------
 CID_64232636_JID_8579_Energie_anion
 -----------------------------------
 Structure from the checkpoint file:  "JID_8579.chk"
 Charge = -1 Multiplicity = 2

                         Standard orientation:
 ---------------------------------------------------------------------
 Center     Atomic      Atomic             Coordinates (Angstroms)
 Number     Number       Type             X           Y           Z
 ---------------------------------------------------------------------
      1          6           0        3.057845    1.756424    0.891219
      2          6           0        2.555779    0.467304    0.285832
      3          6           0        3.418401   -0.631668    0.113257
      4          6           0        2.924112   -1.847907   -0.387257
      5          6           0        1.585027   -1.957329   -0.729032
      6          6           0        0.717833   -0.873708   -0.607404
      7          6           0        1.201757    0.346610   -0.112465
      8          7           0        0.377181    1.474803    0.037815
      9          6           0       -1.008409    1.554705   -0.396372
     10          6           0       -1.324079    1.210860   -1.892458
     11          8           0       -2.308356    0.147340   -1.907271
     12          6           0       -2.672000   -0.112734   -0.614967
     13          6           0       -3.626832   -1.053380   -0.244746
     14          6           0       -3.849503   -1.234549    1.124087
     15          6           0       -3.135728   -0.506571    2.082214
     16          6           0       -2.178231    0.432160    1.682325
     17          6           0       -1.958865    0.626182    0.326283
     18          7           0        4.790140   -0.523725    0.382770
     19          1           0        3.848638    1.583252    1.630550
     20          1           0        3.471537    2.451551    0.145787
     21          1           0        2.256483    2.274232    1.427692
     22          1           0        3.600300   -2.690016   -0.510571
     23          1           0        1.203086   -2.899483   -1.112747
     24          1           0       -0.313676   -0.987439   -0.904856
     25          1           0        0.868803    2.346912   -0.093107
     26          1           0       -1.292349    2.595745   -0.204426
     27          1           0       -0.436745    0.862367   -2.425651
     28          1           0       -1.754677    2.065812   -2.422292
     29          1           0       -4.164456   -1.624147   -0.994232
     30          1           0       -4.589754   -1.961731    1.446136
     31          1           0       -3.323258   -0.674114    3.138377
     32          1           0       -1.601643    0.991540    2.413612
     33          1           0        5.232210   -1.409641    0.595541
     34          1           0        5.048464    0.180506    1.061173
 ---------------------------------------------------------------------

 SCF Done:  E(UB3LYP) =  -766.220505855     A.U. after   33 cycles
 SCF Done:  E(UB3LYP) =  -766.220505854     a.u. after    1 cycles

 The electronic state is 2-A.
 Alpha  occ. eigenvalues --  -19.05660 -14.21770 -14.21534 -10.13175 -10.12662
 Alpha  occ. eigenvalues --  -10.11924 -10.10782 -10.10755 -10.08149 -10.07758
 Alpha  occ. eigenvalues --  -10.07735 -10.07572 -10.07339 -10.06849 -10.06820
 Alpha  occ. eigenvalues --  -10.06366 -10.05726 -10.05300  -0.97644  -0.83482
 Alpha  occ. eigenvalues --   -0.81627  -0.75852  -0.72878  -0.68623  -0.66045
 Alpha  occ. eigenvalues --   -0.65045  -0.63230  -0.61549  -0.58178  -0.54228
 Alpha  occ. eigenvalues --   -0.51905  -0.49695  -0.49157  -0.48046  -0.43754
 Alpha  occ. eigenvalues --   -0.42609  -0.40369  -0.39860  -0.39724  -0.38118
 Alpha  occ. eigenvalues --   -0.37325  -0.35553  -0.34701  -0.34165  -0.32425
 Alpha  occ. eigenvalues --   -0.31500  -0.31227  -0.30676  -0.30061  -0.29411
 Alpha  occ. eigenvalues --   -0.28911  -0.27761  -0.26811  -0.26666  -0.25160
 Alpha  occ. eigenvalues --   -0.24859  -0.23999  -0.22592  -0.22003  -0.18029
 Alpha  occ. eigenvalues --   -0.15949  -0.12645  -0.11020  -0.09763   0.03959
 Alpha virt. eigenvalues --    0.05813   0.06923   0.07350   0.07690   0.08552
 Alpha virt. eigenvalues --    0.08945   0.09291   0.09509   0.09707   0.10084
 Alpha virt. eigenvalues --    0.10623   0.11179   0.11231   0.11944   0.12579

  Beta  occ. eigenvalues --  -19.05660 -14.21728 -14.21491 -10.13183 -10.12648
  Beta  occ. eigenvalues --  -10.11904 -10.10780 -10.10753 -10.08081 -10.07729
  Beta  occ. eigenvalues --  -10.07680 -10.07590 -10.07289 -10.06845 -10.06819
  Beta  occ. eigenvalues --  -10.06315 -10.05721 -10.05300  -0.97636  -0.83421
  Beta  occ. eigenvalues --   -0.81568  -0.75769  -0.72841  -0.68543  -0.65984
  Beta  occ. eigenvalues --   -0.64985  -0.63153  -0.61504  -0.58117  -0.54160
  Beta  occ. eigenvalues --   -0.51826  -0.49652  -0.49109  -0.47990  -0.43685
  Beta  occ. eigenvalues --   -0.42562  -0.40318  -0.39800  -0.39673  -0.38078
  Beta  occ. eigenvalues --   -0.37283  -0.35520  -0.34664  -0.34123  -0.32384
  Beta  occ. eigenvalues --   -0.31449  -0.31189  -0.30633  -0.30001  -0.29350
  Beta  occ. eigenvalues --   -0.28825  -0.27699  -0.26768  -0.26632  -0.25131
  Beta  occ. eigenvalues --   -0.24821  -0.23964  -0.22477  -0.21964  -0.17991
  Beta  occ. eigenvalues --   -0.15578  -0.12509  -0.10989  -0.09735
  Beta virt. eigenvalues --    0.06472   0.06849   0.07127   0.07942   0.08140
  Beta virt. eigenvalues --    0.08637   0.09289   0.09433   0.09839   0.10127
  Beta virt. eigenvalues --    0.10228   0.10948   0.11275   0.11554   0.12009

 Mulliken charges and spin densities:
               1          2
     1  C    2.819807  -3.446304
     2  C   -1.215866   2.414918
     3  C   -0.264542  -0.864050
     4  C   -0.093448  -0.086471
     5  C    0.885055  -0.590307
     6  C    0.086680  -0.352341
     7  C   -1.383175   0.661552
     8  N    0.037157   0.040141
     9  C    0.796687  -0.697504
    10  C    0.261204  -0.771152
    11  O   -0.117703   0.000099
    12  C   -0.242670   0.111618
    13  C   -0.286863   0.062423
    14  C   -0.156877   0.000928
    15  C   -0.539511  -0.001782
    16  C   -0.256433   0.145351
    17  C    0.121577   0.289284
    18  N   -0.288744   0.052987
    19  H   -0.246024   0.361371
    20  H   -0.274797   0.478704
    21  H   -0.038071   0.197983
    22  H   -0.034051   0.152245
    23  H    0.169546  -0.015238
    24  H    0.147331  -0.038071
    25  H   -0.061817   0.359335
    26  H   -0.949511   1.205201
    27  H    0.179530   0.032462
    28  H   -0.259576   0.434855
    29  H    0.140565   0.011939
    30  H    0.131257   0.002261
    31  H    0.099561   0.039473
    32  H    0.016359   0.151716
    33  H   -0.064477   0.300812
    34  H   -0.118160   0.355562
 Sum of Mulliken charges =  -1.00000   1.00000

 Dipole moment (field-independent basis, Debye):
    X=             -4.6911    Y=             -6.1864    Z=             -0.5824  Tot=              7.7858
 Quadrupole moment (field-independent basis, Debye-Ang):
   XX=           -180.8642   YY=           -153.4867   ZZ=           -133.9823
   XY=              0.6972   XZ=             -7.3196   YZ=              0.7032

 Summary of Natural Population Analysis:

                                       Natural Population
                Natural  -----------------------------------------------
    Atom  No    Charge         Core      Valence    Rydberg      Total
 -----------------------------------------------------------------------
      C    1   -0.29940      0.99964     2.29320    0.00657     3.29940
      C    2   -0.05830      0.99945     2.04910    0.00975     3.05830
      C    3    0.09136      0.99945     1.89778    0.01141     2.90864
      C    4   -0.14430      0.99952     2.13455    0.01022     3.14430
      C    5   -0.08676      0.99958     2.07926    0.00792     3.08676
      C    6   -0.15006      0.99951     2.14167    0.00887     3.15006
      C    7    0.10040      0.99945     1.88863    0.01152     2.89960
      N    8   -0.31689      0.99967     2.80430    0.01293     3.81689
      C    9   -0.02648      0.99956     2.01089    0.01604     3.02648
      C   10   -0.01587      0.99957     2.00435    0.01195     3.01587
      O   11   -0.27685      0.99987     3.26952    0.00746     4.27685
      C   12    0.15848      0.99932     1.82711    0.01509     2.84152
      C   13   -0.12704      0.99951     2.11944    0.00809     3.12704
      C   14   -0.08590      0.99958     2.07734    0.00898     3.08590
      C   15   -0.12308      0.99958     2.11467    0.00883     3.12308
      C   16   -0.07579      0.99951     2.06615    0.01013     3.07579
      C   17   -0.04139      0.99944     2.03172    0.01023     3.04139
      N   18   -0.39736      0.99972     2.88769    0.00995     3.89736
      H   19    0.09939      0.00000     0.39898    0.00163     0.40061
      H   20    0.10569      0.00000     0.39307    0.00125     0.39431
      H   21    0.10899      0.00000     0.38956    0.00145     0.39101
      H   22    0.09416      0.00000     0.40461    0.00123     0.40584
      H   23    0.09550      0.00000     0.40361    0.00089     0.40450
      H   24    0.10495      0.00000     0.39298    0.00207     0.39505
      H   25    0.19543      0.00000     0.29963    0.00494     0.30457
      H   26    0.11417      0.00000     0.38029    0.00554     0.38583
      H   27    0.09556      0.00000     0.40322    0.00122     0.40444
      H   28    0.09138      0.00000     0.40717    0.00145     0.40862
      H   29    0.10206      0.00000     0.39676    0.00117     0.39794
      H   30    0.09499      0.00000     0.40424    0.00077     0.40501
      H   31    0.09774      0.00000     0.40152    0.00074     0.40226
      H   32    0.10516      0.00000     0.39384    0.00100     0.39484
      H   33    0.18241      0.00000     0.31566    0.00193     0.31759
      H   34    0.18764      0.00000     0.31003    0.00233     0.31236
 =======================================================================
   * Total *   -0.00000     17.99193    45.79254    0.21553    64.00000

 Normal termination of Gaussian 16 at Fri Dec 11 22:21:34 2020.
