 Gaussian 16, Revision A.03,

 -----------------------------------------------------------
 # opt freq B3LYP/6-31G(d) empiricaldispersion=gd3bj scf=xqc
 -----------------------------------------------------------

 ------------------------------
 CID_64953407_JID_4301_neutraal
 ------------------------------
 Symbolic Z-matrix:
 Charge =  0 Multiplicity = 1

 SCF Done:  E(RB3LYP) =  -953.780482063     A.U. after   15 cycles
 SCF Done:  E(RB3LYP) =  -953.784019045     A.U. after   12 cycles
 SCF Done:  E(RB3LYP) =  -953.784519349     A.U. after   12 cycles
 SCF Done:  E(RB3LYP) =  -953.784818738     A.U. after   12 cycles
 SCF Done:  E(RB3LYP) =  -953.784905642     A.U. after   10 cycles
 SCF Done:  E(RB3LYP) =  -953.784942977     A.U. after   10 cycles
 SCF Done:  E(RB3LYP) =  -953.784977054     A.U. after   10 cycles
 SCF Done:  E(RB3LYP) =  -953.785004640     A.U. after    9 cycles
 SCF Done:  E(RB3LYP) =  -953.785045394     A.U. after   10 cycles
 SCF Done:  E(RB3LYP) =  -953.785051550     A.U. after    9 cycles
 SCF Done:  E(RB3LYP) =  -953.785052021     A.U. after    8 cycles
 SCF Done:  E(RB3LYP) =  -953.785052179     A.U. after    7 cycles
 Optimization completed.
    -- Stationary point found.
 Normal termination of Gaussian 16 at Thu Dec 10 09:23:47 2020.

 --------------------------------------------------------------------
 #N Geom=AllCheck Guess=TCheck SCRF=Check GenChk RB3LYP/6-31G(d) Freq
 --------------------------------------------------------------------

 Structure from the checkpoint file:  "JID_4301.chk"
 ------------------------------
 CID_64953407_JID_4301_neutraal
 ------------------------------
 Charge =  0 Multiplicity = 1

 SCF Done:  E(RB3LYP) =  -953.785052179     A.U. after    1 cycles

  Exact polarizability: 151.665  -1.670 144.814 -12.705  -2.837 106.984
 Approx polarizability: 203.115   3.733 236.063 -31.690 -11.797 180.360

                      1                      2                      3
                      A                      A                      A
 Frequencies --     30.6333                61.5334                73.3393
 Red. masses --      3.8871                 3.7626                 3.8791
 Frc consts  --      0.0021                 0.0084                 0.0123
 IR Inten    --      0.1058                 0.3460                 0.3790

                      4                      5                      6
                      A                      A                      A
 Frequencies --    117.4575               123.9087               162.8884
 Red. masses --      1.1287                 3.9456                 2.8075
 Frc consts  --      0.0092                 0.0357                 0.0439
 IR Inten    --      0.1335                 0.0147                 0.4503

                      7                      8                      9
                      A                      A                      A
 Frequencies --    184.3552               205.2707               229.0317
 Red. masses --      3.4162                 1.4989                 2.0239
 Frc consts  --      0.0684                 0.0372                 0.0625
 IR Inten    --      2.3294                 0.0394                 0.0336

                     10                     11                     12
                      A                      A                      A
 Frequencies --    275.4395               307.3278               350.7775
 Red. masses --      3.0979                 2.4997                 2.9324
 Frc consts  --      0.1385                 0.1391                 0.2126
 IR Inten    --      4.7171                 5.0370                 8.0326

                     13                     14                     15
                      A                      A                      A
 Frequencies --    379.3695               389.2743               410.3275
 Red. masses --      3.3639                 2.0614                 1.8517
 Frc consts  --      0.2852                 0.1840                 0.1837
 IR Inten    --      1.6836                 2.5166                 2.6374

                     16                     17                     18
                      A                      A                      A
 Frequencies --    455.6804               483.1467               520.2433
 Red. masses --      2.0671                 4.3101                 5.3657
 Frc consts  --      0.2529                 0.5928                 0.8556
 IR Inten    --      8.5410                 5.9297                 4.4932

                     19                     20                     21
                      A                      A                      A
 Frequencies --    539.5203               588.5871               643.5900
 Red. masses --      2.6326                 5.1889                 5.3958
 Frc consts  --      0.4515                 1.0591                 1.3168
 IR Inten    --      3.6774                 2.6585                 3.7900

                     22                     23                     24
                      A                      A                      A
 Frequencies --    677.3858               699.5313               740.1718
 Red. masses --      3.3321                 4.8630                 3.8500
 Frc consts  --      0.9008                 1.4021                 1.2427
 IR Inten    --      3.4686                 1.4365                10.9175

                     25                     26                     27
                      A                      A                      A
 Frequencies --    780.8475               797.1351               807.9769
 Red. masses --      2.5443                 1.2912                 2.5273
 Frc consts  --      0.9140                 0.4834                 0.9721
 IR Inten    --     17.2034                48.2912                52.4564

                     28                     29                     30
                      A                      A                      A
 Frequencies --    821.4203               852.0631               890.1726
 Red. masses --      4.0244                 2.2038                 2.4470
 Frc consts  --      1.5998                 0.9427                 1.1424
 IR Inten    --     10.0334                37.0621                18.8817

                     31                     32                     33
                      A                      A                      A
 Frequencies --    922.0584               927.4521               966.1006
 Red. masses --      2.0507                 1.7150                 1.8529
 Frc consts  --      1.0272                 0.8692                 1.0189
 IR Inten    --     28.9729                 5.3082                 3.0140

                     34                     35                     36
                      A                      A                      A
 Frequencies --    982.0433              1000.5859              1060.2276
 Red. masses --      1.8836                 1.7397                 2.2037
 Frc consts  --      1.0703                 1.0262                 1.4595
 IR Inten    --      6.7487                 3.0069                18.2884

                     37                     38                     39
                      A                      A                      A
 Frequencies --   1069.4777              1077.2930              1082.5614
 Red. masses --      2.0930                 1.5820                 1.7992
 Frc consts  --      1.4105                 1.0817                 1.2423
 IR Inten    --     14.0711                 9.5203                 2.4540

                     40                     41                     42
                      A                      A                      A
 Frequencies --   1094.5091              1149.0760              1166.4220
 Red. masses --      1.8780                 2.8799                 3.0391
 Frc consts  --      1.3255                 2.2404                 2.4361
 IR Inten    --     19.6020                37.3587                 4.7657

                     43                     44                     45
                      A                      A                      A
 Frequencies --   1176.3562              1194.3500              1203.0205
 Red. masses --      1.8811                 2.7386                 2.2688
 Frc consts  --      1.5337                 2.3017                 1.9346
 IR Inten    --      9.9091                 8.7373                17.9690

                     46                     47                     48
                      A                      A                      A
 Frequencies --   1257.4954              1277.4558              1285.9558
 Red. masses --      1.3024                 1.5820                 1.2313
 Frc consts  --      1.2134                 1.5211                 1.1996
 IR Inten    --     25.4500                 1.1853                 1.8347

                     49                     50                     51
                      A                      A                      A
 Frequencies --   1332.6896              1349.5275              1355.8704
 Red. masses --      1.3950                 1.6685                 2.3207
 Frc consts  --      1.4598                 1.7903                 2.5137
 IR Inten    --      7.1373                 4.8941                10.6681

                     52                     53                     54
                      A                      A                      A
 Frequencies --   1374.3885              1381.8035              1392.0726
 Red. masses --      1.3698                 1.2625                 1.3753
 Frc consts  --      1.5245                 1.4203                 1.5703
 IR Inten    --      4.1459                42.3216                 8.6517

                     55                     56                     57
                      A                      A                      A
 Frequencies --   1399.2263              1415.7012              1430.1705
 Red. masses --      1.3121                 1.3946                 1.3130
 Frc consts  --      1.5136                 1.6469                 1.5823
 IR Inten    --      1.5629                 2.8194                18.0487

                     58                     59                     60
                      A                      A                      A
 Frequencies --   1439.2041              1441.1282              1492.4302
 Red. masses --      1.3857                 1.2983                 1.5511
 Frc consts  --      1.6911                 1.5886                 2.0356
 IR Inten    --      4.4741                 3.8644                10.3836

                     61                     62                     63
                      A                      A                      A
 Frequencies --   1498.6391              1506.7822              1508.7429
 Red. masses --      2.2654                 1.1076                 1.0962
 Frc consts  --      2.9977                 1.4816                 1.4702
 IR Inten    --     25.5118                10.0350                 3.8219

                     64                     65                     66
                      A                      A                      A
 Frequencies --   1510.9810              1516.0041              1519.5310
 Red. masses --      1.1119                 1.1678                 1.0781
 Frc consts  --      1.4957                 1.5813                 1.4666
 IR Inten    --      3.6617                14.6079                19.3102

                     67                     68                     69
                      A                      A                      A
 Frequencies --   1526.6683              1534.4543              1543.1912
 Red. masses --      1.1133                 1.1021                 1.0594
 Frc consts  --      1.5288                 1.5289                 1.4864
 IR Inten    --      1.3065                 9.4882                 1.3163

                     70                     71                     72
                      A                      A                      A
 Frequencies --   1594.8471              2929.1208              2937.1774
 Red. masses --      4.9790                 1.0720                 1.0708
 Frc consts  --      7.4616                 5.4192                 5.4430
 IR Inten    --     19.1958                14.9707                86.3708

                     73                     74                     75
                      A                      A                      A
 Frequencies --   3051.1758              3053.6469              3056.5757
 Red. masses --      1.0836                 1.0592                 1.0518
 Frc consts  --      5.9436                 5.8191                 5.7895
 IR Inten    --     40.0497                12.7990                15.5802

                     76                     77                     78
                      A                      A                      A
 Frequencies --   3057.3574              3060.4248              3068.9612
 Red. masses --      1.0590                 1.0487                 1.0732
 Frc consts  --      5.8325                 5.7871                 5.9555
 IR Inten    --     25.0959                25.4287                77.7948

                     79                     80                     81
                      A                      A                      A
 Frequencies --   3074.1505              3097.7579              3106.8376
 Red. masses --      1.0828                 1.1047                 1.1066
 Frc consts  --      6.0290                 6.2458                 6.2932
 IR Inten    --     24.8202                20.4070                33.2575

                     82                     83                     84
                      A                      A                      A
 Frequencies --   3114.6757              3127.0698              3147.1098
 Red. masses --      1.0974                 1.0994                 1.1032
 Frc consts  --      6.2727                 6.3340                 6.4375
 IR Inten    --     15.9928                28.3617                25.2520

                     85                     86                     87
                      A                      A                      A
 Frequencies --   3149.1006              3242.2082              3462.2966
 Red. masses --      1.1011                 1.0938                 1.0736
 Frc consts  --      6.4333                 6.7744                 7.5828
 IR Inten    --     18.1952                 2.0129                 3.1638

 - Thermochemistry -
 -------------------
 Temperature   298.150 Kelvin.  Pressure   1.00000 Atm.
 Atom     1 has atomic number  6 and mass  12.00000

 Molecular mass:   211.11432 amu.
 Principal axes and moments of inertia in atomic units:
                           1         2         3
     Eigenvalues --  1559.843294770.190655548.23108
           X            0.99998   0.00635  -0.00211
           Y           -0.00633   0.99991   0.01149
           Z            0.00218  -0.01148   0.99993
 This molecule is an asymmetric top.
 Rotational symmetry number  1.
 Warning -- assumption of classical behavior for rotation
           may cause significant error
 Rotational temperatures (Kelvin)      0.05553     0.01816     0.01561
 Rotational constants (GHZ):           1.15700     0.37834     0.32528
 Zero-point vibrational energy     707534.6 (Joules/Mol)
                                  169.10483 (Kcal/Mol)
 Warning -- explicit consideration of  20 degrees of freedom as
           vibrations may cause significant error
 Vibrational temperatures:     44.07    88.53   105.52   169.00   178.28
          (Kelvin)            234.36   265.25   295.34   329.53   396.30
                              442.18   504.69   545.83   560.08   590.37
                              655.62   695.14   748.51   776.25   846.85
                              925.98   974.61  1006.47  1064.94  1123.47
                             1146.90  1162.50  1181.84  1225.93  1280.76
                             1326.64  1334.40  1390.00  1412.94  1439.62
                             1525.43  1538.74  1549.98  1557.56  1574.75
                             1653.26  1678.22  1692.51  1718.40  1730.88
                             1809.26  1837.97  1850.20  1917.44  1941.67
                             1950.80  1977.44  1988.11  2002.88  2013.17
                             2036.88  2057.70  2070.69  2073.46  2147.27
                             2156.21  2167.92  2170.74  2173.96  2181.19
                             2186.27  2196.54  2207.74  2220.31  2294.63
                             4214.35  4225.94  4389.96  4393.52  4397.73
                             4398.86  4403.27  4415.55  4423.02  4456.98
                             4470.05  4481.32  4499.16  4527.99  4530.85
                             4664.81  4981.47

 Zero-point correction=                           0.269486 (Hartree/Particle)
 Thermal correction to Energy=                    0.283221
 Thermal correction to Enthalpy=                  0.284165
 Thermal correction to Gibbs Free Energy=         0.228382
 Sum of electronic and zero-point Energies=           -953.515566
 Sum of electronic and thermal Energies=              -953.501832
 Sum of electronic and thermal Enthalpies=            -953.500887
 Sum of electronic and thermal Free Energies=         -953.556670

                     E (Thermal)             CV                S
                      KCal/Mol        Cal/Mol-Kelvin    Cal/Mol-Kelvin
 Total                  177.724             52.849            117.404
 Electronic               0.000              0.000              0.000
 Translational            0.889              2.981             41.945
 Rotational               0.889              2.981             32.090
 Vibrational            175.946             46.887             43.369
 Vibration     1          0.594              1.984              5.788
 Vibration     2          0.597              1.973              4.407
 Vibration     3          0.599              1.967              4.062
 Vibration     4          0.608              1.935              3.142
 Vibration     5          0.610              1.929              3.038
 Vibration     6          0.623              1.888              2.516
 Vibration     7          0.631              1.861              2.284
 Vibration     8          0.640              1.832              2.085
 Vibration     9          0.652              1.797              1.887
 Vibration    10          0.677              1.719              1.562
 Vibration    11          0.697              1.660              1.377
 Vibration    12          0.728              1.574              1.163
 Vibration    13          0.749              1.514              1.042
 Vibration    14          0.757              1.493              1.003
 Vibration    15          0.774              1.448              0.925
 Vibration    16          0.814              1.348              0.779
 Vibration    17          0.839              1.287              0.702
 Vibration    18          0.875              1.205              0.609
 Vibration    19          0.895              1.163              0.566
 Vibration    20          0.946              1.056              0.470

 Optimization completed.
    -- Stationary point found.
 Normal termination of Gaussian 16 at Thu Dec 10 09:33:22 2020.

 ----------------------------------------------------------------------
 # B3LYP/6-311++G(d,p) empiricaldispersion=gd3bj scf=xqc pop=npa geom=c
 heck
 ----------------------------------------------------------------------

 --------------------------------------
 CID_64953407_JID_4301_Energie_neutraal
 --------------------------------------
 Structure from the checkpoint file:  "JID_4301.chk"
 Charge =  0 Multiplicity = 1

 SCF Done:  E(RB3LYP) =  -953.963800457     A.U. after   15 cycles
 Normal termination of Gaussian 16 at Thu Dec 10 09:38:18 2020.

 ----------------------------------------------------------------------
 # B3LYP/6-311++G(d,p) empiricaldispersion=gd3bj scf=xqc pop=npa geom=c
 heck
 ----------------------------------------------------------------------

 ------------------------------------
 CID_64953407_JID_4301_Energie_kation
 ------------------------------------
 Structure from the checkpoint file:  "JID_4301.chk"
 Charge =  1 Multiplicity = 2

 SCF Done:  E(UB3LYP) =  -953.681036424     A.U. after   26 cycles
 Normal termination of Gaussian 16 at Thu Dec 10 09:49:54 2020.
 Gaussian 16:  ES64L-G16RevA.03 25-Dec-2016

 ----------------------------------------------------------------------
 # B3LYP/6-311++G(d,p) empiricaldispersion=gd3bj scf=xqc pop=npa geom=c
 heck
 ----------------------------------------------------------------------

 -----------------------------------
 CID_64953407_JID_4301_Energie_anion
 -----------------------------------
 Structure from the checkpoint file:  "JID_4301.chk"
 Charge = -1 Multiplicity = 2

                         Standard orientation:
 ---------------------------------------------------------------------
 Center     Atomic      Atomic             Coordinates (Angstroms)
 Number     Number       Type             X           Y           Z
 ---------------------------------------------------------------------
      1          6           0       -3.728729    1.233845    0.373102
      2          6           0       -2.752923    0.761364   -0.708182
      3          6           0       -1.288081    0.883203   -0.246186
      4          7           0       -1.001048   -0.103717    0.792374
      5          6           0       -1.218439   -1.462157    0.301361
      6          6           0       -2.673735   -1.614093   -0.153563
      7          7           0       -3.079382   -0.610317   -1.142184
      8          6           0        0.288701    0.098152    1.453383
      9          6           0        1.518712    0.028767    0.577782
     10          6           0        2.193987    1.045888   -0.055164
     11          7           0        3.269072    0.654433   -0.835470
     12          6           0        3.424126   -0.634737   -0.809426
     13         16           0        2.269494   -1.498636    0.171079
     14          6           0        1.885604    2.512649    0.023769
     15          1           0       -3.550303    0.716884    1.319973
     16          1           0       -4.759030    1.048465    0.056193
     17          1           0       -3.603906    2.307562    0.553522
     18          1           0       -2.880186    1.401907   -1.589827
     19          1           0       -0.618775    0.760694   -1.120108
     20          1           0       -1.105003    1.883328    0.164386
     21          1           0       -0.995060   -2.168331    1.111393
     22          1           0       -0.548837   -1.709617   -0.545635
     23          1           0       -3.332886   -1.530069    0.717188
     24          1           0       -2.829377   -2.608503   -0.586575
     25          1           0       -2.573064   -0.796346   -2.008269
     26          1           0        0.262917    1.084432    1.929809
     27          1           0        0.363239   -0.640708    2.259455
     28          1           0        4.203253   -1.162761   -1.346941
     29          1           0        2.807698    3.079543    0.185948
     30          1           0        1.443847    2.869318   -0.914427
     31          1           0        1.187728    2.742315    0.832353
 ---------------------------------------------------------------------

 SCF Done:  E(UB3LYP) =  -953.952706573     A.U. after   33 cycles
 SCF Done:  E(UB3LYP) =  -953.952706573     a.u. after    1 cycles

 The electronic state is 2-A.
 Alpha  occ. eigenvalues --  -88.76081 -14.19918 -14.19490 -14.19244 -10.10848
 Alpha  occ. eigenvalues --  -10.09714 -10.09138 -10.09107 -10.08641 -10.08429
 Alpha  occ. eigenvalues --  -10.08153 -10.08001 -10.06226 -10.04726  -7.84752
 Alpha  occ. eigenvalues --   -5.81013  -5.80672  -5.80383  -0.84680  -0.83583
 Alpha  occ. eigenvalues --   -0.78756  -0.68784  -0.66979  -0.66512  -0.61694
 Alpha  occ. eigenvalues --   -0.59325  -0.56518  -0.53585  -0.51184  -0.47072
 Alpha  occ. eigenvalues --   -0.44748  -0.42665  -0.39726  -0.37770  -0.36480
 Alpha  occ. eigenvalues --   -0.36078  -0.34368  -0.33930  -0.32279  -0.32098
 Alpha  occ. eigenvalues --   -0.30618  -0.29856  -0.29088  -0.28126  -0.27266
 Alpha  occ. eigenvalues --   -0.27201  -0.26708  -0.26057  -0.24127  -0.23591
 Alpha  occ. eigenvalues --   -0.23345  -0.22263  -0.16684  -0.16236  -0.13210
 Alpha  occ. eigenvalues --   -0.12916  -0.10698   0.04661
 Alpha virt. eigenvalues --    0.06979   0.07399   0.07853   0.08125   0.08687
 Alpha virt. eigenvalues --    0.09512   0.10016   0.10341   0.11192   0.11506
 Alpha virt. eigenvalues --    0.12172   0.12315   0.12900   0.13130   0.13617

  Beta  occ. eigenvalues --  -88.76055 -14.19911 -14.19456 -14.19233 -10.10645
  Beta  occ. eigenvalues --  -10.09702 -10.09127 -10.09088 -10.08626 -10.08418
  Beta  occ. eigenvalues --  -10.08030 -10.07978 -10.06207 -10.04700  -7.84728
  Beta  occ. eigenvalues --   -5.81002  -5.80662  -5.80296  -0.84523  -0.83539
  Beta  occ. eigenvalues --   -0.78722  -0.68619  -0.66937  -0.66373  -0.61641
  Beta  occ. eigenvalues --   -0.59261  -0.56361  -0.53511  -0.51112  -0.46859
  Beta  occ. eigenvalues --   -0.44685  -0.42543  -0.39633  -0.37668  -0.36424
  Beta  occ. eigenvalues --   -0.36031  -0.34313  -0.33882  -0.32108  -0.32006
  Beta  occ. eigenvalues --   -0.30570  -0.29761  -0.29018  -0.28056  -0.27170
  Beta  occ. eigenvalues --   -0.26841  -0.26662  -0.26022  -0.24079  -0.23506
  Beta  occ. eigenvalues --   -0.23295  -0.22212  -0.16242  -0.16138  -0.13066
  Beta  occ. eigenvalues --   -0.12362  -0.10626
  Beta virt. eigenvalues --    0.06967   0.07937   0.08048   0.08302   0.08746
  Beta virt. eigenvalues --    0.08880   0.09964   0.10448   0.10672   0.11403
  Beta virt. eigenvalues --    0.11688   0.12194   0.12528   0.13077   0.13433

 Mulliken charges and spin densities:
               1          2
     1  C    0.855031  -1.370768
     2  C   -1.073580   0.763713
     3  C    0.181520  -0.696055
     4  N    0.225652   0.092268
     5  C   -0.500564   0.314449
     6  C    0.822002  -1.352828
     7  N   -0.103077   0.078903
     8  C   -0.165285  -0.382752
     9  C    0.895574   0.435073
    10  C   -1.635674   0.558008
    11  N    0.017840   0.026493
    12  C   -0.306892   0.478920
    13  S    0.084253  -0.328279
    14  C    0.738372  -1.473117
    15  H   -0.044334   0.189114
    16  H   -0.002147   0.158440
    17  H   -0.262562   0.384018
    18  H   -0.466683   0.669773
    19  H    0.089080   0.102285
    20  H    0.100961   0.051884
    21  H   -0.192246   0.349409
    22  H    0.108997  -0.022623
    23  H    0.068724   0.106867
    24  H   -0.105063   0.270620
    25  H    0.026149   0.208285
    26  H   -0.016188   0.181978
    27  H   -0.365690   0.569779
    28  H    0.169835   0.045102
    29  H    0.043412   0.121178
    30  H   -0.043739   0.210830
    31  H   -0.143678   0.259032
 Sum of Mulliken charges =  -1.00000   1.00000

 Dipole moment (field-independent basis, Debye):
    X=              2.6828    Y=             -2.5337    Z=             -0.1168  Tot=              3.6920
 Quadrupole moment (field-independent basis, Debye-Ang):
   XX=           -156.5847   YY=           -131.8677   ZZ=           -125.6382
   XY=             -0.1180   XZ=             -1.7619   YZ=              5.1855

 Summary of Natural Population Analysis:

                                       Natural Population
                Natural  -----------------------------------------------
    Atom  No    Charge         Core      Valence    Rydberg      Total
 -----------------------------------------------------------------------
      C    1   -0.29198      0.99964     2.28548    0.00686     3.29198
      C    2   -0.01486      0.99960     2.00160    0.01366     3.01486
      C    3   -0.09412      0.99959     2.08196    0.01257     3.09412
      N    4   -0.28278      0.99971     2.76888    0.01418     3.78278
      C    5   -0.09688      0.99960     2.08580    0.01148     3.09688
      C    6   -0.09156      0.99962     2.08107    0.01087     3.09156
      N    7   -0.33932      0.99975     2.82666    0.01290     3.83932
      C    8   -0.09613      0.99955     2.08230    0.01427     3.09613
      C    9   -0.10378      0.99941     2.09245    0.01192     3.10378
      C   10    0.06033      0.99942     1.92561    0.01464     2.93967
      N   11   -0.24470      0.99967     2.73390    0.01114     3.74470
      C   12   -0.02267      0.99966     2.00682    0.01618     3.02267
      S   13    0.18547      4.99942     2.79583    0.01928     7.81453
      C   14   -0.29476      0.99963     2.28897    0.00617     3.29476
      H   15    0.10193      0.00000     0.39645    0.00162     0.39807
      H   16    0.10037      0.00000     0.39848    0.00115     0.39963
      H   17    0.09989      0.00000     0.39904    0.00107     0.40011
      H   18    0.09448      0.00000     0.40373    0.00179     0.40552
      H   19    0.08468      0.00000     0.41270    0.00261     0.41532
      H   20    0.09997      0.00000     0.39807    0.00196     0.40003
      H   21    0.09794      0.00000     0.40044    0.00162     0.40206
      H   22    0.08135      0.00000     0.41658    0.00207     0.41865
      H   23    0.09215      0.00000     0.40638    0.00147     0.40785
      H   24    0.09319      0.00000     0.40581    0.00099     0.40681
      H   25    0.17092      0.00000     0.32672    0.00236     0.32908
      H   26    0.10357      0.00000     0.39493    0.00150     0.39643
      H   27    0.10315      0.00000     0.39525    0.00160     0.39685
      H   28    0.09146      0.00000     0.40747    0.00108     0.40854
      H   29    0.10424      0.00000     0.39466    0.00110     0.39576
      H   30    0.10682      0.00000     0.39186    0.00131     0.39318
      H   31    0.10162      0.00000     0.39730    0.00109     0.39838
 =======================================================================
   * Total *   -0.00000     17.99428    38.80319    0.20253    57.00000

 Normal termination of Gaussian 16 at Thu Dec 10 10:05:34 2020.
