 Gaussian 16, Revision A.03,

 -----------------------------------------------------------
 # opt freq B3LYP/6-31G(d) empiricaldispersion=gd3bj scf=xqc
 -----------------------------------------------------------

 -------------------------------
 CID_150807190_JID_7211_neutraal
 -------------------------------
 Symbolic Z-matrix:
 Charge =  0 Multiplicity = 1

 SCF Done:  E(RB3LYP) =  -1125.14867978     A.U. after   15 cycles
 SCF Done:  E(RB3LYP) =  -1125.15337956     A.U. after   14 cycles
 SCF Done:  E(RB3LYP) =  -1125.15365761     A.U. after   13 cycles
 SCF Done:  E(RB3LYP) =  -1125.15594823     A.U. after   13 cycles
 SCF Done:  E(RB3LYP) =  -1125.15651891     A.U. after   13 cycles
 SCF Done:  E(RB3LYP) =  -1125.15750418     A.U. after   13 cycles
 SCF Done:  E(RB3LYP) =  -1125.15778704     A.U. after   13 cycles
 SCF Done:  E(RB3LYP) =  -1125.15780617     A.U. after   13 cycles
 SCF Done:  E(RB3LYP) =  -1125.15790034     A.U. after   11 cycles
 SCF Done:  E(RB3LYP) =  -1125.15791268     A.U. after   11 cycles
 SCF Done:  E(RB3LYP) =  -1125.15792760     A.U. after    8 cycles
 SCF Done:  E(RB3LYP) =  -1125.15792792     A.U. after    9 cycles
 SCF Done:  E(RB3LYP) =  -1125.15792826     A.U. after    9 cycles
 SCF Done:  E(RB3LYP) =  -1125.15792848     A.U. after    9 cycles
 SCF Done:  E(RB3LYP) =  -1125.15792849     A.U. after    6 cycles
 Optimization completed.
    -- Stationary point found.
 Normal termination of Gaussian 16 at Fri Dec 11 12:02:15 2020.

 --------------------------------------------------------------------
 #N Geom=AllCheck Guess=TCheck SCRF=Check GenChk RB3LYP/6-31G(d) Freq
 --------------------------------------------------------------------

 Structure from the checkpoint file:  "JID_7211.chk"
 -------------------------------
 CID_150807190_JID_7211_neutraal
 -------------------------------
 Charge =  0 Multiplicity = 1

 SCF Done:  E(RB3LYP) =  -1125.15792849     A.U. after    1 cycles

  Exact polarizability: 294.135  -7.492 158.097  -9.773  -1.903  90.490
 Approx polarizability: 385.601 -28.564 268.555 -22.765  -8.625 137.908

                      1                      2                      3
                      A                      A                      A
 Frequencies --     15.1105                34.9382                53.1823
 Red. masses --      4.3235                 5.3907                 4.8351
 Frc consts  --      0.0006                 0.0039                 0.0081
 IR Inten    --      0.3597                 2.8563                 4.0764

                      4                      5                      6
                      A                      A                      A
 Frequencies --     57.0255                83.1309               102.2239
 Red. masses --      5.1489                 4.2113                 4.3448
 Frc consts  --      0.0099                 0.0171                 0.0267
 IR Inten    --      2.5481                 1.8544                 0.7275

                      7                      8                      9
                      A                      A                      A
 Frequencies --    114.1452               137.2393               162.0589
 Red. masses --      3.0397                 3.1826                 4.5593
 Frc consts  --      0.0233                 0.0353                 0.0705
 IR Inten    --      1.0827                 0.2696                 4.5903

                     10                     11                     12
                      A                      A                      A
 Frequencies --    182.1397               219.7166               226.0351
 Red. masses --      3.0202                 1.2452                 2.3054
 Frc consts  --      0.0590                 0.0354                 0.0694
 IR Inten    --      4.7251                 0.3649                 3.4213

                     13                     14                     15
                      A                      A                      A
 Frequencies --    247.8733               283.9342               316.1338
 Red. masses --      1.7731                 4.4025                 3.5740
 Frc consts  --      0.0642                 0.2091                 0.2104
 IR Inten    --      0.8792                 8.1776                 3.7652

                     16                     17                     18
                      A                      A                      A
 Frequencies --    329.3088               355.1448               380.1421
 Red. masses --      2.9736                 3.5345                 4.0513
 Frc consts  --      0.1900                 0.2627                 0.3449
 IR Inten    --      1.0794                12.4709                 0.9128

                     19                     20                     21
                      A                      A                      A
 Frequencies --    407.3155               441.0215               447.8243
 Red. masses --      4.9391                 1.4870                 2.6950
 Frc consts  --      0.4828                 0.1704                 0.3184
 IR Inten    --     13.5090               106.3962                43.3481

                     22                     23                     24
                      A                      A                      A
 Frequencies --    463.6141               497.9507               532.2756
 Red. masses --      2.7906                 3.4574                 1.2551
 Frc consts  --      0.3534                 0.5051                 0.2095
 IR Inten    --     17.2521                 0.6850                82.5706

                     25                     26                     27
                      A                      A                      A
 Frequencies --    556.3262               568.7994               603.3102
 Red. masses --      3.7285                 4.0809                 1.1521
 Frc consts  --      0.6799                 0.7779                 0.2471
 IR Inten    --      7.1601                 4.2141               104.2960

                     28                     29                     30
                      A                      A                      A
 Frequencies --    629.2598               641.5952               672.1880
 Red. masses --      5.1357                 5.1336                 6.4513
 Frc consts  --      1.1982                 1.2451                 1.7174
 IR Inten    --     32.4641                 7.8740                 2.3560

                     31                     32                     33
                      A                      A                      A
 Frequencies --    715.9709               762.9538               785.3208
 Red. masses --      4.2785                 4.7620                 4.1289
 Frc consts  --      1.2922                 1.6332                 1.5003
 IR Inten    --     14.4736                 6.2833                12.3920

                     34                     35                     36
                      A                      A                      A
 Frequencies --    788.4800               809.1643               850.8628
 Red. masses --      1.6269                 1.1883                 2.8401
 Frc consts  --      0.5959                 0.4584                 1.2114
 IR Inten    --      7.8650                 3.8357                11.4490

                     37                     38                     39
                      A                      A                      A
 Frequencies --    858.5203               878.7217               892.0411
 Red. masses --      2.4543                 1.4582                 2.0167
 Frc consts  --      1.0658                 0.6634                 0.9455
 IR Inten    --     19.5147                12.6977                13.9457

                     40                     41                     42
                      A                      A                      A
 Frequencies --    894.6870               936.4815               999.5046
 Red. masses --      2.0307                 2.9714                 1.2947
 Frc consts  --      0.9577                 1.5353                 0.7621
 IR Inten    --     13.8195                 3.7907                 1.2443

                     43                     44                     45
                      A                      A                      A
 Frequencies --   1006.3172              1036.0799              1069.4014
 Red. masses --      2.6498                 3.5593                 2.0680
 Frc consts  --      1.5810                 2.2512                 1.3934
 IR Inten    --      3.6349                 9.3231               125.1609

                     46                     47                     48
                      A                      A                      A
 Frequencies --   1090.5494              1112.4121              1121.5427
 Red. masses --      2.0176                 1.6893                 2.6855
 Frc consts  --      1.4138                 1.2317                 1.9903
 IR Inten    --     25.2614                30.8465                19.8149

                     49                     50                     51
                      A                      A                      A
 Frequencies --   1134.6237              1175.0955              1210.0942
 Red. masses --      2.2160                 1.7285                 1.6909
 Frc consts  --      1.6809                 1.4062                 1.4588
 IR Inten    --     79.3478               201.0958                22.9517

                     52                     53                     54
                      A                      A                      A
 Frequencies --   1216.2929              1272.0253              1286.1122
 Red. masses --      1.6165                 1.6000                 1.8389
 Frc consts  --      1.4089                 1.5253                 1.7921
 IR Inten    --     18.3568               144.6121               326.5735

                     55                     56                     57
                      A                      A                      A
 Frequencies --   1304.9782              1309.7990              1336.2149
 Red. masses --      3.9384                 2.0340                 1.7588
 Frc consts  --      3.9516                 2.0559                 1.8502
 IR Inten    --    238.2816               202.7019                 3.0976

                     58                     59                     60
                      A                      A                      A
 Frequencies --   1344.0585              1371.2754              1375.9070
 Red. masses --      1.1475                 3.0867                 1.5321
 Frc consts  --      1.2214                 3.4198                 1.7089
 IR Inten    --     26.5232                33.6432                42.1320

                     61                     62                     63
                      A                      A                      A
 Frequencies --   1418.3964              1431.1723              1438.4296
 Red. masses --      1.2891                 1.2752                 2.8488
 Frc consts  --      1.5280                 1.5390                 3.4729
 IR Inten    --      2.6548                59.1231               365.0939

                     64                     65                     66
                      A                      A                      A
 Frequencies --   1444.3519              1475.1203              1515.1638
 Red. masses --      1.4141                 2.9649                 1.0596
 Frc consts  --      1.7382                 3.8012                 1.4332
 IR Inten    --     42.8714                26.1464                14.0351

                     67                     68                     69
                      A                      A                      A
 Frequencies --   1518.2827              1522.8487              1528.7732
 Red. masses --      1.0731                 1.0629                 1.0578
 Frc consts  --      1.4575                 1.4522                 1.4566
 IR Inten    --      9.9515                15.1270                 9.6934

                     70                     71                     72
                      A                      A                      A
 Frequencies --   1537.5145              1540.3761              1544.0871
 Red. masses --      1.0709                 1.1786                 2.0987
 Frc consts  --      1.4916                 1.6477                 2.9481
 IR Inten    --     12.6905                10.0936                 3.1739

                     73                     74                     75
                      A                      A                      A
 Frequencies --   1558.6074              1622.1204              1661.1535
 Red. masses --      2.2034                 4.8591                 2.5467
 Frc consts  --      3.1537                 7.5331                 4.1404
 IR Inten    --    523.8270                37.7062               213.5752

                     76                     77                     78
                      A                      A                      A
 Frequencies --   1668.6194              1779.7862              3056.2554
 Red. masses --      1.7548                11.2206                 1.0375
 Frc consts  --      2.8787                20.9413                 5.7095
 IR Inten    --    188.8581               246.4648                32.9991

                     79                     80                     81
                      A                      A                      A
 Frequencies --   3062.1229              3063.2322              3097.6709
 Red. masses --      1.0366                 1.0699                 1.0592
 Frc consts  --      5.7267                 5.9147                 5.9883
 IR Inten    --     19.3371                25.7048                28.9107

                     82                     83                     84
                      A                      A                      A
 Frequencies --   3117.3975              3127.1957              3144.0927
 Red. masses --      1.1022                 1.1018                 1.1023
 Frc consts  --      6.3108                 6.3486                 6.4202
 IR Inten    --     24.4400                30.6861                 9.4946

                     85                     86                     87
                      A                      A                      A
 Frequencies --   3144.6540              3154.4088              3162.5591
 Red. masses --      1.0969                 1.0975                 1.1076
 Frc consts  --      6.3910                 6.4340                 6.5271
 IR Inten    --     18.8998                21.1891                23.4500

                     88                     89                     90
                      A                      A                      A
 Frequencies --   3180.2306              3226.8043              3239.4609
 Red. masses --      1.0900                 1.0881                 1.0943
 Frc consts  --      6.4952                 6.6754                 6.7658
 IR Inten    --     11.2082                 0.0971                 1.6575

                     91                     92                     93
                      A                      A                      A
 Frequencies --   3556.9999              3610.0309              3691.4305
 Red. masses --      1.0488                 1.0767                 1.1003
 Frc consts  --      7.8184                 8.2672                 8.8339
 IR Inten    --     27.6701                40.0015                77.6921

 - Thermochemistry -
 -------------------
 Temperature   298.150 Kelvin.  Pressure   1.00000 Atm.
 Atom     1 has atomic number  6 and mass  12.00000

 Molecular mass:   252.09325 amu.
 Principal axes and moments of inertia in atomic units:
                           1         2         3
     Eigenvalues --  1605.32025********************
           X            0.99994   0.00981   0.00555
           Y           -0.00983   0.99995   0.00278
           Z           -0.00552  -0.00283   0.99998
 This molecule is an asymmetric top.
 Rotational symmetry number  1.
 Warning -- assumption of classical behavior for rotation
           may cause significant error
 Rotational temperatures (Kelvin)      0.05395     0.00802     0.00721
 Rotational constants (GHZ):           1.12423     0.16707     0.15019
 Zero-point vibrational energy     715042.7 (Joules/Mol)
                                  170.89930 (Kcal/Mol)
 Warning -- explicit consideration of  27 degrees of freedom as
           vibrations may cause significant error
 Vibrational temperatures:     21.74    50.27    76.52    82.05   119.61
          (Kelvin)            147.08   164.23   197.46   233.17   262.06
                              316.12   325.21   356.63   408.52   454.85
                              473.80   510.97   546.94   586.04   634.53
                              644.32   667.04   716.44   765.83   800.43
                              818.38   868.03   905.36   923.11   967.13
                             1030.12  1097.72  1129.90  1134.45  1164.21
                             1224.20  1235.22  1264.28  1283.45  1287.26
                             1347.39  1438.06  1447.87  1490.69  1538.63
                             1569.06  1600.51  1613.65  1632.47  1690.70
                             1741.06  1749.97  1830.16  1850.43  1877.57
                             1884.51  1922.52  1933.80  1972.96  1979.62
                             2040.76  2059.14  2069.58  2078.10  2122.37
                             2179.98  2184.47  2191.04  2199.56  2212.14
                             2216.26  2221.60  2242.49  2333.87  2390.03
                             2400.77  2560.72  4397.27  4405.71  4407.31
                             4456.86  4485.24  4499.34  4523.65  4524.46
                             4538.49  4550.22  4575.64  4642.65  4660.86
                             5117.73  5194.03  5311.15

 Zero-point correction=                           0.272345 (Hartree/Particle)
 Thermal correction to Energy=                    0.289802
 Thermal correction to Enthalpy=                  0.290746
 Thermal correction to Gibbs Free Energy=         0.224965
 Sum of electronic and zero-point Energies=          -1124.885583
 Sum of electronic and thermal Energies=             -1124.868127
 Sum of electronic and thermal Enthalpies=           -1124.867183
 Sum of electronic and thermal Free Energies=        -1124.932964

                     E (Thermal)             CV                S
                      KCal/Mol        Cal/Mol-Kelvin    Cal/Mol-Kelvin
 Total                  181.853             64.784            138.448
 Electronic               0.000              0.000              0.000
 Translational            0.889              2.981             42.474
 Rotational               0.889              2.981             33.699
 Vibrational            180.076             58.822             62.275
 Vibration     1          0.593              1.986              7.191
 Vibration     2          0.594              1.983              5.527
 Vibration     3          0.596              1.976              4.695
 Vibration     4          0.596              1.975              4.558
 Vibration     5          0.600              1.961              3.816
 Vibration     6          0.604              1.947              3.411
 Vibration     7          0.607              1.938              3.197
 Vibration     8          0.614              1.916              2.842
 Vibration     9          0.622              1.889              2.526
 Vibration    10          0.630              1.864              2.306
 Vibration    11          0.647              1.811              1.961
 Vibration    12          0.650              1.801              1.910
 Vibration    13          0.661              1.766              1.746
 Vibration    14          0.682              1.703              1.510
 Vibration    15          0.703              1.643              1.330
 Vibration    16          0.712              1.617              1.263
 Vibration    17          0.731              1.565              1.143
 Vibration    18          0.750              1.513              1.039
 Vibration    19          0.772              1.454              0.936
 Vibration    20          0.801              1.381              0.823
 Vibration    21          0.807              1.366              0.802
 Vibration    22          0.821              1.331              0.756
 Vibration    23          0.853              1.255              0.663
 Vibration    24          0.887              1.179              0.582
 Vibration    25          0.912              1.126              0.531
 Vibration    26          0.925              1.099              0.507
 Vibration    27          0.962              1.025              0.444

 Optimization completed.
    -- Stationary point found.
 Normal termination of Gaussian 16 at Fri Dec 11 12:13:49 2020.

 ----------------------------------------------------------------------
 # B3LYP/6-311++G(d,p) empiricaldispersion=gd3bj scf=xqc pop=npa geom=c
 heck
 ----------------------------------------------------------------------

 ---------------------------------------
 CID_150807190_JID_7211_Energie_neutraal
 ---------------------------------------
 Structure from the checkpoint file:  "JID_7211.chk"
 Charge =  0 Multiplicity = 1

 SCF Done:  E(RB3LYP) =  -1125.39131373     A.U. after   16 cycles
 Normal termination of Gaussian 16 at Fri Dec 11 12:20:04 2020.

 ----------------------------------------------------------------------
 # B3LYP/6-311++G(d,p) empiricaldispersion=gd3bj scf=xqc pop=npa geom=c
 heck
 ----------------------------------------------------------------------

 -------------------------------------
 CID_150807190_JID_7211_Energie_kation
 -------------------------------------
 Structure from the checkpoint file:  "JID_7211.chk"
 Charge =  1 Multiplicity = 2

 SCF Done:  E(UB3LYP) =  -1125.10189709     A.U. after   33 cycles
 SCF Done:  E(UB3LYP) =  -1125.10189709     a.u. after    1 cycles
 Normal termination of Gaussian 16 at Fri Dec 11 12:38:43 2020.
 Gaussian 16:  ES64L-G16RevA.03 25-Dec-2016

 ----------------------------------------------------------------------
 # B3LYP/6-311++G(d,p) empiricaldispersion=gd3bj scf=xqc pop=npa geom=c
 heck
 ----------------------------------------------------------------------

 ------------------------------------
 CID_150807190_JID_7211_Energie_anion
 ------------------------------------
 Structure from the checkpoint file:  "JID_7211.chk"
 Charge = -1 Multiplicity = 2

                         Standard orientation:
 ---------------------------------------------------------------------
 Center     Atomic      Atomic             Coordinates (Angstroms)
 Number     Number       Type             X           Y           Z
 ---------------------------------------------------------------------
      1          6           0        2.147742    2.712104    0.533174
      2          6           0        1.525737    2.058331   -0.711990
      3          6           0        0.655374    0.869670   -0.358733
      4          6           0        1.123188   -0.442907   -0.099787
      5          6           0        0.200352   -1.436926    0.263305
      6          6           0       -1.157611   -1.184816    0.378589
      7          6           0       -1.632970    0.105182    0.099530
      8          6           0       -0.717809    1.103467   -0.256085
      9          7           0       -2.988471    0.462811    0.207879
     10          6           0       -4.125529   -0.263325   -0.041771
     11         16           0       -5.636715    0.386481    0.283461
     12          7           0       -3.959247   -1.513582   -0.551507
     13          6           0        2.536562   -0.919985   -0.164734
     14          8           0        2.858192   -2.079630    0.022846
     15          8           0        3.437186    0.047475   -0.445506
     16          6           0        4.825402   -0.360266   -0.486061
     17          6           0        5.424102   -0.406285    0.910057
     18          1           0        1.369653    3.049314    1.226908
     19          1           0        2.751314    3.581041    0.248871
     20          1           0        2.793290    2.004717    1.059752
     21          1           0        0.900684    2.796817   -1.227375
     22          1           0        2.316274    1.763604   -1.402419
     23          1           0        0.588237   -2.426846    0.474357
     24          1           0       -1.831115   -1.961380    0.720251
     25          1           0       -1.094979    2.099712   -0.473995
     26          1           0       -3.189497    1.423509    0.452962
     27          1           0       -3.103549   -1.753426   -1.037215
     28          1           0       -4.807244   -1.961038   -0.868419
     29          1           0        4.891209   -1.332206   -0.979493
     30          1           0        5.306875    0.398914   -1.106545
     31          1           0        4.931786   -1.174997    1.510983
     32          1           0        6.491627   -0.645903    0.849255
     33          1           0        5.316629    0.561653    1.410450
 ---------------------------------------------------------------------

 SCF Done:  E(UB3LYP) =  -1125.41142055     A.U. after   24 cycles

 The electronic state is 2-A.
 Alpha  occ. eigenvalues --  -88.66669 -19.03578 -18.95867 -14.23754 -14.22677
 Alpha  occ. eigenvalues --  -10.15701 -10.14771 -10.12519 -10.07974 -10.07258
 Alpha  occ. eigenvalues --  -10.05747 -10.05700 -10.05419 -10.04540 -10.04375
 Alpha  occ. eigenvalues --  -10.04015 -10.03756  -7.75457  -5.71872  -5.71261
 Alpha  occ. eigenvalues --   -5.71033  -0.97452  -0.87923  -0.87174  -0.79473
 Alpha  occ. eigenvalues --   -0.73075  -0.67513  -0.66825  -0.64008  -0.60987
 Alpha  occ. eigenvalues --   -0.59545  -0.55510  -0.52907  -0.50237  -0.49574
 Alpha  occ. eigenvalues --   -0.46518  -0.44688  -0.43039  -0.40567  -0.40057
 Alpha  occ. eigenvalues --   -0.38033  -0.36709  -0.35173  -0.34619  -0.32895
 Alpha  occ. eigenvalues --   -0.32772  -0.31538  -0.30354  -0.30207  -0.29738
 Alpha  occ. eigenvalues --   -0.28555  -0.28296  -0.26999  -0.26259  -0.25678
 Alpha  occ. eigenvalues --   -0.24598  -0.24295  -0.23560  -0.21628  -0.21452
 Alpha  occ. eigenvalues --   -0.18664  -0.17689  -0.14437  -0.13114  -0.12681
 Alpha  occ. eigenvalues --   -0.09861  -0.09468   0.03105
 Alpha virt. eigenvalues --    0.06577   0.07869   0.08222   0.08747   0.09675
 Alpha virt. eigenvalues --    0.10006   0.10251   0.10656   0.11154   0.11220
 Alpha virt. eigenvalues --    0.11860   0.12364   0.12727   0.13214   0.13557

  Beta  occ. eigenvalues --  -88.66646 -19.03501 -18.95616 -14.23860 -14.22637
  Beta  occ. eigenvalues --  -10.15398 -10.14565 -10.12523 -10.07590 -10.07245
  Beta  occ. eigenvalues --  -10.05717 -10.05609 -10.05395 -10.04579 -10.04403
  Beta  occ. eigenvalues --  -10.03902 -10.03563  -7.75437  -5.71870  -5.71180
  Beta  occ. eigenvalues --   -5.71021  -0.97199  -0.87528  -0.86942  -0.79334
  Beta  occ. eigenvalues --   -0.72781  -0.67356  -0.66694  -0.63572  -0.60822
  Beta  occ. eigenvalues --   -0.59253  -0.55347  -0.52775  -0.50074  -0.49191
  Beta  occ. eigenvalues --   -0.46385  -0.44498  -0.42928  -0.40400  -0.39911
  Beta  occ. eigenvalues --   -0.37910  -0.36503  -0.34920  -0.34491  -0.32786
  Beta  occ. eigenvalues --   -0.32459  -0.31260  -0.30108  -0.30033  -0.29421
  Beta  occ. eigenvalues --   -0.28336  -0.27818  -0.26557  -0.26137  -0.25444
  Beta  occ. eigenvalues --   -0.24383  -0.23988  -0.23023  -0.21497  -0.21286
  Beta  occ. eigenvalues --   -0.18027  -0.16981  -0.14167  -0.12371  -0.11658
  Beta  occ. eigenvalues --   -0.09771  -0.08812
  Beta virt. eigenvalues --    0.06379   0.07722   0.08186   0.08455   0.08692
  Beta virt. eigenvalues --    0.09629   0.10277   0.10413   0.11094   0.11293
  Beta virt. eigenvalues --    0.11443   0.11881   0.12501   0.12964   0.13154

 Mulliken charges and spin densities:
               1          2
     1  C   -0.522207  -0.108111
     2  C   -0.467342   0.035205
     3  C    0.546749   0.171041
     4  C    0.452412   0.155603
     5  C   -0.156466   0.132653
     6  C   -0.190412  -0.029103
     7  C   -0.276581   0.130814
     8  C   -0.762720  -0.005657
     9  N    0.071560  -0.047285
    10  C    0.101057   0.116660
    11  S   -0.810615   0.087724
    12  N   -0.334957   0.033764
    13  C   -0.248182   0.051219
    14  O   -0.338933   0.092234
    15  O   -0.019643   0.011270
    16  C   -0.183283   0.032097
    17  C   -0.245324  -0.111468
    18  H    0.092471   0.038213
    19  H    0.059108   0.041076
    20  H    0.138380  -0.010248
    21  H    0.145373  -0.004499
    22  H    0.133650   0.028483
    23  H    0.175424  -0.005265
    24  H    0.208098  -0.001768
    25  H    0.089249   0.021007
    26  H    0.231488   0.019894
    27  H    0.258284   0.001529
    28  H    0.253027   0.002435
    29  H    0.172167  -0.004375
    30  H    0.092531   0.035516
    31  H    0.145884   0.032248
    32  H    0.077154   0.037485
    33  H    0.112598   0.019610
 Sum of Mulliken charges =  -1.00000   1.00000

 Dipole moment (field-independent basis, Debye):
    X=              6.3103    Y=              1.0236    Z=             -1.7679  Tot=              6.6327
 Quadrupole moment (field-independent basis, Debye-Ang):
   XX=           -202.4903   YY=           -125.8069   ZZ=           -119.1953
   XY=             14.6674   XZ=              5.1925   YZ=              2.2954

 Summary of Natural Population Analysis:

                                       Natural Population
                Natural  -----------------------------------------------
    Atom  No    Charge         Core      Valence    Rydberg      Total
 -----------------------------------------------------------------------
      C    1   -0.27834      0.99966     2.27397    0.00471     3.27834
      C    2   -0.19870      0.99961     2.19061    0.00848     3.19870
      C    3    0.03475      0.99950     1.95660    0.00915     2.96525
      C    4   -0.05769      0.99941     2.04928    0.00900     3.05769
      C    5   -0.04693      0.99956     2.03839    0.00898     3.04693
      C    6   -0.14599      0.99953     2.13804    0.00842     3.14599
      C    7    0.13960      0.99947     1.85076    0.01017     2.86040
      C    8   -0.12920      0.99950     2.12208    0.00763     3.12920
      N    9   -0.31221      0.99962     2.80128    0.01131     3.81221
      C   10    0.19283      0.99971     1.78766    0.01980     2.80717
      S   11   -0.17215      4.99959     3.15741    0.01515     8.17215
      N   12   -0.39648      0.99968     2.88768    0.00911     3.89648
      C   13    0.42618      0.99964     1.55034    0.02384     2.57382
      O   14   -0.30882      0.99987     3.30356    0.00538     4.30882
      O   15   -0.28622      0.99986     3.27700    0.00936     4.28622
      C   16   -0.01620      0.99959     2.00554    0.01107     3.01620
      C   17   -0.29926      0.99966     2.29519    0.00441     3.29926
      H   18    0.09349      0.00000     0.40524    0.00127     0.40651
      H   19    0.08861      0.00000     0.40994    0.00145     0.41139
      H   20    0.10168      0.00000     0.39684    0.00148     0.39832
      H   21    0.09006      0.00000     0.40831    0.00163     0.40994
      H   22    0.10826      0.00000     0.39027    0.00147     0.39174
      H   23    0.10889      0.00000     0.39044    0.00067     0.39111
      H   24    0.10243      0.00000     0.39601    0.00156     0.39757
      H   25    0.09136      0.00000     0.40711    0.00153     0.40864
      H   26    0.20190      0.00000     0.29637    0.00172     0.29810
      H   27    0.19666      0.00000     0.30175    0.00159     0.30334
      H   28    0.19555      0.00000     0.30287    0.00158     0.30445
      H   29    0.09398      0.00000     0.40399    0.00203     0.40602
      H   30    0.08244      0.00000     0.41614    0.00142     0.41756
      H   31    0.10914      0.00000     0.38930    0.00156     0.39086
      H   32    0.09354      0.00000     0.40514    0.00132     0.40646
      H   33    0.09684      0.00000     0.40170    0.00146     0.40316
 =======================================================================
   * Total *    0.00001     20.99348    45.80682    0.19969    66.99999

 Normal termination of Gaussian 16 at Fri Dec 11 12:52:59 2020.
