 Gaussian 16, Revision A.03,

 -----------------------------------------------------------
 # opt freq B3LYP/6-31G(d) empiricaldispersion=gd3bj scf=xqc
 -----------------------------------------------------------

 -------------------------------
 CID_153978471_JID_2302_neutraal
 -------------------------------
 Symbolic Z-matrix:
 Charge =  0 Multiplicity = 1

 SCF Done:  E(RB3LYP) =  -627.847678495     A.U. after   15 cycles
 SCF Done:  E(RB3LYP) =  -627.853447029     A.U. after   12 cycles
 SCF Done:  E(RB3LYP) =  -627.853040790     A.U. after   13 cycles
 SCF Done:  E(RB3LYP) =  -627.854229085     A.U. after   12 cycles
 SCF Done:  E(RB3LYP) =  -627.854445665     A.U. after   12 cycles
 SCF Done:  E(RB3LYP) =  -627.854672274     A.U. after   12 cycles
 SCF Done:  E(RB3LYP) =  -627.854879867     A.U. after   10 cycles
 SCF Done:  E(RB3LYP) =  -627.855039912     A.U. after   12 cycles
 SCF Done:  E(RB3LYP) =  -627.855051888     A.U. after   10 cycles
 SCF Done:  E(RB3LYP) =  -627.855056259     A.U. after   10 cycles
 SCF Done:  E(RB3LYP) =  -627.855058514     A.U. after   10 cycles
 SCF Done:  E(RB3LYP) =  -627.855059208     A.U. after    8 cycles
 SCF Done:  E(RB3LYP) =  -627.855059703     A.U. after    9 cycles
 SCF Done:  E(RB3LYP) =  -627.855059781     A.U. after    7 cycles
 Optimization completed.
    -- Stationary point found.
 Normal termination of Gaussian 16 at Wed Dec  9 16:59:56 2020.

 --------------------------------------------------------------------
 #N Geom=AllCheck Guess=TCheck SCRF=Check GenChk RB3LYP/6-31G(d) Freq
 --------------------------------------------------------------------

 Structure from the checkpoint file:  "JID_2302.chk"
 -------------------------------
 CID_153978471_JID_2302_neutraal
 -------------------------------
 Charge =  0 Multiplicity = 1

 SCF Done:  E(RB3LYP) =  -627.855059781     A.U. after    1 cycles

  Exact polarizability:  91.424   2.524  96.934  -0.965   0.337  61.196
 Approx polarizability: 118.275  -0.428 151.001  -3.705  -4.119  95.273

                      1                      2                      3
                      A                      A                      A
 Frequencies --     51.6012                89.5705               111.1663
 Red. masses --      5.9752                 3.8548                 6.0087
 Frc consts  --      0.0094                 0.0182                 0.0438
 IR Inten    --      6.8313                 1.5603                 3.4091

                      4                      5                      6
                      A                      A                      A
 Frequencies --    155.2683               242.8139               272.6971
 Red. masses --      3.2383                 2.3308                 4.3934
 Frc consts  --      0.0460                 0.0810                 0.1925
 IR Inten    --      2.5605                 5.3484                 8.1190

                      7                      8                      9
                      A                      A                      A
 Frequencies --    293.7841               345.7912               365.4270
 Red. masses --      3.0865                 4.0676                 7.3850
 Frc consts  --      0.1570                 0.2866                 0.5810
 IR Inten    --      3.3996                 7.5435                 1.2824

                     10                     11                     12
                      A                      A                      A
 Frequencies --    423.5031               485.6765               560.6795
 Red. masses --      8.6599                 5.5598                 3.0159
 Frc consts  --      0.9151                 0.7727                 0.5586
 IR Inten    --      4.6908                 8.5956                 5.6532

                     13                     14                     15
                      A                      A                      A
 Frequencies --    587.8702               626.4316               651.9797
 Red. masses --      5.6657                 3.5786                 4.9214
 Frc consts  --      1.1536                 0.8274                 1.2326
 IR Inten    --      3.9728                 8.3116                 3.2238

                     16                     17                     18
                      A                      A                      A
 Frequencies --    736.7766               798.1187               808.1634
 Red. masses --      8.4073                 3.0873                 5.8063
 Frc consts  --      2.6889                 1.1587                 2.2343
 IR Inten    --     16.4891                 7.9344                 4.2075

                     19                     20                     21
                      A                      A                      A
 Frequencies --    891.2994               907.4333               918.4053
 Red. masses --      2.0116                 3.6402                 1.8631
 Frc consts  --      0.9415                 1.7661                 0.9259
 IR Inten    --      1.8945                 0.1194                 2.5726

                     22                     23                     24
                      A                      A                      A
 Frequencies --    944.4666               990.9862               998.6590
 Red. masses --      2.5165                 2.0395                 3.3235
 Frc consts  --      1.3226                 1.1800                 1.9529
 IR Inten    --     11.7877                 2.9488                39.6448

                     25                     26                     27
                      A                      A                      A
 Frequencies --   1044.9271              1064.0787              1090.8769
 Red. masses --      8.0169                 2.0772                 5.1952
 Frc consts  --      5.1574                 1.3857                 3.6426
 IR Inten    --    245.1743                26.7523                18.9926

                     28                     29                     30
                      A                      A                      A
 Frequencies --   1138.3357              1155.0599              1183.1510
 Red. masses --      2.2348                 2.1307                 1.7605
 Frc consts  --      1.7062                 1.6749                 1.4520
 IR Inten    --     22.4838                 7.4884                17.5843

                     31                     32                     33
                      A                      A                      A
 Frequencies --   1198.0607              1228.0845              1257.9468
 Red. masses --      3.7203                 1.4224                 2.2019
 Frc consts  --      3.1462                 1.2640                 2.0530
 IR Inten    --     46.2512                13.2735               252.9056

                     34                     35                     36
                      A                      A                      A
 Frequencies --   1279.5068              1323.9286              1341.0214
 Red. masses --      1.4252                 1.4122                 1.0625
 Frc consts  --      1.3747                 1.4584                 1.1258
 IR Inten    --     22.2846                58.3427                 9.8734

                     37                     38                     39
                      A                      A                      A
 Frequencies --   1357.5247              1360.4048              1387.2048
 Red. masses --      1.2380                 1.5784                 2.6128
 Frc consts  --      1.3443                 1.7211                 2.9624
 IR Inten    --      1.8747                66.7083               233.5339

                     40                     41                     42
                      A                      A                      A
 Frequencies --   1390.5382              1400.5500              1487.8429
 Red. masses --      1.5883                 1.7086                 1.2962
 Frc consts  --      1.8095                 1.9747                 1.6906
 IR Inten    --    141.5551                15.2640                18.3194

                     43                     44                     45
                      A                      A                      A
 Frequencies --   1519.8210              1527.6793              1536.8004
 Red. masses --      1.0866                 1.0941                 1.0987
 Frc consts  --      1.4788                 1.5044                 1.5288
 IR Inten    --      5.1894                 3.0651                 9.0901

                     46                     47                     48
                      A                      A                      A
 Frequencies --   1550.3010              1847.5738              1858.2223
 Red. masses --      1.0957                12.6185                12.3686
 Frc consts  --      1.5516                25.3783                25.1632
 IR Inten    --      2.4319               540.7954               190.9905

                     49                     50                     51
                      A                      A                      A
 Frequencies --   3023.2158              3058.9103              3069.4146
 Red. masses --      1.0833                 1.0722                 1.0653
 Frc consts  --      5.8338                 5.9109                 5.9133
 IR Inten    --     12.5889                26.9667                28.0194

                     52                     53                     54
                      A                      A                      A
 Frequencies --   3083.7260              3095.1013              3129.8227
 Red. masses --      1.0646                 1.0644                 1.0983
 Frc consts  --      5.9647                 6.0074                 6.3389
 IR Inten    --     38.2395                 9.2793                26.1185

                     55                     56                     57
                      A                      A                      A
 Frequencies --   3150.7120              3154.4090              3182.5545
 Red. masses --      1.1024                 1.0983                 1.1059
 Frc consts  --      6.4479                 6.4388                 6.5994
 IR Inten    --     12.8274                 8.4364                20.4518

 - Thermochemistry -
 -------------------
 Temperature   298.150 Kelvin.  Pressure   1.00000 Atm.
 Atom     1 has atomic number  6 and mass  12.00000

 Molecular mass:   171.05316 amu.
 Principal axes and moments of inertia in atomic units:
                           1         2         3
     Eigenvalues --  1510.178101593.992802915.90668
           X           -0.65615   0.75462   0.00395
           Y            0.75460   0.65608   0.01142
           Z           -0.00603  -0.01048   0.99993
 This molecule is an asymmetric top.
 Rotational symmetry number  1.
 Warning -- assumption of classical behavior for rotation
           may cause significant error
 Rotational temperatures (Kelvin)      0.05735     0.05434     0.02970
 Rotational constants (GHZ):           1.19505     1.13221     0.61893
 Zero-point vibrational energy     441038.5 (Joules/Mol)
                                  105.41073 (Kcal/Mol)
 Warning -- explicit consideration of  13 degrees of freedom as
           vibrations may cause significant error
 Vibrational temperatures:     74.24   128.87   159.94   223.40   349.36
          (Kelvin)            392.35   422.69   497.52   525.77   609.33
                              698.78   806.69   845.81   901.30   938.05
                             1060.06  1148.31  1162.77  1282.38  1305.59
                             1321.38  1358.88  1425.81  1436.85  1503.42
                             1530.97  1569.53  1637.81  1661.87  1702.29
                             1723.74  1766.94  1809.90  1840.92  1904.84
                             1929.43  1953.18  1957.32  1995.88  2000.67
                             2015.08  2140.67  2186.68  2197.99  2211.11
                             2230.54  2658.25  2673.57  4349.73  4401.09
                             4416.20  4436.79  4453.16  4503.12  4533.17
                             4538.49  4578.99

 Zero-point correction=                           0.167983 (Hartree/Particle)
 Thermal correction to Energy=                    0.177811
 Thermal correction to Enthalpy=                  0.178755
 Thermal correction to Gibbs Free Energy=         0.131970
 Sum of electronic and zero-point Energies=           -627.687077
 Sum of electronic and thermal Energies=              -627.677249
 Sum of electronic and thermal Enthalpies=            -627.676304
 Sum of electronic and thermal Free Energies=         -627.723090

                     E (Thermal)             CV                S
                      KCal/Mol        Cal/Mol-Kelvin    Cal/Mol-Kelvin
 Total                  111.578             37.130             98.469
 Electronic               0.000              0.000              0.000
 Translational            0.889              2.981             41.318
 Rotational               0.889              2.981             30.330
 Vibrational            109.801             31.169             26.821
 Vibration     1          0.596              1.977              4.755
 Vibration     2          0.602              1.957              3.669
 Vibration     3          0.607              1.940              3.248
 Vibration     4          0.620              1.897              2.607
 Vibration     5          0.659              1.775              1.782
 Vibration     6          0.676              1.724              1.579
 Vibration     7          0.689              1.685              1.452
 Vibration     8          0.724              1.584              1.185
 Vibration     9          0.739              1.543              1.099
 Vibration    10          0.786              1.419              0.880
 Vibration    11          0.842              1.282              0.695
 Vibration    12          0.916              1.116              0.522
 Vibration    13          0.945              1.058              0.471

                           ! Non-Optimized Parameters !
 Normal termination of Gaussian 16 at Wed Dec  9 17:05:00 2020.

 ----------------------------------------------------------------------
 # B3LYP/6-311++G(d,p) empiricaldispersion=gd3bj scf=xqc pop=npa geom=c
 heck
 ----------------------------------------------------------------------

 ---------------------------------------
 CID_153978471_JID_2302_Energie_neutraal
 ---------------------------------------
 Structure from the checkpoint file:  "JID_2302.chk"
 Charge =  0 Multiplicity = 1

 SCF Done:  E(RB3LYP) =  -628.036863070     A.U. after   14 cycles
 Normal termination of Gaussian 16 at Wed Dec  9 17:07:11 2020.

 ----------------------------------------------------------------------
 # B3LYP/6-311++G(d,p) empiricaldispersion=gd3bj scf=xqc pop=npa geom=c
 heck
 ----------------------------------------------------------------------

 -------------------------------------
 CID_153978471_JID_2302_Energie_kation
 -------------------------------------
 Structure from the checkpoint file:  "JID_2302.chk"
 Charge =  1 Multiplicity = 2

 SCF Done:  E(UB3LYP) =  -627.690994619     A.U. after   22 cycles
 Normal termination of Gaussian 16 at Wed Dec  9 17:11:44 2020.
 Gaussian 16:  ES64L-G16RevA.03 25-Dec-2016

 ----------------------------------------------------------------------
 # B3LYP/6-311++G(d,p) empiricaldispersion=gd3bj scf=xqc pop=npa geom=c
 heck
 ----------------------------------------------------------------------

 ------------------------------------
 CID_153978471_JID_2302_Energie_anion
 ------------------------------------
 Structure from the checkpoint file:  "JID_2302.chk"
 Charge = -1 Multiplicity = 2

                         Standard orientation:
 ---------------------------------------------------------------------
 Center     Atomic      Atomic             Coordinates (Angstroms)
 Number     Number       Type             X           Y           Z
 ---------------------------------------------------------------------
      1          6           0       -2.651077   -0.600283   -0.143256
      2          6           0       -1.510997   -1.622221   -0.230301
      3          6           0       -0.266233   -0.751400   -0.454079
      4          6           0        1.015392   -1.438499    0.012756
      5          8           0        1.081976   -2.632751    0.163540
      6          8           0        2.145920   -0.692438    0.115117
      7          6           0        2.132314    0.716711    0.333148
      8          8           0        1.331995    1.468006   -0.549572
      9          6           0        0.028000    1.686178   -0.121572
     10          8           0       -0.437451    2.799674   -0.075744
     11          7           0       -0.600297    0.522622    0.223883
     12          6           0       -2.017624    0.556251    0.636675
     13          1           0       -3.542926   -0.998454    0.347775
     14          1           0       -2.938650   -0.260762   -1.145164
     15          1           0       -1.402873   -2.172024    0.709471
     16          1           0       -1.632277   -2.357742   -1.027682
     17          1           0       -0.121013   -0.557598   -1.526955
     18          1           0        3.160935    1.024969    0.154425
     19          1           0        1.839495    0.910200    1.369725
     20          1           0       -2.432773    1.538004    0.405223
     21          1           0       -2.086009    0.394713    1.719042
 ---------------------------------------------------------------------

 SCF Done:  E(UB3LYP) =  -628.030005836     A.U. after   29 cycles

 The electronic state is 2-A.
 Alpha  occ. eigenvalues --  -19.06423 -19.05947 -19.00254 -18.99186 -14.24545
 Alpha  occ. eigenvalues --  -10.21934 -10.19067 -10.18112 -10.12013 -10.09907
 Alpha  occ. eigenvalues --  -10.06704 -10.06673  -1.02301  -0.98697  -0.93269
 Alpha  occ. eigenvalues --   -0.90622  -0.85241  -0.69425  -0.65924  -0.62717
 Alpha  occ. eigenvalues --   -0.56268  -0.50034  -0.49595  -0.47850  -0.45460
 Alpha  occ. eigenvalues --   -0.41902  -0.39475  -0.37238  -0.36120  -0.34592
 Alpha  occ. eigenvalues --   -0.33593  -0.32924  -0.32183  -0.30528  -0.29647
 Alpha  occ. eigenvalues --   -0.27169  -0.25873  -0.25223  -0.24086  -0.23824
 Alpha  occ. eigenvalues --   -0.22418  -0.20325  -0.18566  -0.17829  -0.14365
 Alpha  occ. eigenvalues --    0.04631
 Alpha virt. eigenvalues --    0.07529   0.07776   0.08839   0.09797   0.10238
 Alpha virt. eigenvalues --    0.10734   0.11852   0.12372   0.12641   0.13184
 Alpha virt. eigenvalues --    0.13450   0.15429   0.17001   0.17088   0.17672

  Beta  occ. eigenvalues --  -19.06415 -19.05940 -19.00246 -18.99025 -14.24518
  Beta  occ. eigenvalues --  -10.21931 -10.19031 -10.17929 -10.12009 -10.09879
  Beta  occ. eigenvalues --  -10.06664 -10.06640  -1.02253  -0.98574  -0.93181
  Beta  occ. eigenvalues --   -0.90466  -0.85192  -0.69375  -0.65779  -0.62636
  Beta  occ. eigenvalues --   -0.56151  -0.49900  -0.49525  -0.47715  -0.45331
  Beta  occ. eigenvalues --   -0.41779  -0.39358  -0.37126  -0.35966  -0.34511
  Beta  occ. eigenvalues --   -0.33468  -0.32735  -0.32016  -0.30440  -0.29519
  Beta  occ. eigenvalues --   -0.27029  -0.25694  -0.25145  -0.23995  -0.23755
  Beta  occ. eigenvalues --   -0.22374  -0.19933  -0.18541  -0.17734  -0.14271
  Beta virt. eigenvalues --    0.07491   0.08288   0.09014   0.09725   0.10222
  Beta virt. eigenvalues --    0.11141   0.11498   0.12049   0.12751   0.13096
  Beta virt. eigenvalues --    0.13420   0.13532   0.15627   0.16949   0.17047

 Mulliken charges and spin densities:
               1          2
     1  C   -0.027536  -0.287151
     2  C    0.190147  -0.599091
     3  C   -0.575927   0.390663
     4  C    0.783842  -0.637084
     5  O   -0.341068   0.073780
     6  O   -0.177092   0.049192
     7  C    0.252594  -0.489758
     8  O   -0.148835   0.023201
     9  C    0.410418  -0.040654
    10  O   -0.354511  -0.007634
    11  N   -0.159671   0.267728
    12  C    1.190069  -1.524946
    13  H   -0.518345   0.689833
    14  H   -0.186373   0.341462
    15  H    0.045471   0.151113
    16  H   -0.320017   0.502383
    17  H   -0.455885   0.729925
    18  H   -0.050683   0.249289
    19  H   -0.257903   0.466406
    20  H    0.102456   0.080221
    21  H   -0.401150   0.571119
 Sum of Mulliken charges =  -1.00000   1.00000

 Dipole moment (field-independent basis, Debye):
    X=              2.6105    Y=              1.7546    Z=              0.3452  Tot=              3.1642
 Quadrupole moment (field-independent basis, Debye-Ang):
   XX=           -108.1904   YY=           -115.6919   ZZ=            -98.5239
   XY=              1.3761   XZ=              1.2549   YZ=              0.4559

 Summary of Natural Population Analysis:

                                       Natural Population
                Natural  -----------------------------------------------
    Atom  No    Charge         Core      Valence    Rydberg      Total
 -----------------------------------------------------------------------
      C    1   -0.19376      0.99963     2.18734    0.00679     3.19376
      C    2   -0.18799      0.99962     2.17986    0.00851     3.18799
      C    3   -0.05553      0.99954     2.04206    0.01393     3.05553
      C    4    0.43302      0.99963     1.54327    0.02407     2.56698
      O    5   -0.27874      0.99987     3.27269    0.00619     4.27874
      O    6   -0.28889      0.99985     3.27959    0.00945     4.28889
      C    7    0.14606      0.99959     1.83945    0.01490     2.85394
      O    8   -0.29633      0.99986     3.28830    0.00818     4.29633
      C    9    0.47339      0.99962     1.50079    0.02620     2.52661
      O   10   -0.30910      0.99986     3.30339    0.00584     4.30910
      N   11   -0.27076      0.99963     2.75951    0.01162     3.77076
      C   12   -0.07918      0.99962     2.07044    0.00912     3.07918
      H   13    0.10590      0.00000     0.39162    0.00248     0.39410
      H   14    0.09911      0.00000     0.39878    0.00211     0.40089
      H   15    0.10679      0.00000     0.39140    0.00181     0.39321
      H   16    0.11064      0.00000     0.38775    0.00161     0.38936
      H   17    0.11420      0.00000     0.38165    0.00415     0.38580
      H   18    0.08610      0.00000     0.41233    0.00158     0.41390
      H   19    0.08023      0.00000     0.41718    0.00259     0.41977
      H   20    0.10897      0.00000     0.38945    0.00157     0.39103
      H   21    0.09588      0.00000     0.40175    0.00237     0.40412
 =======================================================================
   * Total *   -0.00000     11.99633    32.83859    0.16507    45.00000

 Normal termination of Gaussian 16 at Wed Dec  9 17:17:29 2020.
