 Gaussian 16, Revision A.03,

 -----------------------------------------------------------
 # opt freq B3LYP/6-31G(d) empiricaldispersion=gd3bj scf=xqc
 -----------------------------------------------------------

 --------------------------------
 CID_105533424_JID_10264_neutraal
 --------------------------------
 Symbolic Z-matrix:
 Charge =  0 Multiplicity = 1

 SCF Done:  E(RB3LYP) =  -1178.84428565     A.U. after   15 cycles
 SCF Done:  E(RB3LYP) =  -1178.85695023     A.U. after   13 cycles
 SCF Done:  E(RB3LYP) =  -1178.85900763     A.U. after   13 cycles
 SCF Done:  E(RB3LYP) =  -1178.86010001     A.U. after   13 cycles
 SCF Done:  E(RB3LYP) =  -1178.86044246     A.U. after   13 cycles
 SCF Done:  E(RB3LYP) =  -1178.86092778     A.U. after   11 cycles
 SCF Done:  E(RB3LYP) =  -1178.86107618     A.U. after   11 cycles
 SCF Done:  E(RB3LYP) =  -1178.86110876     A.U. after   10 cycles
 SCF Done:  E(RB3LYP) =  -1178.86114633     A.U. after   11 cycles
 SCF Done:  E(RB3LYP) =  -1178.86116834     A.U. after   11 cycles
 SCF Done:  E(RB3LYP) =  -1178.86117168     A.U. after   10 cycles
 SCF Done:  E(RB3LYP) =  -1178.86117305     A.U. after    9 cycles
 SCF Done:  E(RB3LYP) =  -1178.86117311     A.U. after    7 cycles
 SCF Done:  E(RB3LYP) =  -1178.86117313     A.U. after    7 cycles
 Optimization completed.
    -- Stationary point found.
 Normal termination of Gaussian 16 at Mon Dec 14 13:36:09 2020.

 --------------------------------------------------------------------
 #N Geom=AllCheck Guess=TCheck SCRF=Check GenChk RB3LYP/6-31G(d) Freq
 --------------------------------------------------------------------

 Structure from the checkpoint file:  "JID_10264.chk"
 --------------------------------
 CID_105533424_JID_10264_neutraal
 --------------------------------
 Charge =  0 Multiplicity = 1

 SCF Done:  E(RB3LYP) =  -1178.86117313     A.U. after    1 cycles

  Exact polarizability: 382.745 -12.998 212.147  -1.391  -4.816  71.818
 Approx polarizability: 568.507 -35.475 398.204  -5.404  -8.311 119.317

                      1                      2                      3
                      A                      A                      A
 Frequencies --     26.0529                43.5772                71.6504
 Red. masses --      5.0831                 6.5778                 5.7572
 Frc consts  --      0.0020                 0.0074                 0.0174
 IR Inten    --      2.1482                 0.4969                 1.6955

                      4                      5                      6
                      A                      A                      A
 Frequencies --    114.1573               168.0623               176.4900
 Red. masses --      6.2349                 4.2166                 4.1771
 Frc consts  --      0.0479                 0.0702                 0.0767
 IR Inten    --      0.0329                 1.3318                 3.1092

                      7                      8                      9
                      A                      A                      A
 Frequencies --    205.1926               233.1627               235.2561
 Red. masses --      4.1756                 3.8534                 9.0147
 Frc consts  --      0.1036                 0.1234                 0.2940
 IR Inten    --      2.8834                 4.0949                 0.8313

                     10                     11                     12
                      A                      A                      A
 Frequencies --    257.5334               274.0092               333.0543
 Red. masses --      1.6052                 2.6329                 4.8903
 Frc consts  --      0.0627                 0.1165                 0.3196
 IR Inten    --     21.4427                15.6806                 1.3564

                     13                     14                     15
                      A                      A                      A
 Frequencies --    351.5734               407.5148               438.3632
 Red. masses --      5.2907                 3.6141                 4.3359
 Frc consts  --      0.3853                 0.3536                 0.4909
 IR Inten    --      4.9899                 0.3843                 1.0356

                     16                     17                     18
                      A                      A                      A
 Frequencies --    447.1410               466.9424               489.6028
 Red. masses --      6.2660                 5.3075                 3.1059
 Frc consts  --      0.7381                 0.6818                 0.4387
 IR Inten    --      1.7086                14.9374                 2.4075

                     19                     20                     21
                      A                      A                      A
 Frequencies --    503.1476               534.5436               543.0781
 Red. masses --      3.7947                 6.9607                 8.8856
 Frc consts  --      0.5660                 1.1718                 1.5440
 IR Inten    --      6.1376                 0.1287                 2.9046

                     22                     23                     24
                      A                      A                      A
 Frequencies --    553.9359               559.5154               573.6983
 Red. masses --      6.0512                 3.8273                 6.1207
 Frc consts  --      1.0940                 0.7059                 1.1869
 IR Inten    --      1.1503                 6.2864                 5.9719

                     25                     26                     27
                      A                      A                      A
 Frequencies --    617.8422               643.3030               649.3435
 Red. masses --      7.6155                 4.6026                 4.8351
 Frc consts  --      1.7128                 1.1222                 1.2012
 IR Inten    --      2.2381                22.7920                11.4081

                     28                     29                     30
                      A                      A                      A
 Frequencies --    699.4548               710.9107               737.3782
 Red. masses --      1.4071                 2.2041                 6.4787
 Frc consts  --      0.4056                 0.6563                 2.0755
 IR Inten    --     76.5253                 8.3677                 6.6841

                     31                     32                     33
                      A                      A                      A
 Frequencies --    762.5361               773.4943               775.7823
 Red. masses --      1.9514                 2.8818                 1.5851
 Frc consts  --      0.6685                 1.0158                 0.5621
 IR Inten    --     61.4789               142.0998                16.9000

                     34                     35                     36
                      A                      A                      A
 Frequencies --    791.3240               802.8679               827.6172
 Red. masses --      5.4520                 3.4054                 6.9831
 Frc consts  --      2.0115                 1.2933                 2.8181
 IR Inten    --      3.6890                 1.3397                14.8189

                     37                     38                     39
                      A                      A                      A
 Frequencies --    847.9607               851.3931               889.2694
 Red. masses --      1.5544                 3.9043                 1.6721
 Frc consts  --      0.6585                 1.6674                 0.7791
 IR Inten    --     47.7016                 7.4031                 1.0040

                     40                     41                     42
                      A                      A                      A
 Frequencies --    921.9604               930.2810               955.5230
 Red. masses --      3.9813                 1.7654                 1.4745
 Frc consts  --      1.9939                 0.9002                 0.7932
 IR Inten    --      5.0987                 2.5147                 7.3127

                     43                     44                     45
                      A                      A                      A
 Frequencies --    960.5889               968.2386               988.3980
 Red. masses --      1.3244                 4.3230                 1.3195
 Frc consts  --      0.7200                 2.3878                 0.7595
 IR Inten    --      0.8220                 3.1337                 1.6957

                     46                     47                     48
                      A                      A                      A
 Frequencies --    997.1698              1047.9201              1077.6899
 Red. masses --      1.2778                 2.2176                 3.1748
 Frc consts  --      0.7486                 1.4348                 2.1725
 IR Inten    --      0.0163                 2.2409                33.7464

                     49                     50                     51
                      A                      A                      A
 Frequencies --   1102.3742              1142.4291              1157.3502
 Red. masses --      2.6018                 2.0281                 1.5912
 Frc consts  --      1.8629                 1.5596                 1.2558
 IR Inten    --      6.4956                36.0950                10.9701

                     52                     53                     54
                      A                      A                      A
 Frequencies --   1172.0909              1184.7690              1187.6946
 Red. masses --      2.0589                 1.1986                 1.1878
 Frc consts  --      1.6665                 0.9913                 0.9872
 IR Inten    --     18.0339                 3.4479                 1.8396

                     55                     56                     57
                      A                      A                      A
 Frequencies --   1239.6932              1254.4609              1280.5881
 Red. masses --      1.5772                 2.0959                 2.4390
 Frc consts  --      1.4281                 1.9433                 2.3565
 IR Inten    --     18.2660                 3.5596                52.4603

                     58                     59                     60
                      A                      A                      A
 Frequencies --   1292.4273              1322.1369              1342.6619
 Red. masses --      2.2859                 3.6669                 2.1450
 Frc consts  --      2.2497                 3.7766                 2.2783
 IR Inten    --     21.7059                 5.1560                15.8526

                     61                     62                     63
                      A                      A                      A
 Frequencies --   1366.5989              1372.3681              1408.8504
 Red. masses --      3.7860                 3.7503                 2.9215
 Frc consts  --      4.1660                 4.1616                 3.4165
 IR Inten    --      1.5535                47.5301                20.0338

                     64                     65                     66
                      A                      A                      A
 Frequencies --   1419.7856              1438.7423              1474.1625
 Red. masses --      7.7371                 3.3664                 2.1954
 Frc consts  --      9.1892                 4.1057                 2.8110
 IR Inten    --      1.5299               117.5707                18.3171

                     67                     68                     69
                      A                      A                      A
 Frequencies --   1508.8938              1519.8725              1562.4516
 Red. masses --      3.4730                 3.2944                 3.3903
 Frc consts  --      4.6587                 4.4837                 4.8764
 IR Inten    --      4.3889                 6.1151                65.8500

                     70                     71                     72
                      A                      A                      A
 Frequencies --   1573.2855              1609.6998              1630.7580
 Red. masses --      5.2144                 7.0130                 4.7326
 Frc consts  --      7.6045                10.7065                 7.4153
 IR Inten    --      2.4644                13.0544                41.5634

                     73                     74                     75
                      A                      A                      A
 Frequencies --   1639.8362              1659.2962              1679.8624
 Red. masses --      5.8373                 6.0418                 5.9645
 Frc consts  --      9.2483                 9.8008                 9.9167
 IR Inten    --     81.7433                57.8204                13.6112

                     76                     77                     78
                      A                      A                      A
 Frequencies --   1695.8463              3181.6932              3186.7306
 Red. masses --      1.2411                 1.0872                 1.0889
 Frc consts  --      2.1029                 6.4842                 6.5154
 IR Inten    --     79.6570                 2.2778                29.9366

                     79                     80                     81
                      A                      A                      A
 Frequencies --   3190.5858              3193.8580              3208.8909
 Red. masses --      1.0904                 1.0889                 1.0938
 Frc consts  --      6.5399                 6.5445                 6.6359
 IR Inten    --      3.4944                12.3866                31.0563

                     82                     83                     84
                      A                      A                      A
 Frequencies --   3220.2558              3222.8899              3230.3178
 Red. masses --      1.0958                 1.0903                 1.0924
 Frc consts  --      6.6951                 6.6725                 6.7161
 IR Inten    --     17.6569                 1.2610                 9.9610

                     85                     86                     87
                      A                      A                      A
 Frequencies --   3255.7435              3522.4988              3619.8441
 Red. masses --      1.0933                 1.0489                 1.0959
 Frc consts  --      6.8278                 7.6677                 8.4607
 IR Inten    --      4.6547                 4.8310                 7.5397

 - Thermochemistry -
 -------------------
 Temperature   298.150 Kelvin.  Pressure   1.00000 Atm.
 Atom     1 has atomic number  6 and mass  12.00000

 Molecular mass:   277.06737 amu.
 Principal axes and moments of inertia in atomic units:
                           1         2         3
     Eigenvalues --  1998.58782********************
           X            0.99997   0.00733   0.00013
           Y           -0.00733   0.99995  -0.00652
           Z           -0.00018   0.00652   0.99998
 This molecule is an asymmetric top.
 Rotational symmetry number  1.
 Warning -- assumption of classical behavior for rotation
           may cause significant error
 Rotational temperatures (Kelvin)      0.04334     0.00688     0.00597
 Rotational constants (GHZ):           0.90301     0.14334     0.12440
 Zero-point vibrational energy     619114.1 (Joules/Mol)
                                  147.97183 (Kcal/Mol)
 Warning -- explicit consideration of  25 degrees of freedom as
           vibrations may cause significant error
 Vibrational temperatures:     37.48    62.70   103.09   164.25   241.80
          (Kelvin)            253.93   295.23   335.47   338.48   370.53
                              394.24   479.19   505.84   586.32   630.71
                              643.34   671.83   704.43   723.92   769.09
                              781.37   796.99   805.02   825.42   888.94
                              925.57   934.26  1006.36  1022.84  1060.92
                             1097.12  1112.89  1116.18  1138.54  1155.15
                             1190.76  1220.03  1224.96  1279.46  1326.50
                             1338.47  1374.78  1382.07  1393.08  1422.08
                             1434.70  1507.72  1550.56  1586.07  1643.70
                             1665.17  1686.38  1704.62  1708.83  1783.64
                             1804.89  1842.48  1859.51  1902.26  1931.79
                             1966.23  1974.53  2027.02  2042.75  2070.03
                             2120.99  2170.96  2186.76  2248.02  2263.61
                             2316.00  2346.30  2359.36  2387.36  2416.95
                             2439.94  4577.75  4584.99  4590.54  4595.25
                             4616.88  4633.23  4637.02  4647.71  4684.29
                             5068.09  5208.15

 Zero-point correction=                           0.235808 (Hartree/Particle)
 Thermal correction to Energy=                    0.250856
 Thermal correction to Enthalpy=                  0.251800
 Thermal correction to Gibbs Free Energy=         0.192640
 Sum of electronic and zero-point Energies=          -1178.625365
 Sum of electronic and thermal Energies=             -1178.610317
 Sum of electronic and thermal Enthalpies=           -1178.609373
 Sum of electronic and thermal Free Energies=        -1178.668533

                     E (Thermal)             CV                S
                      KCal/Mol        Cal/Mol-Kelvin    Cal/Mol-Kelvin
 Total                  157.415             61.367            124.513
 Electronic               0.000              0.000              0.000
 Translational            0.889              2.981             42.756
 Rotational               0.889              2.981             34.256
 Vibrational            155.637             55.405             47.501
 Vibration     1          0.593              1.985              6.109
 Vibration     2          0.595              1.980              5.089
 Vibration     3          0.598              1.968              4.107
 Vibration     4          0.607              1.938              3.197
 Vibration     5          0.625              1.882              2.457
 Vibration     6          0.628              1.871              2.365
 Vibration     7          0.640              1.832              2.086
 Vibration     8          0.654              1.790              1.854
 Vibration     9          0.655              1.787              1.838
 Vibration    10          0.667              1.750              1.678
 Vibration    11          0.676              1.721              1.571
 Vibration    12          0.715              1.609              1.245
 Vibration    13          0.728              1.572              1.159
 Vibration    14          0.772              1.454              0.935
 Vibration    15          0.799              1.387              0.832
 Vibration    16          0.806              1.367              0.804
 Vibration    17          0.824              1.323              0.746
 Vibration    18          0.845              1.273              0.685
 Vibration    19          0.858              1.243              0.650
 Vibration    20          0.890              1.174              0.577
 Vibration    21          0.898              1.155              0.559
 Vibration    22          0.909              1.131              0.536
 Vibration    23          0.915              1.119              0.525
 Vibration    24          0.930              1.088              0.497
 Vibration    25          0.978              0.994              0.420

 Optimization completed.
    -- Stationary point found.
 Normal termination of Gaussian 16 at Mon Dec 14 13:49:27 2020.

 ----------------------------------------------------------------------
 # B3LYP/6-311++G(d,p) empiricaldispersion=gd3bj scf=xqc pop=npa geom=c
 heck
 ----------------------------------------------------------------------

 ----------------------------------------
 CID_105533424_JID_10264_Energie_neutraal
 ----------------------------------------
 Structure from the checkpoint file:  "JID_10264.chk"
 Charge =  0 Multiplicity = 1

 SCF Done:  E(RB3LYP) =  -1179.08422054     A.U. after   16 cycles
 Normal termination of Gaussian 16 at Mon Dec 14 13:54:30 2020.

 ----------------------------------------------------------------------
 # B3LYP/6-311++G(d,p) empiricaldispersion=gd3bj scf=xqc pop=npa geom=c
 heck
 ----------------------------------------------------------------------

 --------------------------------------
 CID_105533424_JID_10264_Energie_kation
 --------------------------------------
 Structure from the checkpoint file:  "JID_10264.chk"
 Charge =  1 Multiplicity = 2

 SCF Done:  E(UB3LYP) =  -1178.81530389     A.U. after   26 cycles
 Normal termination of Gaussian 16 at Mon Dec 14 14:06:26 2020.
 Gaussian 16:  ES64L-G16RevA.03 25-Dec-2016

 ----------------------------------------------------------------------
 # B3LYP/6-311++G(d,p) empiricaldispersion=gd3bj scf=xqc pop=npa geom=c
 heck
 ----------------------------------------------------------------------

 -------------------------------------
 CID_105533424_JID_10264_Energie_anion
 -------------------------------------
 Structure from the checkpoint file:  "JID_10264.chk"
 Charge = -1 Multiplicity = 2

                         Standard orientation:
 ---------------------------------------------------------------------
 Center     Atomic      Atomic             Coordinates (Angstroms)
 Number     Number       Type             X           Y           Z
 ---------------------------------------------------------------------
      1          6           0       -5.800910    0.708196   -0.038211
      2          6           0       -4.997022    1.852845   -0.264549
      3          6           0       -3.624831    1.751066   -0.296673
      4          6           0       -2.992777    0.494878   -0.102809
      5          6           0       -3.806190   -0.659195    0.126765
      6          6           0       -5.216344   -0.523462    0.154051
      7          6           0       -3.132195   -1.889068    0.327021
      8          6           0       -1.762166   -1.930753    0.285727
      9          6           0       -1.032208   -0.731250    0.032305
     10          7           0       -1.634994    0.435838   -0.147636
     11          6           0        0.448842   -0.727818   -0.023529
     12          6           0        1.147552    0.475883    0.110832
     13          6           0        2.540096    0.457983    0.053829
     14          6           0        3.166838   -0.801251   -0.124263
     15          7           0        2.530393   -1.960090   -0.266763
     16          6           0        1.198252   -1.908230   -0.220778
     17         16           0        4.917508   -0.657774   -0.125934
     18          6           0        4.782244    1.085678    0.076369
     19          6           0        3.497649    1.537392    0.162327
     20          7           0        3.086545    2.855020    0.399626
     21          1           0       -6.882165    0.807581   -0.016882
     22          1           0       -5.473107    2.817719   -0.414089
     23          1           0       -2.989447    2.613626   -0.469442
     24          1           0       -5.826116   -1.406257    0.329747
     25          1           0       -3.709658   -2.789106    0.523383
     26          1           0       -1.238591   -2.861713    0.468018
     27          1           0        0.586653    1.391347    0.265673
     28          1           0        0.695075   -2.859983   -0.368642
     29          1           0        5.684160    1.681250    0.128187
     30          1           0        2.272309    3.121478   -0.144801
     31          1           0        3.826171    3.535708    0.266717
 ---------------------------------------------------------------------

 SCF Done:  E(UB3LYP) =  -1179.11156939     A.U. after   27 cycles

 The electronic state is 2-A.
 Alpha  occ. eigenvalues --  -88.76025 -14.23149 -14.19363 -14.14872 -10.11388
 Alpha  occ. eigenvalues --  -10.11041 -10.08879 -10.08809 -10.07383 -10.07074
 Alpha  occ. eigenvalues --  -10.06821 -10.05587 -10.05300 -10.05107 -10.05046
 Alpha  occ. eigenvalues --  -10.04739 -10.04711 -10.04603 -10.04319 -10.03675
 Alpha  occ. eigenvalues --   -7.84640  -5.80953  -5.80618  -5.80154  -0.84101
 Alpha  occ. eigenvalues --   -0.82399  -0.80457  -0.73995  -0.72145  -0.68674
 Alpha  occ. eigenvalues --   -0.67245  -0.63841  -0.61276  -0.60951  -0.59766
 Alpha  occ. eigenvalues --   -0.52824  -0.51955  -0.49824  -0.48131  -0.47079
 Alpha  occ. eigenvalues --   -0.46232  -0.41780  -0.41474  -0.39085  -0.38803
 Alpha  occ. eigenvalues --   -0.38059  -0.36006  -0.34795  -0.32549  -0.31809
 Alpha  occ. eigenvalues --   -0.31347  -0.30663  -0.29391  -0.28861  -0.28353
 Alpha  occ. eigenvalues --   -0.28060  -0.27721  -0.26162  -0.25407  -0.24000
 Alpha  occ. eigenvalues --   -0.23237  -0.22704  -0.22294  -0.20420  -0.18086
 Alpha  occ. eigenvalues --   -0.17376  -0.14902  -0.14564  -0.11886  -0.11434
 Alpha  occ. eigenvalues --   -0.10749  -0.09665   0.02289
 Alpha virt. eigenvalues --    0.06221   0.07085   0.07946   0.08382   0.08573
 Alpha virt. eigenvalues --    0.08992   0.09792   0.10709   0.10985   0.11413
 Alpha virt. eigenvalues --    0.11835   0.12323   0.12678   0.13036   0.13196

  Beta  occ. eigenvalues --  -88.76029 -14.23147 -14.19312 -14.14458 -10.11352
  Beta  occ. eigenvalues --  -10.10880 -10.08892 -10.08817 -10.07446 -10.07136
  Beta  occ. eigenvalues --  -10.06631 -10.05566 -10.05331 -10.05042 -10.04827
  Beta  occ. eigenvalues --  -10.04815 -10.04612 -10.04478 -10.04027 -10.03493
  Beta  occ. eigenvalues --   -7.84643  -5.80958  -5.80623  -5.80157  -0.83975
  Beta  occ. eigenvalues --   -0.82341  -0.79911  -0.73930  -0.71842  -0.68338
  Beta  occ. eigenvalues --   -0.66852  -0.63649  -0.61051  -0.60758  -0.59644
  Beta  occ. eigenvalues --   -0.52510  -0.51646  -0.49724  -0.47923  -0.46819
  Beta  occ. eigenvalues --   -0.46091  -0.41708  -0.41368  -0.38920  -0.38624
  Beta  occ. eigenvalues --   -0.37948  -0.35864  -0.34694  -0.32464  -0.31623
  Beta  occ. eigenvalues --   -0.31076  -0.30480  -0.29280  -0.28722  -0.28034
  Beta  occ. eigenvalues --   -0.27658  -0.27429  -0.25970  -0.25238  -0.23902
  Beta  occ. eigenvalues --   -0.23109  -0.22159  -0.21877  -0.20018  -0.17105
  Beta  occ. eigenvalues --   -0.16393  -0.14820  -0.13989  -0.11437  -0.10896
  Beta  occ. eigenvalues --   -0.10132  -0.08702
  Beta virt. eigenvalues --    0.06191   0.07166   0.07611   0.07927   0.08488
  Beta virt. eigenvalues --    0.08977   0.09310   0.09767   0.10706   0.10982
  Beta virt. eigenvalues --    0.11830   0.12024   0.12662   0.12849   0.13089

 Mulliken charges and spin densities:
               1          2
     1  C   -0.164400   0.090057
     2  C   -0.414905   0.012687
     3  C   -0.289893   0.120568
     4  C   -1.492084  -0.052148
     5  C    1.725938  -0.037650
     6  C   -0.087395   0.086069
     7  C   -0.636349   0.240657
     8  C   -0.570231  -0.047930
     9  C    0.184511   0.117243
    10  N    0.167077   0.203758
    11  C    0.148928  -0.001231
    12  C   -0.008404   0.240156
    13  C    0.935537  -0.037467
    14  C   -0.999205   0.079633
    15  N    0.072592   0.024784
    16  C   -0.068860  -0.012315
    17  S   -0.405865  -0.000142
    18  C   -0.236359   0.013941
    19  C   -0.219253   0.008810
    20  N   -0.330995  -0.000291
    21  H    0.109905  -0.006113
    22  H    0.122245  -0.000602
    23  H    0.121383  -0.009867
    24  H    0.081816  -0.008627
    25  H    0.112032  -0.017186
    26  H    0.101004   0.004317
    27  H    0.218105  -0.023203
    28  H    0.166303   0.001153
    29  H    0.192928  -0.000179
    30  H    0.228040   0.010041
    31  H    0.235852   0.001076
 Sum of Mulliken charges =  -1.00000   1.00000

 Dipole moment (field-independent basis, Debye):
    X=              2.8358    Y=              2.3502    Z=             -0.1900  Tot=              3.6880
 Quadrupole moment (field-independent basis, Debye-Ang):
   XX=           -189.5977   YY=           -129.0117   ZZ=           -137.1092
   XY=             18.3390   XZ=             -1.4278   YZ=             -3.9035

 Summary of Natural Population Analysis:

                                       Natural Population
                Natural  -----------------------------------------------
    Atom  No    Charge         Core      Valence    Rydberg      Total
 -----------------------------------------------------------------------
      C    1   -0.09654      0.99958     2.08730    0.00966     3.09654
      C    2   -0.11070      0.99958     2.10182    0.00931     3.11070
      C    3   -0.06382      0.99953     2.05466    0.00962     3.06382
      C    4    0.07854      0.99949     1.91019    0.01178     2.92146
      C    5   -0.05345      0.99948     2.04582    0.00815     3.05345
      C    6   -0.07574      0.99954     2.06719    0.00901     3.07574
      C    7   -0.03819      0.99957     2.02512    0.01350     3.03819
      C    8   -0.10627      0.99954     2.10055    0.00617     3.10627
      C    9    0.11926      0.99957     1.86527    0.01590     2.88074
      N   10   -0.18997      0.99966     2.67545    0.01486     3.68997
      C   11   -0.05772      0.99942     2.04022    0.01809     3.05772
      C   12   -0.01056      0.99951     2.00168    0.00937     3.01056
      C   13   -0.10880      0.99948     2.08947    0.01985     3.10880
      C   14    0.11773      0.99949     1.85533    0.02745     2.88227
      N   15   -0.25441      0.99971     2.73486    0.01984     3.75441
      C   16    0.06441      0.99951     1.92576    0.01033     2.93559
      S   17    0.15467      4.99950     2.81768    0.02814     7.84533
      C   18   -0.22701      0.99947     2.21635    0.01120     3.22701
      C   19    0.06909      0.99941     1.92043    0.01107     2.93091
      N   20   -0.39798      0.99972     2.88908    0.00917     3.89798
      H   21    0.08974      0.00000     0.40920    0.00106     0.41026
      H   22    0.09086      0.00000     0.40808    0.00106     0.40914
      H   23    0.09651      0.00000     0.40198    0.00151     0.40349
      H   24    0.08910      0.00000     0.40915    0.00175     0.41090
      H   25    0.08562      0.00000     0.41111    0.00327     0.41438
      H   26    0.09320      0.00000     0.40527    0.00153     0.40680
      H   27    0.10985      0.00000     0.38875    0.00140     0.39015
      H   28    0.08341      0.00000     0.41443    0.00216     0.41659
      H   29    0.09993      0.00000     0.39890    0.00116     0.40007
      H   30    0.18552      0.00000     0.31270    0.00178     0.31448
      H   31    0.17798      0.00000     0.32048    0.00153     0.32202
 =======================================================================
   * Total *    0.01423     23.99075    47.70433    0.29068    71.98577

 Normal termination of Gaussian 16 at Mon Dec 14 14:19:01 2020.
