 Gaussian 16, Revision A.03,

 -----------------------------------------------------------
 # opt freq B3LYP/6-31G(d) empiricaldispersion=gd3bj scf=xqc
 -----------------------------------------------------------

 -------------------------------
 CID_144210334_JID_2208_neutraal
 -------------------------------
 Symbolic Z-matrix:
 Charge =  0 Multiplicity = 1

 SCF Done:  E(RB3LYP) =  -497.843252740     A.U. after   14 cycles
 SCF Done:  E(RB3LYP) =  -497.847188051     A.U. after   12 cycles
 SCF Done:  E(RB3LYP) =  -497.847462376     A.U. after   11 cycles
 SCF Done:  E(RB3LYP) =  -497.847476310     A.U. after    9 cycles
 SCF Done:  E(RB3LYP) =  -497.847478179     A.U. after    8 cycles
 Optimization completed.
    -- Stationary point found.
 Normal termination of Gaussian 16 at Sun Dec 13 19:54:10 2020.

 --------------------------------------------------------------------
 #N Geom=AllCheck Guess=TCheck SCRF=Check GenChk RB3LYP/6-31G(d) Freq
 --------------------------------------------------------------------

 Structure from the checkpoint file:  "JID_2208.chk"
 -------------------------------
 CID_144210334_JID_2208_neutraal
 -------------------------------
 Charge =  0 Multiplicity = 1

 SCF Done:  E(RB3LYP) =  -497.847478179     A.U. after    1 cycles

  Exact polarizability: 159.331   0.199 129.077  -0.017  -0.003  56.744
 Approx polarizability: 245.002  -3.097 212.350  -0.014  -0.002  87.196

 ******    2 imaginary frequencies (negative Signs) ******

                      1                      2                      3
                      A                      A                      A
 Frequencies --    -91.8977               -49.1270                81.4737
 Red. masses --      1.0279                 1.2484                 2.0775
 Frc consts  --      0.0051                 0.0018                 0.0081
 IR Inten    --      0.1363                 0.0789                 1.6254

                      4                      5                      6
                      A                      A                      A
 Frequencies --    156.3726               169.3649               224.6578
 Red. masses --      2.8381                 2.1334                 1.2959
 Frc consts  --      0.0409                 0.0361                 0.0385
 IR Inten    --      0.0202                 4.0657                 1.6652

                      7                      8                      9
                      A                      A                      A
 Frequencies --    252.5788               253.6279               289.6655
 Red. masses --      4.9332                 3.0068                 2.6104
 Frc consts  --      0.1854                 0.1140                 0.1290
 IR Inten    --      1.3682                 1.9286                 0.5084

                     10                     11                     12
                      A                      A                      A
 Frequencies --    342.2569               347.9182               493.0032
 Red. masses --      3.0593                 4.1935                 4.4176
 Frc consts  --      0.2111                 0.2991                 0.6326
 IR Inten    --      1.6292                 0.0056                 2.2147

                     13                     14                     15
                      A                      A                      A
 Frequencies --    514.9446               537.6618               592.1024
 Red. masses --      4.0650                 3.3962                 4.1360
 Frc consts  --      0.6351                 0.5784                 0.8543
 IR Inten    --      0.6414                 3.2194                 1.8234

                     16                     17                     18
                      A                      A                      A
 Frequencies --    604.9957               619.1131               650.4281
 Red. masses --      4.0514                 4.3684                 4.6606
 Frc consts  --      0.8737                 0.9865                 1.1617
 IR Inten    --      4.0371                 1.8987                 2.2775

                     19                     20                     21
                      A                      A                      A
 Frequencies --    704.8353               733.2372               791.1144
 Red. masses --      4.5648                 1.3504                 4.1029
 Frc consts  --      1.3361                 0.4278                 1.5129
 IR Inten    --      7.2341                29.3950                 3.5950

                     22                     23                     24
                      A                      A                      A
 Frequencies --    817.9443               848.7404               880.7030
 Red. masses --      5.0468                 1.2891                 1.3830
 Frc consts  --      1.9893                 0.5471                 0.6320
 IR Inten    --      5.1431                 0.9216                12.8644

                     25                     26                     27
                      A                      A                      A
 Frequencies --    959.1099              1001.2165              1040.7571
 Red. masses --      2.5564                 2.2976                 1.9457
 Frc consts  --      1.3855                 1.3570                 1.2417
 IR Inten    --     13.4693                 0.2731                 7.5405

                     28                     29                     30
                      A                      A                      A
 Frequencies --   1044.1351              1061.9732              1074.8406
 Red. masses --      1.7239                 1.4930                 1.5301
 Frc consts  --      1.1073                 0.9921                 1.0415
 IR Inten    --     13.7270                 4.1911                 0.3788

                     31                     32                     33
                      A                      A                      A
 Frequencies --   1098.8950              1116.6739              1144.0344
 Red. masses --      3.1645                 1.2160                 2.8235
 Frc consts  --      2.2515                 0.8934                 2.1773
 IR Inten    --      5.4133                27.2077                 8.0174

                     34                     35                     36
                      A                      A                      A
 Frequencies --   1156.8768              1195.9702              1292.2910
 Red. masses --      1.2884                 1.5908                 1.8173
 Frc consts  --      1.0160                 1.3407                 1.7881
 IR Inten    --      0.0857                 2.6921                23.9747

                     37                     38                     39
                      A                      A                      A
 Frequencies --   1339.9580              1347.6698              1379.4669
 Red. masses --      3.6358                 5.3086                 5.0850
 Frc consts  --      3.8462                 5.6807                 5.7012
 IR Inten    --     23.5631                14.2696                39.7578

                     40                     41                     42
                      A                      A                      A
 Frequencies --   1420.4406              1426.3333              1432.0965
 Red. masses --      3.2133                 1.3866                 1.5534
 Frc consts  --      3.8199                 1.6620                 1.8770
 IR Inten    --      5.1079                13.6269                 6.4323

                     43                     44                     45
                      A                      A                      A
 Frequencies --   1451.8895              1479.4551              1506.9208
 Red. masses --      2.6801                 1.6518                 1.0442
 Frc consts  --      3.3286                 2.1302                 1.3970
 IR Inten    --      7.2494                32.8855                 0.7146

                     46                     47                     48
                      A                      A                      A
 Frequencies --   1509.2178              1518.9540              1519.8637
 Red. masses --      1.2317                 1.0462                 1.2492
 Frc consts  --      1.6529                 1.4221                 1.7002
 IR Inten    --      1.1379                 4.4392                47.5218

                     49                     50                     51
                      A                      A                      A
 Frequencies --   1522.3671              1527.5848              1549.5222
 Red. masses --      1.8525                 1.0455                 1.0902
 Frc consts  --      2.5295                 1.4374                 1.5422
 IR Inten    --     48.5826                17.4027                11.0652

                     52                     53                     54
                      A                      A                      A
 Frequencies --   1568.7852              1617.0167              1656.0078
 Red. masses --      4.3197                 7.1700                 6.8303
 Frc consts  --      6.2637                11.0459                11.0360
 IR Inten    --     13.9582                55.0054                37.2205

                     55                     56                     57
                      A                      A                      A
 Frequencies --   3044.6467              3048.0113              3067.0011
 Red. masses --      1.0392                 1.0388                 1.0335
 Frc consts  --      5.6759                 5.6859                 5.7276
 IR Inten    --     39.0487                 5.2145                72.4576

                     58                     59                     60
                      A                      A                      A
 Frequencies --   3094.0873              3100.7258              3129.3532
 Red. masses --      1.1009                 1.1012                 1.1055
 Frc consts  --      6.2096                 6.2378                 6.3783
 IR Inten    --     23.7879                10.7308                30.0020

                     61                     62                     63
                      A                      A                      A
 Frequencies --   3153.3897              3154.3533              3159.0128
 Red. masses --      1.0990                 1.1025                 1.0993
 Frc consts  --      6.4387                 6.4632                 6.4637
 IR Inten    --      8.7438                18.1195                 3.3001

                     64                     65                     66
                      A                      A                      A
 Frequencies --   3190.8855              3253.9395              3274.5080
 Red. masses --      1.0912                 1.0901                 1.1030
 Frc consts  --      6.5458                 6.8007                 6.9683
 IR Inten    --     17.5758                 1.4051                 6.3772

 - Thermochemistry -
 -------------------
 Temperature   298.150 Kelvin.  Pressure   1.00000 Atm.
 Atom     1 has atomic number  6 and mass  12.00000

 Molecular mass:   160.10005 amu.
 Principal axes and moments of inertia in atomic units:
                           1         2         3
     Eigenvalues --  1098.427872203.310273267.86328
           X            0.99937   0.03544  -0.00001
           Y           -0.03544   0.99937   0.00001
           Z            0.00001  -0.00001   1.00000
 This molecule is an asymmetric top.
 Rotational symmetry number  1.
 Warning -- assumption of classical behavior for rotation
           may cause significant error
 Rotational temperatures (Kelvin)      0.07885     0.03931     0.02650
 Rotational constants (GHZ):           1.64302     0.81910     0.55227
    2 imaginary frequencies ignored.
 Zero-point vibrational energy     529568.7 (Joules/Mol)
                                  126.56996 (Kcal/Mol)
 Warning -- explicit consideration of  15 degrees of freedom as
           vibrations may cause significant error
 Vibrational temperatures:    117.22   224.99   243.68   323.23   363.40
          (Kelvin)            364.91   416.76   492.43   500.58   709.32
                              740.89   773.58   851.90   870.45   890.77
                              935.82  1014.10  1054.96  1138.24  1176.84
                             1221.15  1267.14  1379.95  1440.53  1497.42
                             1502.28  1527.94  1546.46  1581.06  1606.64
                             1646.01  1664.49  1720.73  1859.32  1927.90
                             1939.00  1984.75  2043.70  2052.18  2060.47
                             2088.95  2128.61  2168.12  2171.43  2185.44
                             2186.74  2190.35  2197.85  2229.42  2257.13
                             2326.53  2382.63  4380.57  4385.41  4412.73
                             4451.70  4461.25  4502.44  4537.02  4538.41
                             4545.11  4590.97  4681.69  4711.29

 Zero-point correction=                           0.201702 (Hartree/Particle)
 Thermal correction to Energy=                    0.211352
 Thermal correction to Enthalpy=                  0.212296
 Thermal correction to Gibbs Free Energy=         0.166900
 Sum of electronic and zero-point Energies=           -497.645776
 Sum of electronic and thermal Energies=              -497.636126
 Sum of electronic and thermal Enthalpies=            -497.635182
 Sum of electronic and thermal Free Energies=         -497.680579

                     E (Thermal)             CV                S
                      KCal/Mol        Cal/Mol-Kelvin    Cal/Mol-Kelvin
 Total                  132.625             38.428             95.545
 Electronic               0.000              0.000              0.000
 Translational            0.889              2.981             41.121
 Rotational               0.889              2.981             30.448
 Vibrational            130.848             32.467             23.976
 Vibration     1          0.600              1.962              3.855
 Vibration     2          0.620              1.896              2.593
 Vibration     3          0.625              1.880              2.443
 Vibration     4          0.649              1.803              1.921
 Vibration     5          0.664              1.758              1.713
 Vibration     6          0.665              1.757              1.705
 Vibration     7          0.686              1.693              1.476
 Vibration     8          0.721              1.591              1.202
 Vibration     9          0.726              1.579              1.176
 Vibration    10          0.849              1.266              0.676
 Vibration    11          0.870              1.217              0.622
 Vibration    12          0.893              1.167              0.570
 Vibration    13          0.950              1.049              0.463
 Vibration    14          0.964              1.021              0.441
 Vibration    15          0.979              0.992              0.418

                           ! Non-Optimized Parameters !
 Normal termination of Gaussian 16 at Sun Dec 13 19:59:08 2020.

 ----------------------------------------------------------------------
 # B3LYP/6-311++G(d,p) empiricaldispersion=gd3bj scf=xqc pop=npa geom=c
 heck
 ----------------------------------------------------------------------

 ---------------------------------------
 CID_144210334_JID_2208_Energie_neutraal
 ---------------------------------------
 Structure from the checkpoint file:  "JID_2208.chk"
 Charge =  0 Multiplicity = 1

 SCF Done:  E(RB3LYP) =  -497.974408339     A.U. after   15 cycles
 Normal termination of Gaussian 16 at Sun Dec 13 20:00:54 2020.

 ----------------------------------------------------------------------
 # B3LYP/6-311++G(d,p) empiricaldispersion=gd3bj scf=xqc pop=npa geom=c
 heck
 ----------------------------------------------------------------------

 -------------------------------------
 CID_144210334_JID_2208_Energie_kation
 -------------------------------------
 Structure from the checkpoint file:  "JID_2208.chk"
 Charge =  1 Multiplicity = 2

 SCF Done:  E(UB3LYP) =  -497.699338975     A.U. after   20 cycles
 Normal termination of Gaussian 16 at Sun Dec 13 20:04:04 2020.
 Gaussian 16:  ES64L-G16RevA.03 25-Dec-2016

 ----------------------------------------------------------------------
 # B3LYP/6-311++G(d,p) empiricaldispersion=gd3bj scf=xqc pop=npa geom=c
 heck
 ----------------------------------------------------------------------

 ------------------------------------
 CID_144210334_JID_2208_Energie_anion
 ------------------------------------
 Structure from the checkpoint file:  "JID_2208.chk"
 Charge = -1 Multiplicity = 2

                         Standard orientation:
 ---------------------------------------------------------------------
 Center     Atomic      Atomic             Coordinates (Angstroms)
 Number     Number       Type             X           Y           Z
 ---------------------------------------------------------------------
      1          6           0       -3.678494   -0.159945    0.000174
      2          6           0       -2.167862   -0.149286   -0.000330
      3          6           0       -1.440072   -1.332607   -0.000179
      4          6           0       -0.041180   -1.247894   -0.000019
      5          6           0        0.553812    0.045610    0.000051
      6          6           0       -0.253340    1.196486   -0.000266
      7          7           0       -1.582775    1.073024   -0.000470
      8          6           0        0.279179    2.609956    0.000386
      9          7           0        1.934794   -0.133061    0.000471
     10          6           0        2.192639   -1.489425    0.000071
     11          6           0        1.023299   -2.204867    0.000180
     12          6           0        2.963890    0.889091   -0.000455
     13          1           0       -4.077083   -0.682743   -0.878055
     14          1           0       -4.050028    0.866941   -0.008189
     15          1           0       -4.076417   -0.667497    0.887677
     16          1           0       -1.944373   -2.295119   -0.000285
     17          1           0        0.885497    2.822287    0.888817
     18          1           0        0.898449    2.818817   -0.879758
     19          1           0       -0.572667    3.292541   -0.006813
     20          1           0        3.217316   -1.836383    0.000044
     21          1           0        0.932397   -3.281747    0.000410
     22          1           0        3.938196    0.396053    0.007554
     23          1           0        2.901362    1.517079   -0.894199
     24          1           0        2.891988    1.527317    0.885122
 ---------------------------------------------------------------------

 SCF Done:  E(UB3LYP) =  -497.961044875     A.U. after   33 cycles
 SCF Done:  E(UB3LYP) =  -497.961044875     a.u. after    1 cycles

 The electronic state is 2-A.
 Alpha  occ. eigenvalues --  -14.26371 -14.19599 -10.11348 -10.10588 -10.10348
 Alpha  occ. eigenvalues --  -10.10343 -10.09916 -10.08086 -10.07216 -10.07132
 Alpha  occ. eigenvalues --  -10.06267 -10.06235  -0.89003  -0.83228  -0.71944
 Alpha  occ. eigenvalues --   -0.69091  -0.65572  -0.62035  -0.61079  -0.56721
 Alpha  occ. eigenvalues --   -0.51722  -0.48805  -0.47081  -0.42917  -0.38184
 Alpha  occ. eigenvalues --   -0.37309  -0.36622  -0.34220  -0.33367  -0.33103
 Alpha  occ. eigenvalues --   -0.32467  -0.31574  -0.30900  -0.29279  -0.28858
 Alpha  occ. eigenvalues --   -0.27897  -0.26749  -0.25162  -0.23993  -0.18489
 Alpha  occ. eigenvalues --   -0.15501  -0.13605  -0.11074   0.04646
 Alpha virt. eigenvalues --    0.06664   0.06925   0.07365   0.08536   0.09130
 Alpha virt. eigenvalues --    0.09387   0.09752   0.10964   0.11463   0.11662
 Alpha virt. eigenvalues --    0.12189   0.13482   0.13742   0.13791   0.14520

  Beta  occ. eigenvalues --  -14.26369 -14.19593 -10.11347 -10.10561 -10.10343
  Beta  occ. eigenvalues --  -10.10342 -10.09837 -10.08087 -10.07210 -10.07128
  Beta  occ. eigenvalues --  -10.06234 -10.06229  -0.88990  -0.83222  -0.71925
  Beta  occ. eigenvalues --   -0.69076  -0.65549  -0.62005  -0.61022  -0.56664
  Beta  occ. eigenvalues --   -0.51682  -0.48789  -0.47038  -0.42856  -0.38144
  Beta  occ. eigenvalues --   -0.37287  -0.36580  -0.34179  -0.33353  -0.33051
  Beta  occ. eigenvalues --   -0.32433  -0.31546  -0.30866  -0.29236  -0.28821
  Beta  occ. eigenvalues --   -0.27870  -0.26724  -0.25141  -0.23974  -0.18477
  Beta  occ. eigenvalues --   -0.15484  -0.13594  -0.11062
  Beta virt. eigenvalues --    0.06555   0.06937   0.07807   0.08025   0.09264
  Beta virt. eigenvalues --    0.09409   0.09796   0.10382   0.11645   0.11929
  Beta virt. eigenvalues --    0.11936   0.12276   0.13611   0.14134   0.14161

 Mulliken charges and spin densities:
               1          2
     1  C    0.292876  -0.851167
     2  C   -0.127903   0.162587
     3  C   -0.175855  -0.759829
     4  C    0.741542   0.679878
     5  C    0.067059  -0.305286
     6  C   -1.446131   0.690699
     7  N    0.024672   0.037286
     8  C    1.460373  -2.044294
     9  N   -0.354406   0.437835
    10  C   -0.363166   0.588163
    11  C    0.920471  -1.310919
    12  C    1.559507  -1.848296
    13  H    0.083858   0.053676
    14  H    0.117227   0.030482
    15  H    0.086991   0.051318
    16  H   -0.068760   0.220169
    17  H   -0.214025   0.372861
    18  H   -0.208950   0.365788
    19  H    0.127827   0.035368
    20  H   -1.246284   1.453298
    21  H   -0.195155   0.335880
    22  H   -1.166746   1.331976
    23  H   -0.454129   0.633760
    24  H   -0.460893   0.638768
 Sum of Mulliken charges =  -1.00000   1.00000

 Dipole moment (field-independent basis, Debye):
    X=            -10.3024    Y=             -1.9280    Z=              0.0075  Tot=             10.4813
 Quadrupole moment (field-independent basis, Debye-Ang):
   XX=           -154.1642   YY=           -113.5465   ZZ=           -100.0373
   XY=              0.2034   XZ=             -0.0078   YZ=             -0.1267

 Summary of Natural Population Analysis:

                                       Natural Population
                Natural  -----------------------------------------------
    Atom  No    Charge         Core      Valence    Rydberg      Total
 -----------------------------------------------------------------------
      C    1   -0.29610      0.99964     2.29159    0.00487     3.29610
      C    2    0.09006      0.99955     1.89821    0.01219     2.90994
      C    3   -0.12108      0.99947     2.11419    0.00742     3.12108
      C    4   -0.02684      0.99951     2.01702    0.01031     3.02684
      C    5    0.06199      0.99941     1.92751    0.01108     2.93801
      C    6    0.10604      0.99952     1.88183    0.01261     2.89396
      N    7   -0.25822      0.99966     2.74786    0.01069     3.75822
      C    8   -0.29999      0.99964     2.29457    0.00578     3.29999
      N    9   -0.20378      0.99964     2.69309    0.01105     3.70378
      C   10    0.02593      0.99954     1.96215    0.01238     2.97407
      C   11   -0.15382      0.99952     2.14432    0.00998     3.15382
      C   12   -0.17271      0.99963     2.16457    0.00851     3.17271
      H   13    0.09868      0.00000     0.40016    0.00116     0.40132
      H   14    0.10750      0.00000     0.39130    0.00120     0.39250
      H   15    0.09869      0.00000     0.40014    0.00117     0.40131
      H   16    0.09888      0.00000     0.39994    0.00119     0.40112
      H   17    0.10607      0.00000     0.39255    0.00137     0.39393
      H   18    0.10598      0.00000     0.39266    0.00136     0.39402
      H   19    0.10883      0.00000     0.38974    0.00143     0.39117
      H   20    0.10615      0.00000     0.39081    0.00304     0.39385
      H   21    0.10612      0.00000     0.39303    0.00085     0.39388
      H   22    0.10906      0.00000     0.38401    0.00693     0.39094
      H   23    0.10124      0.00000     0.39577    0.00300     0.39876
      H   24    0.10133      0.00000     0.39570    0.00297     0.39867
 =======================================================================
   * Total *   -0.00000     11.99474    30.86274    0.14252    43.00000

 Normal termination of Gaussian 16 at Sun Dec 13 20:09:16 2020.
