 Gaussian 16, Revision A.03,

 -----------------------------------------------------------
 # opt freq B3LYP/6-31G(d) empiricaldispersion=gd3bj scf=xqc
 -----------------------------------------------------------

 ------------------------------
 CID_16744416_JID_1640_neutraal
 ------------------------------
 Symbolic Z-matrix:
 Charge =  0 Multiplicity = 1

 SCF Done:  E(RB3LYP) =  -584.611024014     A.U. after   16 cycles
 SCF Done:  E(RB3LYP) =  -584.614000871     A.U. after   16 cycles
 SCF Done:  E(RB3LYP) =  -584.615908762     A.U. after   14 cycles
 SCF Done:  E(RB3LYP) =  -584.615033930     A.U. after   14 cycles
 SCF Done:  E(RB3LYP) =  -584.616333859     A.U. after   14 cycles
 SCF Done:  E(RB3LYP) =  -584.616382098     A.U. after   13 cycles
 SCF Done:  E(RB3LYP) =  -584.616485105     A.U. after   12 cycles
 SCF Done:  E(RB3LYP) =  -584.616511579     A.U. after   13 cycles
 SCF Done:  E(RB3LYP) =  -584.616546208     A.U. after   13 cycles
 SCF Done:  E(RB3LYP) =  -584.616578393     A.U. after   13 cycles
 SCF Done:  E(RB3LYP) =  -584.617320710     A.U. after   10 cycles
 SCF Done:  E(RB3LYP) =  -584.617321043     A.U. after   10 cycles
 SCF Done:  E(RB3LYP) =  -584.617321064     A.U. after    8 cycles
 SCF Done:  E(RB3LYP) =  -584.617321071     A.U. after    8 cycles
 SCF Done:  E(RB3LYP) =  -584.617321070     A.U. after    7 cycles
 Optimization completed.
    -- Stationary point found.
 Normal termination of Gaussian 16 at Tue Dec  8 20:40:57 2020.

 --------------------------------------------------------------------
 #N Geom=AllCheck Guess=TCheck SCRF=Check GenChk RB3LYP/6-31G(d) Freq
 --------------------------------------------------------------------

 Structure from the checkpoint file:  "JID_1640.chk"
 ------------------------------
 CID_16744416_JID_1640_neutraal
 ------------------------------
 Charge =  0 Multiplicity = 1

 SCF Done:  E(RB3LYP) =  -584.617321070     A.U. after    1 cycles

  Exact polarizability:  78.852   2.361  79.001   0.281 -13.598  70.452
 Approx polarizability: 106.170  11.744 136.177  -9.061 -41.225 132.247

                      1                      2                      3
                      A                      A                      A
 Frequencies --     12.5912                53.3563                69.4409
 Red. masses --      6.6655                 8.1694                 8.2102
 Frc consts  --      0.0006                 0.0137                 0.0233
 IR Inten    --      2.4757                 4.1018                 0.4689

                      4                      5                      6
                      A                      A                      A
 Frequencies --     77.7467               117.7697               127.0281
 Red. masses --      3.7828                 2.4607                 1.3955
 Frc consts  --      0.0135                 0.0201                 0.0133
 IR Inten    --      1.7358                 2.0656                 1.0900

                      7                      8                      9
                      A                      A                      A
 Frequencies --    168.1955               201.8353               230.8157
 Red. masses --      3.5200                 3.8219                 5.1492
 Frc consts  --      0.0587                 0.0917                 0.1616
 IR Inten    --      2.2463                 4.9003                 1.4212

                     10                     11                     12
                      A                      A                      A
 Frequencies --    311.1460               335.6853               425.7922
 Red. masses --      3.8734                 5.0467                 3.7057
 Frc consts  --      0.2209                 0.3351                 0.3958
 IR Inten    --      5.6815                23.4083                 1.9589

                     13                     14                     15
                      A                      A                      A
 Frequencies --    466.5226               538.8087               569.6174
 Red. masses --      8.2387                 5.1696                13.1926
 Frc consts  --      1.0565                 0.8842                 2.5220
 IR Inten    --      3.8108                14.0170                12.6327

                     16                     17                     18
                      A                      A                      A
 Frequencies --    605.3859               685.6958               775.9639
 Red. masses --      3.9685                 4.3488                 2.3547
 Frc consts  --      0.8569                 1.2047                 0.8354
 IR Inten    --      7.7439                13.7374                14.1013

                     19                     20                     21
                      A                      A                      A
 Frequencies --    827.7123               848.3684               921.1408
 Red. masses --      5.6135                 3.8232                 2.8958
 Frc consts  --      2.2659                 1.6212                 1.4477
 IR Inten    --      3.7492                28.7742                 1.2277

                     22                     23                     24
                      A                      A                      A
 Frequencies --    993.2246              1055.2547              1070.9589
 Red. masses --      3.7864                 3.0178                 3.9471
 Frc consts  --      2.2008                 1.9799                 2.6673
 IR Inten    --     10.5257                22.9821                50.9477

                     25                     26                     27
                      A                      A                      A
 Frequencies --   1091.0427              1186.2162              1218.2414
 Red. masses --      2.5229                 1.2753                 1.4591
 Frc consts  --      1.7694                 1.0572                 1.2758
 IR Inten    --     31.6494                 1.4796                 5.1634

                     28                     29                     30
                      A                      A                      A
 Frequencies --   1239.1152              1263.1155              1294.6882
 Red. masses --      1.2863                 1.5469                 4.4428
 Frc consts  --      1.1636                 1.4542                 4.3877
 IR Inten    --     48.7148                 2.0333               203.1652

                     31                     32                     33
                      A                      A                      A
 Frequencies --   1337.8532              1359.7849              1391.8354
 Red. masses --      3.4653                 1.4322                 1.5778
 Frc consts  --      3.6544                 1.5602                 1.8009
 IR Inten    --    169.6355                 4.9532                30.8776

                     34                     35                     36
                      A                      A                      A
 Frequencies --   1449.2640              1473.0696              1492.5723
 Red. masses --      1.2037                 1.0993                 1.2125
 Frc consts  --      1.4895                 1.4054                 1.5915
 IR Inten    --      2.3447                16.6444                10.1116

                     37                     38                     39
                      A                      A                      A
 Frequencies --   1513.1421              1521.1648              1821.2549
 Red. masses --      1.0472                 1.0472                11.5015
 Frc consts  --      1.4126                 1.4277                22.4775
 IR Inten    --      7.4451                 7.9538               189.9224

                     40                     41                     42
                      A                      A                      A
 Frequencies --   1840.7123              2268.7177              2902.6663
 Red. masses --      9.8986                13.8760                 1.0835
 Frc consts  --     19.7604                42.0799                 5.3785
 IR Inten    --    147.1021               386.0710                94.8425

                     43                     44                     45
                      A                      A                      A
 Frequencies --   3061.9173              3084.7031              3110.5812
 Red. masses --      1.0647                 1.0295                 1.0851
 Frc consts  --      5.8810                 5.7716                 6.1858
 IR Inten    --      2.1949                22.2167                 5.9076

                     46                     47                     48
                      A                      A                      A
 Frequencies --   3146.1218              3163.0932              3199.2145
 Red. masses --      1.0986                 1.1080                 1.1076
 Frc consts  --      6.4070                 6.5317                 6.6793
 IR Inten    --      4.3154                15.1403                 9.5679

 - Thermochemistry -
 -------------------
 Temperature   298.150 Kelvin.  Pressure   1.00000 Atm.
 Atom     1 has atomic number  6 and mass  12.00000

 Molecular mass:   157.04874 amu.
 Principal axes and moments of inertia in atomic units:
                           1         2         3
     Eigenvalues --  1271.121101958.495502466.98535
           X            0.99881  -0.03261   0.03627
           Y            0.03360   0.99907  -0.02688
           Z           -0.03536   0.02807   0.99898
 This molecule is an asymmetric top.
 Rotational symmetry number  1.
 Warning -- assumption of classical behavior for rotation
           may cause significant error
 Rotational temperatures (Kelvin)      0.06814     0.04422     0.03511
 Rotational constants (GHZ):           1.41980     0.92149     0.73156
 Zero-point vibrational energy     346439.4 (Joules/Mol)
                                   82.80100 (Kcal/Mol)
 Warning -- explicit consideration of  16 degrees of freedom as
           vibrations may cause significant error
 Vibrational temperatures:     18.12    76.77    99.91   111.86   169.44
          (Kelvin)            182.77   242.00   290.40   332.09   447.67
                              482.98   612.62   671.22   775.23   819.55
                              871.02   986.56  1116.44  1190.89  1220.61
                             1325.32  1429.03  1518.28  1540.87  1569.77
                             1706.70  1752.78  1782.81  1817.34  1862.77
                             1924.87  1956.43  2002.54  2085.17  2119.42
                             2147.48  2177.07  2188.62  2620.38  2648.37
                             3264.18  4176.29  4405.42  4438.20  4475.43
                             4526.57  4550.99  4602.96

 Zero-point correction=                           0.131952 (Hartree/Particle)
 Thermal correction to Energy=                    0.143659
 Thermal correction to Enthalpy=                  0.144603
 Thermal correction to Gibbs Free Energy=         0.091596
 Sum of electronic and zero-point Energies=           -584.485369
 Sum of electronic and thermal Energies=              -584.473662
 Sum of electronic and thermal Enthalpies=            -584.472718
 Sum of electronic and thermal Free Energies=         -584.525725

                     E (Thermal)             CV                S
                      KCal/Mol        Cal/Mol-Kelvin    Cal/Mol-Kelvin
 Total                   90.147             38.713            111.563
 Electronic               0.000              0.000              0.000
 Translational            0.889              2.981             41.063
 Rotational               0.889              2.981             30.197
 Vibrational             88.370             32.751             40.303
 Vibration     1          0.593              1.987              7.553
 Vibration     2          0.596              1.976              4.689
 Vibration     3          0.598              1.969              4.169
 Vibration     4          0.599              1.964              3.947
 Vibration     5          0.608              1.935              3.137
 Vibration     6          0.611              1.926              2.991
 Vibration     7          0.625              1.882              2.456
 Vibration     8          0.639              1.837              2.116
 Vibration     9          0.653              1.794              1.873
 Vibration    10          0.700              1.652              1.356
 Vibration    11          0.717              1.604              1.233
 Vibration    12          0.788              1.414              0.873
 Vibration    13          0.824              1.324              0.747
 Vibration    14          0.894              1.164              0.568
 Vibration    15          0.926              1.097              0.505
 Vibration    16          0.964              1.020              0.440

 Optimization completed.
    -- Stationary point found.
 Normal termination of Gaussian 16 at Tue Dec  8 20:45:11 2020.

 ----------------------------------------------------------------------
 # B3LYP/6-311++G(d,p) empiricaldispersion=gd3bj scf=xqc pop=npa geom=c
 heck
 ----------------------------------------------------------------------

 --------------------------------------
 CID_16744416_JID_1640_Energie_neutraal
 --------------------------------------
 Structure from the checkpoint file:  "JID_1640.chk"
 Charge =  0 Multiplicity = 1

 SCF Done:  E(RB3LYP) =  -584.792142673     A.U. after   16 cycles
 Normal termination of Gaussian 16 at Tue Dec  8 20:46:22 2020.

 ----------------------------------------------------------------------
 # B3LYP/6-311++G(d,p) empiricaldispersion=gd3bj scf=xqc pop=npa geom=c
 heck
 ----------------------------------------------------------------------

 ------------------------------------
 CID_16744416_JID_1640_Energie_kation
 ------------------------------------
 Structure from the checkpoint file:  "JID_1640.chk"
 Charge =  1 Multiplicity = 2

 SCF Done:  E(UB3LYP) =  -584.442345085     A.U. after   26 cycles
 Normal termination of Gaussian 16 at Tue Dec  8 20:51:08 2020.
 Gaussian 16:  ES64L-G16RevA.03 25-Dec-2016

 ----------------------------------------------------------------------
 # B3LYP/6-311++G(d,p) empiricaldispersion=gd3bj scf=xqc pop=npa geom=c
 heck
 ----------------------------------------------------------------------

 -----------------------------------
 CID_16744416_JID_1640_Energie_anion
 -----------------------------------
 Structure from the checkpoint file:  "JID_1640.chk"
 Charge = -1 Multiplicity = 2

                         Standard orientation:
 ---------------------------------------------------------------------
 Center     Atomic      Atomic             Coordinates (Angstroms)
 Number     Number       Type             X           Y           Z
 ---------------------------------------------------------------------
      1          6           0       -2.901076    0.194627   -0.926900
      2          8           0       -1.728411    0.436412   -0.124520
      3          6           0       -1.106640   -0.658598    0.328363
      4          8           0       -1.464774   -1.796428    0.115868
      5          6           0        0.145273   -0.338962    1.159574
      6          6           0        1.347396   -1.157066    0.638448
      7          6           0        1.726596   -0.850653   -0.796386
      8          8           0        2.861646   -0.668908   -1.170763
      9          7           0        0.442388    1.088820    1.339880
     10          7           0        0.612235    1.757926    0.311615
     11          7           0        0.782202    2.494181   -0.541874
     12          1           0       -3.261246    1.181146   -1.215100
     13          1           0       -3.652453   -0.340836   -0.342331
     14          1           0       -2.639471   -0.397831   -1.806720
     15          1           0       -0.075560   -0.694689    2.169419
     16          1           0        2.218107   -0.999138    1.278926
     17          1           0        1.058111   -2.215471    0.682031
     18          1           0        0.877749   -0.824359   -1.516840
 ---------------------------------------------------------------------

 SCF Done:  E(UB3LYP) =  -584.795111266     A.U. after   33 cycles
 SCF Done:  E(UB3LYP) =  -584.795111266     a.u. after    1 cycles

 The electronic state is 2-A.
 Alpha  occ. eigenvalues --  -19.06914 -19.00608 -18.96717 -14.32407 -14.22429
 Alpha  occ. eigenvalues --  -14.21434 -10.19357 -10.12964 -10.11014 -10.10139
 Alpha  occ. eigenvalues --  -10.05547  -1.01014  -0.98982  -0.91913  -0.90222
 Alpha  occ. eigenvalues --   -0.83696  -0.68453  -0.63399  -0.56847  -0.48327
 Alpha  occ. eigenvalues --   -0.44841  -0.44174  -0.39527  -0.38777  -0.37272
 Alpha  occ. eigenvalues --   -0.35706  -0.35080  -0.32902  -0.32263  -0.31302
 Alpha  occ. eigenvalues --   -0.30377  -0.29041  -0.27312  -0.26067  -0.25212
 Alpha  occ. eigenvalues --   -0.23645  -0.20946  -0.19353  -0.16019  -0.11822
 Alpha  occ. eigenvalues --   -0.11266   0.04895
 Alpha virt. eigenvalues --    0.06961   0.08960   0.09825   0.10356   0.10858
 Alpha virt. eigenvalues --    0.11143   0.11712   0.12647   0.13130   0.14780
 Alpha virt. eigenvalues --    0.15147   0.16827   0.16990   0.18202   0.18486

  Beta  occ. eigenvalues --  -19.06894 -19.00603 -18.96396 -14.32234 -14.22039
  Beta  occ. eigenvalues --  -14.21469 -10.19325 -10.12945 -10.10912 -10.09868
  Beta  occ. eigenvalues --  -10.05571  -1.00957  -0.98557  -0.91892  -0.89616
  Beta  occ. eigenvalues --   -0.83417  -0.68268  -0.63316  -0.56555  -0.48173
  Beta  occ. eigenvalues --   -0.44452  -0.43926  -0.39236  -0.38695  -0.36692
  Beta  occ. eigenvalues --   -0.35595  -0.34832  -0.32470  -0.32069  -0.30751
  Beta  occ. eigenvalues --   -0.29725  -0.28742  -0.27213  -0.25805  -0.25144
  Beta  occ. eigenvalues --   -0.22109  -0.20889  -0.19181  -0.15413  -0.11608
  Beta  occ. eigenvalues --   -0.11054
  Beta virt. eigenvalues --    0.07149   0.08968   0.10516   0.10571   0.11098
  Beta virt. eigenvalues --    0.11566   0.11861   0.12107   0.13024   0.13370
  Beta virt. eigenvalues --    0.15037   0.15341   0.16855   0.16980   0.18226

 Mulliken charges and spin densities:
               1          2
     1  C    0.296354  -0.522631
     2  O   -0.023032  -0.002298
     3  C   -0.448440  -0.003877
     4  O   -0.249626   0.003656
     5  C    0.687093  -0.419353
     6  C    0.070511  -0.532049
     7  C   -0.147007   0.208709
     8  O   -0.330933   0.103249
     9  N   -0.426772  -0.133677
    10  N    0.597345   0.108288
    11  N   -0.253560   0.207892
    12  H   -0.062833   0.208096
    13  H   -0.077243   0.244045
    14  H    0.044262   0.124278
    15  H   -1.004886   1.290978
    16  H    0.152575   0.049037
    17  H    0.070876   0.089294
    18  H    0.105316  -0.023637
 Sum of Mulliken charges =  -1.00000   1.00000

 Dipole moment (field-independent basis, Debye):
    X=             -3.5650    Y=             -0.5184    Z=             -1.7577  Tot=              4.0085
 Quadrupole moment (field-independent basis, Debye-Ang):
   XX=            -95.8302   YY=            -92.2186   ZZ=            -88.5882
   XY=             -3.2482   XZ=              9.1012   YZ=              3.0071

 Summary of Natural Population Analysis:

                                       Natural Population
                Natural  -----------------------------------------------
    Atom  No    Charge         Core      Valence    Rydberg      Total
 -----------------------------------------------------------------------
      C    1   -0.10334      0.99959     2.09595    0.00779     3.10334
      O    2   -0.27138      0.99985     3.26166    0.00986     4.27138
      C    3    0.41063      0.99965     1.56246    0.02726     2.58937
      O    4   -0.31380      0.99987     3.30836    0.00556     4.31380
      C    5   -0.05439      0.99951     2.03818    0.01670     3.05439
      C    6   -0.24237      0.99959     2.23209    0.01069     3.24237
      C    7    0.25068      0.99973     1.72800    0.02159     2.74932
      O    8   -0.25373      0.99988     3.24715    0.00670     4.25373
      N    9   -0.20578      0.99970     2.69113    0.01496     3.70578
      N   10    0.12721      0.99970     2.35666    0.01643     3.37279
      N   11   -0.00108      0.99981     2.48831    0.01296     3.50108
      H   12    0.09181      0.00000     0.40706    0.00113     0.40819
      H   13    0.09062      0.00000     0.40804    0.00134     0.40938
      H   14    0.09106      0.00000     0.40775    0.00120     0.40894
      H   15    0.11997      0.00000     0.37250    0.00754     0.38003
      H   16    0.10914      0.00000     0.38952    0.00134     0.39086
      H   17    0.11726      0.00000     0.38144    0.00130     0.38274
      H   18    0.03748      0.00000     0.46057    0.00195     0.46252
 =======================================================================
   * Total *   -0.00000     10.99689    29.83680    0.16630    41.00000

 Normal termination of Gaussian 16 at Tue Dec  8 20:56:55 2020.
