 Gaussian 16, Revision A.03,

 -----------------------------------------------------------
 # opt freq B3LYP/6-31G(d) empiricaldispersion=gd3bj scf=xqc
 -----------------------------------------------------------

 ------------------------------
 CID_153178010_JID_497_neutraal
 ------------------------------
 Symbolic Z-matrix:
 Charge =  0 Multiplicity = 1

 SCF Done:  E(RB3LYP) =  -390.716741739     A.U. after   13 cycles
 SCF Done:  E(RB3LYP) =  -390.719772657     A.U. after   11 cycles
 SCF Done:  E(RB3LYP) =  -390.720268448     A.U. after   11 cycles
 SCF Done:  E(RB3LYP) =  -390.720970334     A.U. after   11 cycles
 SCF Done:  E(RB3LYP) =  -390.721207646     A.U. after   12 cycles
 SCF Done:  E(RB3LYP) =  -390.721681910     A.U. after   11 cycles
 SCF Done:  E(RB3LYP) =  -390.721821299     A.U. after   12 cycles
 SCF Done:  E(RB3LYP) =  -390.721838981     A.U. after    9 cycles
 SCF Done:  E(RB3LYP) =  -390.721849285     A.U. after   10 cycles
 SCF Done:  E(RB3LYP) =  -390.721849357     A.U. after    8 cycles
 SCF Done:  E(RB3LYP) =  -390.721934411     A.U. after    8 cycles
 SCF Done:  E(RB3LYP) =  -390.721936059     A.U. after    9 cycles
 SCF Done:  E(RB3LYP) =  -390.721936328     A.U. after    7 cycles
 SCF Done:  E(RB3LYP) =  -390.721936467     A.U. after    7 cycles
 SCF Done:  E(RB3LYP) =  -390.721936484     A.U. after    6 cycles
 Optimization completed.
    -- Stationary point found.
 Normal termination of Gaussian 16 at Tue Dec  8 10:51:27 2020.

 --------------------------------------------------------------------
 #N Geom=AllCheck Guess=TCheck SCRF=Check GenChk RB3LYP/6-31G(d) Freq
 --------------------------------------------------------------------

 Structure from the checkpoint file:  "JID_497.chk"
 ------------------------------
 CID_153178010_JID_497_neutraal
 ------------------------------
 Charge =  0 Multiplicity = 1

 SCF Done:  E(RB3LYP) =  -390.721936484     A.U. after    1 cycles

  Exact polarizability: 132.780 -17.405 115.045   5.399  -4.966  71.810
 Approx polarizability: 184.317 -44.980 178.024  12.886 -13.324 108.413

                      1                      2                      3
                      A                      A                      A
 Frequencies --     41.4967                63.0470                86.5023
 Red. masses --      1.9026                 1.2937                 2.8207
 Frc consts  --      0.0019                 0.0030                 0.0124
 IR Inten    --      0.1193                 0.1699                 0.0193

                      4                      5                      6
                      A                      A                      A
 Frequencies --    156.0700               224.3382               237.1574
 Red. masses --      2.0598                 1.6639                 1.6382
 Frc consts  --      0.0296                 0.0493                 0.0543
 IR Inten    --      0.0398                 0.9903                 0.0580

                      7                      8                      9
                      A                      A                      A
 Frequencies --    263.4973               304.4596               320.6546
 Red. masses --      1.9336                 2.5218                 1.1439
 Frc consts  --      0.0791                 0.1377                 0.0693
 IR Inten    --      1.2906                 0.7766                 0.1761

                     10                     11                     12
                      A                      A                      A
 Frequencies --    344.7841               360.9789               396.1641
 Red. masses --      2.5074                 2.3704                 2.8665
 Frc consts  --      0.1756                 0.1820                 0.2651
 IR Inten    --      1.8169                 0.1107                 0.6679

                     13                     14                     15
                      A                      A                      A
 Frequencies --    481.0618               532.2872               597.2224
 Red. masses --      2.7419                 2.7283                 2.6959
 Frc consts  --      0.3738                 0.4554                 0.5665
 IR Inten    --      0.3803                 0.1470                 1.7905

                     16                     17                     18
                      A                      A                      A
 Frequencies --    597.7660               631.5379               711.7938
 Red. masses --      2.1893                 3.5688                 1.5431
 Frc consts  --      0.4609                 0.8386                 0.4606
 IR Inten    --      2.0123                 0.0937                 1.7751

                     19                     20                     21
                      A                      A                      A
 Frequencies --    755.8894               808.1798               889.4027
 Red. masses --      1.6935                 2.0372                 1.9975
 Frc consts  --      0.5701                 0.7840                 0.9310
 IR Inten    --      0.2466                 1.0201                 2.4383

                     22                     23                     24
                      A                      A                      A
 Frequencies --    909.5099               924.4600               950.4032
 Red. masses --      1.3793                 1.9694                 2.2020
 Frc consts  --      0.6722                 0.9916                 1.1719
 IR Inten    --     35.6324                 0.6169                 0.5365

                     25                     26                     27
                      A                      A                      A
 Frequencies --    981.6364              1005.5588              1029.7879
 Red. masses --      1.5247                 2.3672                 1.3878
 Frc consts  --      0.8657                 1.4102                 0.8671
 IR Inten    --      1.5613                 0.4196                 0.9860

                     28                     29                     30
                      A                      A                      A
 Frequencies --   1037.4022              1052.5617              1084.3522
 Red. masses --      1.3743                 1.7373                 1.5449
 Frc consts  --      0.8714                 1.1340                 1.0702
 IR Inten    --      5.4956                 5.2805                 2.5649

                     31                     32                     33
                      A                      A                      A
 Frequencies --   1089.2184              1115.5375              1126.9778
 Red. masses --      1.8771                 1.7270                 1.9836
 Frc consts  --      1.3121                 1.2662                 1.4843
 IR Inten    --      2.6813                 2.0777                 3.8092

                     34                     35                     36
                      A                      A                      A
 Frequencies --   1128.0977              1212.7083              1232.1625
 Red. masses --      1.8296                 1.5086                 1.6748
 Frc consts  --      1.3719                 1.3072                 1.4982
 IR Inten    --      0.4250                 2.8703                 1.8745

                     37                     38                     39
                      A                      A                      A
 Frequencies --   1257.3230              1319.6071              1341.8397
 Red. masses --      1.5255                 1.5958                 1.6811
 Frc consts  --      1.4209                 1.6372                 1.7833
 IR Inten    --      2.4354                 4.1299                 0.2658

                     40                     41                     42
                      A                      A                      A
 Frequencies --   1357.1315              1369.9371              1394.8791
 Red. masses --      1.6633                 1.3490                 2.7371
 Frc consts  --      1.8049                 1.4916                 3.1377
 IR Inten    --      3.0509                 3.7239                 1.7913

                     43                     44                     45
                      A                      A                      A
 Frequencies --   1431.6994              1436.1371              1446.5449
 Red. masses --      1.2558                 1.2601                 1.2968
 Frc consts  --      1.5166                 1.5312                 1.5988
 IR Inten    --      2.5199                 1.7561                 2.9135

                     46                     47                     48
                      A                      A                      A
 Frequencies --   1469.3227              1508.1786              1513.4736
 Red. masses --      1.2913                 1.0465                 1.0836
 Frc consts  --      1.6425                 1.4025                 1.4624
 IR Inten    --      0.5237                12.3429                 0.8349

                     49                     50                     51
                      A                      A                      A
 Frequencies --   1517.9791              1525.0876              1528.2593
 Red. masses --      1.0711                 1.0552                 1.0533
 Frc consts  --      1.4541                 1.4460                 1.4495
 IR Inten    --      2.5786                 2.4220                 1.2079

                     52                     53                     54
                      A                      A                      A
 Frequencies --   1534.4489              1537.3946              1542.7179
 Red. masses --      1.0458                 1.0984                 1.0587
 Frc consts  --      1.4508                 1.5297                 1.4846
 IR Inten    --      3.4765                 0.1513                15.8086

                     55                     56                     57
                      A                      A                      A
 Frequencies --   1678.8542              1704.2166              3017.0663
 Red. masses --      4.3564                 5.9732                 1.0817
 Frc consts  --      7.2344                10.2213                 5.8015
 IR Inten    --      3.3888                25.0743                36.2736

                     58                     59                     60
                      A                      A                      A
 Frequencies --   3023.2852              3031.3537              3044.7327
 Red. masses --      1.0698                 1.0478                 1.0354
 Frc consts  --      5.7613                 5.6729                 5.6552
 IR Inten    --     20.7978                48.0388                30.2834

                     61                     62                     63
                      A                      A                      A
 Frequencies --   3048.2834              3060.3011              3066.9122
 Red. masses --      1.0369                 1.0649                 1.0978
 Frc consts  --      5.6769                 5.8760                 6.0840
 IR Inten    --     23.8933                39.6929                25.4105

                     64                     65                     66
                      A                      A                      A
 Frequencies --   3081.0867              3103.3492              3105.3609
 Red. masses --      1.0893                 1.1054                 1.1006
 Frc consts  --      6.0926                 6.2726                 6.2533
 IR Inten    --     30.7363                38.4485                23.7067

                     67                     68                     69
                      A                      A                      A
 Frequencies --   3112.7667              3115.9169              3127.1046
 Red. masses --      1.1026                 1.1021                 1.1014
 Frc consts  --      6.2946                 6.3041                 6.3455
 IR Inten    --     44.7749                38.3327                27.9476

                     70                     71                     72
                      A                      A                      A
 Frequencies --   3177.0287              3208.7017              3258.2345
 Red. masses --      1.0612                 1.0895                 1.1135
 Frc consts  --      6.3110                 6.6088                 6.9647
 IR Inten    --      9.1308                13.4010                16.9844

 - Thermochemistry -
 -------------------
 Temperature   298.150 Kelvin.  Pressure   1.00000 Atm.
 Atom     1 has atomic number  6 and mass  12.00000

 Molecular mass:   136.12520 amu.
 Principal axes and moments of inertia in atomic units:
                           1         2         3
     Eigenvalues --   882.100431785.529462396.74429
           X            0.99995   0.00885  -0.00502
           Y           -0.00887   0.99996  -0.00298
           Z            0.00499   0.00302   0.99998
 This molecule is an asymmetric top.
 Rotational symmetry number  1.
 Warning -- assumption of classical behavior for rotation
           may cause significant error
 Rotational temperatures (Kelvin)      0.09819     0.04851     0.03614
 Rotational constants (GHZ):           2.04596     1.01076     0.75300
 Zero-point vibrational energy     620151.2 (Joules/Mol)
                                  148.21969 (Kcal/Mol)
 Warning -- explicit consideration of  16 degrees of freedom as
           vibrations may cause significant error
 Vibrational temperatures:     59.70    90.71   124.46   224.55   322.77
          (Kelvin)            341.22   379.11   438.05   461.35   496.07
                              519.37   569.99   692.14   765.84   859.27
                              860.05   908.64  1024.11  1087.56  1162.79
                             1279.65  1308.58  1330.09  1367.42  1412.36
                             1446.77  1481.64  1492.59  1514.40  1560.14
                             1567.14  1605.01  1621.47  1623.08  1744.82
                             1772.81  1809.01  1898.62  1930.61  1952.61
                             1971.03  2006.92  2059.90  2066.28  2081.26
                             2114.03  2169.93  2177.55  2184.03  2194.26
                             2198.82  2207.73  2211.97  2219.63  2415.50
                             2451.99  4340.89  4349.83  4361.44  4380.69
                             4385.80  4403.09  4412.60  4433.00  4465.03
                             4467.92  4478.58  4483.11  4499.21  4571.04
                             4616.61  4687.87

 Zero-point correction=                           0.236203 (Hartree/Particle)
 Thermal correction to Energy=                    0.247253
 Thermal correction to Enthalpy=                  0.248198
 Thermal correction to Gibbs Free Energy=         0.199468
 Sum of electronic and zero-point Energies=           -390.485733
 Sum of electronic and thermal Energies=              -390.474683
 Sum of electronic and thermal Enthalpies=            -390.473739
 Sum of electronic and thermal Free Energies=         -390.522469

                     E (Thermal)             CV                S
                      KCal/Mol        Cal/Mol-Kelvin    Cal/Mol-Kelvin
 Total                  155.154             41.891            102.561
 Electronic               0.000              0.000              0.000
 Translational            0.889              2.981             40.637
 Rotational               0.889              2.981             29.713
 Vibrational            153.376             35.930             32.210
 Vibration     1          0.594              1.981              5.186
 Vibration     2          0.597              1.972              4.359
 Vibration     3          0.601              1.959              3.738
 Vibration     4          0.620              1.896              2.597
 Vibration     5          0.649              1.804              1.924
 Vibration     6          0.656              1.784              1.824
 Vibration     7          0.670              1.740              1.638
 Vibration     8          0.695              1.665              1.392
 Vibration     9          0.706              1.634              1.307
 Vibration    10          0.723              1.586              1.190
 Vibration    11          0.735              1.553              1.118
 Vibration    12          0.763              1.478              0.977
 Vibration    13          0.837              1.292              0.707
 Vibration    14          0.887              1.179              0.582
 Vibration    15          0.955              1.038              0.454
 Vibration    16          0.956              1.037              0.454

 Optimization completed.
    -- Stationary point found.
 Normal termination of Gaussian 16 at Tue Dec  8 10:57:49 2020.

 ----------------------------------------------------------------------
 # B3LYP/6-311++G(d,p) empiricaldispersion=gd3bj scf=xqc pop=npa geom=c
 heck
 ----------------------------------------------------------------------

 --------------------------------------
 CID_153178010_JID_497_Energie_neutraal
 --------------------------------------
 Structure from the checkpoint file:  "JID_497.chk"
 Charge =  0 Multiplicity = 1

 SCF Done:  E(RB3LYP) =  -390.826651332     A.U. after   13 cycles
 Normal termination of Gaussian 16 at Tue Dec  8 11:01:05 2020.

 ----------------------------------------------------------------------
 # B3LYP/6-311++G(d,p) empiricaldispersion=gd3bj scf=xqc pop=npa geom=c
 heck
 ----------------------------------------------------------------------

 ------------------------------------
 CID_153178010_JID_497_Energie_kation
 ------------------------------------
 Structure from the checkpoint file:  "JID_497.chk"
 Charge =  1 Multiplicity = 2

 SCF Done:  E(UB3LYP) =  -390.542797921     A.U. after   17 cycles
 Normal termination of Gaussian 16 at Tue Dec  8 11:05:16 2020.
 Gaussian 16:  ES64L-G16RevA.03 25-Dec-2016

 ----------------------------------------------------------------------
 # B3LYP/6-311++G(d,p) empiricaldispersion=gd3bj scf=xqc pop=npa geom=c
 heck
 ----------------------------------------------------------------------

 -----------------------------------
 CID_153178010_JID_497_Energie_anion
 -----------------------------------
 Structure from the checkpoint file:  "JID_497.chk"
 Charge = -1 Multiplicity = 2

                         Standard orientation:
 ---------------------------------------------------------------------
 Center     Atomic      Atomic             Coordinates (Angstroms)
 Number     Number       Type             X           Y           Z
 ---------------------------------------------------------------------
      1          6           0       -2.659579    0.274263    1.008162
      2          6           0       -1.894147    0.106107   -0.317367
      3          6           0       -1.630773   -1.373047   -0.663952
      4          6           0       -0.221672   -1.650308   -0.111976
      5          6           0        0.444468   -0.278167   -0.095838
      6          6           0       -0.490434    0.693887   -0.233455
      7          6           0       -0.385042    2.190199   -0.253824
      8          6           0        1.900377   -0.187194    0.100096
      9          6           0        2.615994   -1.288480    0.396846
     10          6           0        2.626326    1.133452   -0.027324
     11          1           0       -2.133787   -0.233671    1.825135
     12          1           0       -3.665577   -0.154091    0.931336
     13          1           0       -2.766617    1.329168    1.283976
     14          1           0       -2.474027    0.605171   -1.107224
     15          1           0       -2.392761   -2.047165   -0.258380
     16          1           0       -1.625574   -1.498096   -1.752621
     17          1           0       -0.256023   -2.072142    0.903206
     18          1           0        0.328264   -2.370257   -0.728016
     19          1           0        0.631004    2.573818   -0.210873
     20          1           0       -0.857470    2.584378   -1.164586
     21          1           0       -0.940554    2.624350    0.588821
     22          1           0        3.690616   -1.232415    0.544839
     23          1           0        2.166407   -2.267778    0.514176
     24          1           0        2.422312    1.616476   -0.989518
     25          1           0        2.333860    1.836228    0.761406
     26          1           0        3.706827    0.981760    0.050114
 ---------------------------------------------------------------------

 SCF Done:  E(UB3LYP) =  -390.810048530     A.U. after   33 cycles
 SCF Done:  E(UB3LYP) =  -390.810048530     a.u. after    1 cycles

 The electronic state is 2-A.
 Alpha  occ. eigenvalues --  -10.06602 -10.05527 -10.05477 -10.05268 -10.05034
 Alpha  occ. eigenvalues --  -10.04936 -10.04834 -10.04792 -10.04103 -10.03846
 Alpha  occ. eigenvalues --   -0.74071  -0.68497  -0.63444  -0.61710  -0.57471
 Alpha  occ. eigenvalues --   -0.55527  -0.52709  -0.46696  -0.43321  -0.37846
 Alpha  occ. eigenvalues --   -0.36428  -0.35141  -0.32764  -0.31101  -0.30976
 Alpha  occ. eigenvalues --   -0.30256  -0.29219  -0.28217  -0.26947  -0.26428
 Alpha  occ. eigenvalues --   -0.25527  -0.24159  -0.22161  -0.21538  -0.20567
 Alpha  occ. eigenvalues --   -0.20027  -0.16683  -0.10177   0.05063
 Alpha virt. eigenvalues --    0.07542   0.07965   0.08207   0.09034   0.09608
 Alpha virt. eigenvalues --    0.09914   0.10889   0.11365   0.11899   0.12167
 Alpha virt. eigenvalues --    0.12380   0.13810   0.14104   0.14998   0.15187

  Beta  occ. eigenvalues --  -10.06559 -10.05508 -10.05473 -10.05163 -10.05028
  Beta  occ. eigenvalues --  -10.04914 -10.04821 -10.04770 -10.04052 -10.03766
  Beta  occ. eigenvalues --   -0.73965  -0.68384  -0.63352  -0.61639  -0.57382
  Beta  occ. eigenvalues --   -0.55425  -0.52620  -0.46567  -0.43217  -0.37751
  Beta  occ. eigenvalues --   -0.36342  -0.35070  -0.32687  -0.31015  -0.30922
  Beta  occ. eigenvalues --   -0.30167  -0.29140  -0.28173  -0.26890  -0.26383
  Beta  occ. eigenvalues --   -0.25461  -0.24101  -0.22068  -0.21494  -0.20525
  Beta  occ. eigenvalues --   -0.19950  -0.16359  -0.09691
  Beta virt. eigenvalues --    0.07386   0.08128   0.08558   0.08774   0.09686
  Beta virt. eigenvalues --    0.10085   0.10366   0.11249   0.11702   0.12370
  Beta virt. eigenvalues --    0.12642   0.12707   0.14041   0.14401   0.15420

 Mulliken charges and spin densities:
               1          2
     1  C    2.151327  -2.941446
     2  C   -3.135591   3.379848
     3  C    0.113210  -0.697698
     4  C    0.227763  -0.638983
     5  C    1.228809  -0.355127
     6  C   -0.870728   0.974596
     7  C    2.004047  -2.408806
     8  C   -0.678170   0.779963
     9  C   -0.235409  -0.465202
    10  C    0.417876  -1.134678
    11  H   -0.181488   0.338765
    12  H   -0.522035   0.661722
    13  H   -0.268452   0.384304
    14  H   -0.515697   0.725929
    15  H   -0.187872   0.349623
    16  H   -0.016366   0.143276
    17  H   -0.062723   0.217598
    18  H    0.202787  -0.092857
    19  H   -0.101886   0.216611
    20  H   -0.427989   0.588232
    21  H   -0.006347   0.158429
    22  H   -0.076338   0.171633
    23  H    0.060571   0.086774
    24  H   -0.005293   0.155036
    25  H   -0.136150   0.299861
    26  H    0.022145   0.102597
 Sum of Mulliken charges =  -1.00000   1.00000

 Dipole moment (field-independent basis, Debye):
    X=              4.2652    Y=             -2.4724    Z=             -1.0336  Tot=              5.0371
 Quadrupole moment (field-independent basis, Debye-Ang):
   XX=           -123.6300   YY=           -100.2393   ZZ=            -94.7248
   XY=              2.9448   XZ=             -1.1980   YZ=              4.6866

 Summary of Natural Population Analysis:

                                       Natural Population
                Natural  -----------------------------------------------
    Atom  No    Charge         Core      Valence    Rydberg      Total
 -----------------------------------------------------------------------
      C    1   -0.28094      0.99964     2.27499    0.00631     3.28094
      C    2   -0.12139      0.99957     2.11007    0.01175     3.12139
      C    3   -0.18248      0.99963     2.17340    0.00945     3.18248
      C    4   -0.19399      0.99961     2.18749    0.00688     3.19399
      C    5   -0.03416      0.99939     2.02400    0.01077     3.03416
      C    6    0.03347      0.99945     1.95566    0.01142     2.96653
      C    7   -0.30105      0.99962     2.29560    0.00584     3.30105
      C    8   -0.01045      0.99949     1.99926    0.01169     3.01045
      C    9   -0.18748      0.99953     2.18166    0.00629     3.18748
      C   10   -0.29436      0.99963     2.28921    0.00552     3.29436
      H   11    0.09657      0.00000     0.40207    0.00136     0.40343
      H   12    0.09989      0.00000     0.39796    0.00214     0.40011
      H   13    0.09815      0.00000     0.40065    0.00121     0.40185
      H   14    0.09865      0.00000     0.39816    0.00318     0.40135
      H   15    0.09630      0.00000     0.40272    0.00097     0.40370
      H   16    0.09528      0.00000     0.40347    0.00126     0.40472
      H   17    0.09748      0.00000     0.40095    0.00158     0.40252
      H   18    0.09609      0.00000     0.40242    0.00149     0.40391
      H   19    0.10403      0.00000     0.39474    0.00123     0.39597
      H   20    0.10632      0.00000     0.39127    0.00242     0.39368
      H   21    0.10343      0.00000     0.39532    0.00125     0.39657
      H   22    0.08657      0.00000     0.41256    0.00087     0.41343
      H   23    0.09170      0.00000     0.40731    0.00099     0.40830
      H   24    0.10096      0.00000     0.39793    0.00111     0.39904
      H   25    0.10377      0.00000     0.39479    0.00144     0.39623
      H   26    0.09767      0.00000     0.40144    0.00090     0.40233
 =======================================================================
   * Total *   -0.00000      9.99558    27.89511    0.10932    38.00000

 Normal termination of Gaussian 16 at Tue Dec  8 11:11:40 2020.
