 Gaussian 16, Revision A.03,

 -----------------------------------------------------------
 # opt freq B3LYP/6-31G(d) empiricaldispersion=gd3bj scf=xqc
 -----------------------------------------------------------

 -----------------------------
 CID_5463414_JID_2529_neutraal
 -----------------------------
 Symbolic Z-matrix:
 Charge =  0 Multiplicity = 1

 SCF Done:  E(RB3LYP) =  -480.542332091     A.U. after   15 cycles
 SCF Done:  E(RB3LYP) =  -480.565069993     A.U. after   13 cycles
 SCF Done:  E(RB3LYP) =  -480.566421801     A.U. after   13 cycles
 SCF Done:  E(RB3LYP) =  -480.566887463     A.U. after   13 cycles
 SCF Done:  E(RB3LYP) =  -480.567005777     A.U. after   12 cycles
 SCF Done:  E(RB3LYP) =  -480.567036776     A.U. after   12 cycles
 SCF Done:  E(RB3LYP) =  -480.567041228     A.U. after    9 cycles
 SCF Done:  E(RB3LYP) =  -480.567042515     A.U. after    8 cycles
 SCF Done:  E(RB3LYP) =  -480.567043605     A.U. after   10 cycles
 SCF Done:  E(RB3LYP) =  -480.567044064     A.U. after    8 cycles
 SCF Done:  E(RB3LYP) =  -480.567044294     A.U. after    8 cycles
 Optimization completed.
    -- Stationary point found.
 Normal termination of Gaussian 16 at Wed Dec  9 17:34:49 2020.

 --------------------------------------------------------------------
 #N Geom=AllCheck Guess=TCheck SCRF=Check GenChk RB3LYP/6-31G(d) Freq
 --------------------------------------------------------------------

 Structure from the checkpoint file:  "JID_2529.chk"
 -----------------------------
 CID_5463414_JID_2529_neutraal
 -----------------------------
 Charge =  0 Multiplicity = 1

 SCF Done:  E(RB3LYP) =  -480.567044294     A.U. after    1 cycles

  Exact polarizability: 171.944   4.121 129.100  -4.551  -0.548  56.789
 Approx polarizability: 239.072  10.832 231.099 -10.160  -6.005  86.935

                      1                      2                      3
                      A                      A                      A
 Frequencies --     36.5291                54.5731                84.2025
 Red. masses --      3.2835                 3.4293                 3.3689
 Frc consts  --      0.0026                 0.0060                 0.0141
 IR Inten    --      0.4587                 1.6904                 0.0650

                      4                      5                      6
                      A                      A                      A
 Frequencies --    114.9548               148.5755               196.6245
 Red. masses --      4.5310                 4.6847                 1.8858
 Frc consts  --      0.0353                 0.0609                 0.0430
 IR Inten    --      1.3296                 4.8436                 0.1568

                      7                      8                      9
                      A                      A                      A
 Frequencies --    249.3087               302.5316               345.8351
 Red. masses --      1.6333                 4.2908                 4.0424
 Frc consts  --      0.0598                 0.2314                 0.2849
 IR Inten    --      0.3396                 1.2662                 0.8712

                     10                     11                     12
                      A                      A                      A
 Frequencies --    349.7429               415.3725               438.9774
 Red. masses --      3.8414                 3.0089                 3.6801
 Frc consts  --      0.2768                 0.3059                 0.4178
 IR Inten    --      1.2503                 0.0198                 2.5263

                     13                     14                     15
                      A                      A                      A
 Frequencies --    480.6701               514.8432               635.7058
 Red. masses --      4.4734                 4.1726                 6.3969
 Frc consts  --      0.6089                 0.6516                 1.5231
 IR Inten    --      1.1947                 4.4538                 0.0044

                     16                     17                     18
                      A                      A                      A
 Frequencies --    661.7841               666.5424               708.8274
 Red. masses --      5.0271                 5.3688                 1.8631
 Frc consts  --      1.2972                 1.4053                 0.5515
 IR Inten    --      2.2871                 1.3489                21.8780

                     19                     20                     21
                      A                      A                      A
 Frequencies --    733.4759               780.4265               825.4985
 Red. masses --      3.2179                 1.8414                 1.3787
 Frc consts  --      1.0200                 0.6608                 0.5535
 IR Inten    --      4.2564                39.1747                 2.8969

                     22                     23                     24
                      A                      A                      A
 Frequencies --    857.5793               910.4112               915.0517
 Red. masses --      1.2518                 1.3591                 2.1142
 Frc consts  --      0.5424                 0.6637                 1.0430
 IR Inten    --      0.6126                 9.4597                 8.4366

                     25                     26                     27
                      A                      A                      A
 Frequencies --    936.2993               970.9118               999.1124
 Red. masses --      1.5046                 1.3477                 1.2702
 Frc consts  --      0.7771                 0.7485                 0.7471
 IR Inten    --      0.5821                 0.2044                 0.2479

                     28                     29                     30
                      A                      A                      A
 Frequencies --   1008.1365              1021.5773              1040.1657
 Red. masses --      3.5287                 5.8213                 2.1902
 Frc consts  --      2.1130                 3.5794                 1.3962
 IR Inten    --      2.2927                 0.1452                12.7619

                     31                     32                     33
                      A                      A                      A
 Frequencies --   1066.2754              1099.4520              1121.3572
 Red. masses --      2.0832                 1.6263                 1.5910
 Frc consts  --      1.3955                 1.1583                 1.1787
 IR Inten    --      0.8339                 3.9529                 2.7204

                     34                     35                     36
                      A                      A                      A
 Frequencies --   1184.2276              1196.7132              1224.3832
 Red. masses --      2.2572                 1.1002                 1.1490
 Frc consts  --      1.8651                 0.9283                 1.0148
 IR Inten    --      1.5026                 0.0649                 0.7993

                     37                     38                     39
                      A                      A                      A
 Frequencies --   1280.2893              1315.0297              1336.0029
 Red. masses --      2.0926                 1.5258                 1.9936
 Frc consts  --      2.0209                 1.5546                 2.0965
 IR Inten    --      3.4805                 8.7625                 0.3085

                     40                     41                     42
                      A                      A                      A
 Frequencies --   1357.8435              1375.6185              1393.4451
 Red. masses --      1.8959                 1.7018                 1.5594
 Frc consts  --      2.0595                 1.8974                 1.7840
 IR Inten    --      1.9635                 1.8461                 5.7033

                     43                     44                     45
                      A                      A                      A
 Frequencies --   1436.3260              1498.4944              1513.9897
 Red. masses --      1.2156                 2.2367                 1.0784
 Frc consts  --      1.4776                 2.9591                 1.4564
 IR Inten    --      2.3347                 9.9361                 3.8763

                     46                     47                     48
                      A                      A                      A
 Frequencies --   1527.8277              1536.2661              1548.5578
 Red. masses --      1.0413                 1.0759                 2.1802
 Frc consts  --      1.4321                 1.4961                 3.0803
 IR Inten    --      6.4019                 3.6795                 9.2926

                     49                     50                     51
                      A                      A                      A
 Frequencies --   1639.5676              1664.6857              1687.8722
 Red. masses --      5.2401                 5.4625                 6.9328
 Frc consts  --      8.2994                 8.9188                11.6369
 IR Inten    --      0.8214                 2.1840                 4.7701

                     52                     53                     54
                      A                      A                      A
 Frequencies --   2342.1494              3034.5779              3053.0958
 Red. masses --     12.6855                 1.0681                 1.0352
 Frc consts  --     41.0004                 5.7952                 5.6855
 IR Inten    --     14.0214                23.2656                34.1465

                     55                     56                     57
                      A                      A                      A
 Frequencies --   3102.5696              3124.6343              3132.2546
 Red. masses --      1.0950                 1.1009                 1.1038
 Frc consts  --      6.2105                 6.3330                 6.3807
 IR Inten    --      0.6456                31.7317                30.2691

                     58                     59                     60
                      A                      A                      A
 Frequencies --   3175.7437              3187.2517              3195.2590
 Red. masses --      1.0883                 1.0850                 1.0876
 Frc consts  --      6.4666                 6.4942                 6.5426
 IR Inten    --     12.5076                 0.7846                 3.0888

                     61                     62                     63
                      A                      A                      A
 Frequencies --   3204.1756              3210.4213              3217.0157
 Red. masses --      1.0909                 1.0938                 1.0979
 Frc consts  --      6.5991                 6.6425                 6.6947
 IR Inten    --     16.2249                23.7797                14.7629

 - Thermochemistry -
 -------------------
 Temperature   298.150 Kelvin.  Pressure   1.00000 Atm.
 Atom     1 has atomic number  6 and mass  12.00000

 Molecular mass:   157.08915 amu.
 Principal axes and moments of inertia in atomic units:
                           1         2         3
     Eigenvalues --  1017.124293284.559904158.92169
           X            0.99966   0.02594   0.00071
           Y           -0.02594   0.99955   0.01477
           Z           -0.00032  -0.01478   0.99989
 This molecule is an asymmetric top.
 Rotational symmetry number  1.
 Warning -- assumption of classical behavior for rotation
           may cause significant error
 Rotational temperatures (Kelvin)      0.08516     0.02637     0.02083
 Rotational constants (GHZ):           1.77436     0.54946     0.43394
 Zero-point vibrational energy     498768.7 (Joules/Mol)
                                  119.20859 (Kcal/Mol)
 Warning -- explicit consideration of  14 degrees of freedom as
           vibrations may cause significant error
 Vibrational temperatures:     52.56    78.52   121.15   165.39   213.77
          (Kelvin)            282.90   358.70   435.28   497.58   503.20
                              597.63   631.59   691.58   740.74   914.64
                              952.16   959.01  1019.84  1055.31  1122.86
                             1187.71  1233.87  1309.88  1316.56  1347.13
                             1396.93  1437.50  1450.48  1469.82  1496.57
                             1534.13  1581.87  1613.38  1703.84  1721.80
                             1761.61  1842.05  1892.03  1922.21  1953.63
                             1979.21  2004.86  2066.55  2156.00  2178.29
                             2198.20  2210.34  2228.03  2358.97  2395.11
                             2428.47  3369.83  4366.08  4392.72  4463.91
                             4495.65  4506.62  4569.19  4585.74  4597.26
                             4610.09  4619.08  4628.57

 Zero-point correction=                           0.189971 (Hartree/Particle)
 Thermal correction to Energy=                    0.201202
 Thermal correction to Enthalpy=                  0.202146
 Thermal correction to Gibbs Free Energy=         0.151706
 Sum of electronic and zero-point Energies=           -480.377073
 Sum of electronic and thermal Energies=              -480.365842
 Sum of electronic and thermal Enthalpies=            -480.364898
 Sum of electronic and thermal Free Energies=         -480.415338

                     E (Thermal)             CV                S
                      KCal/Mol        Cal/Mol-Kelvin    Cal/Mol-Kelvin
 Total                  126.256             41.750            106.160
 Electronic               0.000              0.000              0.000
 Translational            0.889              2.981             41.064
 Rotational               0.889              2.981             31.008
 Vibrational            124.479             35.788             34.088
 Vibration     1          0.594              1.982              5.439
 Vibration     2          0.596              1.976              4.644
 Vibration     3          0.601              1.960              3.790
 Vibration     4          0.608              1.937              3.183
 Vibration     5          0.618              1.904              2.690
 Vibration     6          0.636              1.845              2.164
 Vibration     7          0.662              1.764              1.735
 Vibration     8          0.694              1.669              1.403
 Vibration     9          0.724              1.584              1.185
 Vibration    10          0.727              1.576              1.167
 Vibration    11          0.779              1.437              0.908
 Vibration    12          0.799              1.385              0.830
 Vibration    13          0.837              1.293              0.708
 Vibration    14          0.870              1.217              0.622

 Optimization completed.
    -- Stationary point found.
 Normal termination of Gaussian 16 at Wed Dec  9 17:39:41 2020.

 ----------------------------------------------------------------------
 # B3LYP/6-311++G(d,p) empiricaldispersion=gd3bj scf=xqc pop=npa geom=c
 heck
 ----------------------------------------------------------------------

 -------------------------------------
 CID_5463414_JID_2529_Energie_neutraal
 -------------------------------------
 Structure from the checkpoint file:  "JID_2529.chk"
 Charge =  0 Multiplicity = 1

 SCF Done:  E(RB3LYP) =  -480.692991296     A.U. after   15 cycles
 Normal termination of Gaussian 16 at Wed Dec  9 17:42:55 2020.

 ----------------------------------------------------------------------
 # B3LYP/6-311++G(d,p) empiricaldispersion=gd3bj scf=xqc pop=npa geom=c
 heck
 ----------------------------------------------------------------------

 -----------------------------------
 CID_5463414_JID_2529_Energie_kation
 -----------------------------------
 Structure from the checkpoint file:  "JID_2529.chk"
 Charge =  1 Multiplicity = 2

 SCF Done:  E(UB3LYP) =  -480.381661473     A.U. after   23 cycles
 Normal termination of Gaussian 16 at Wed Dec  9 17:48:34 2020.
 Gaussian 16:  ES64L-G16RevA.03 25-Dec-2016

 ----------------------------------------------------------------------
 # B3LYP/6-311++G(d,p) empiricaldispersion=gd3bj scf=xqc pop=npa geom=c
 heck
 ----------------------------------------------------------------------

 ----------------------------------
 CID_5463414_JID_2529_Energie_anion
 ----------------------------------
 Structure from the checkpoint file:  "JID_2529.chk"
 Charge = -1 Multiplicity = 2

                         Standard orientation:
 ---------------------------------------------------------------------
 Center     Atomic      Atomic             Coordinates (Angstroms)
 Number     Number       Type             X           Y           Z
 ---------------------------------------------------------------------
      1          6           0       -3.832000   -1.268435   -0.471630
      2          6           0       -3.085647   -0.384971    0.544608
      3          6           0       -1.607087   -0.611220    0.492068
      4          6           0       -0.668369    0.290887    0.131852
      5          6           0       -1.078507    1.634265   -0.177689
      6          7           0       -1.390114    2.727780   -0.424325
      7          6           0        0.787142    0.006494    0.048253
      8          6           0        1.720461    1.044164    0.191595
      9          6           0        3.087768    0.780804    0.141979
     10          6           0        3.546249   -0.521142   -0.058507
     11          6           0        2.625080   -1.558343   -0.218906
     12          6           0        1.258699   -1.297039   -0.172556
     13          1           0       -3.529821   -1.022136   -1.494677
     14          1           0       -4.913479   -1.119510   -0.388179
     15          1           0       -3.623162   -2.331359   -0.304026
     16          1           0       -3.316687    0.669478    0.363891
     17          1           0       -3.443383   -0.624896    1.555929
     18          1           0       -1.267609   -1.611012    0.756505
     19          1           0        1.370425    2.060237    0.346019
     20          1           0        3.794906    1.596702    0.259962
     21          1           0        4.612003   -0.725764   -0.101421
     22          1           0        2.971359   -2.572672   -0.395583
     23          1           0        0.553522   -2.106309   -0.334545
 ---------------------------------------------------------------------

 SCF Done:  E(UB3LYP) =  -480.705854191     A.U. after   27 cycles

 The electronic state is 2-A.
 Alpha  occ. eigenvalues --  -14.15065 -10.05372 -10.04634 -10.04398 -10.04260
 Alpha  occ. eigenvalues --  -10.04217 -10.04175 -10.03875 -10.03599 -10.03576
 Alpha  occ. eigenvalues --  -10.03371 -10.01374  -0.75487  -0.72546  -0.67693
 Alpha  occ. eigenvalues --   -0.63779  -0.61539  -0.58771  -0.51895  -0.48166
 Alpha  occ. eigenvalues --   -0.46400  -0.44332  -0.39442  -0.34626  -0.34096
 Alpha  occ. eigenvalues --   -0.32079  -0.30974  -0.29898  -0.29310  -0.27101
 Alpha  occ. eigenvalues --   -0.25700  -0.24668  -0.23390  -0.22361  -0.21884
 Alpha  occ. eigenvalues --   -0.21644  -0.20941  -0.20404  -0.18104  -0.14904
 Alpha  occ. eigenvalues --   -0.12752  -0.09535   0.04221
 Alpha virt. eigenvalues --    0.08190   0.08467   0.09815   0.10682   0.10806
 Alpha virt. eigenvalues --    0.11414   0.11693   0.12617   0.12912   0.13821
 Alpha virt. eigenvalues --    0.14143   0.14481   0.15191   0.16439   0.17283

  Beta  occ. eigenvalues --  -14.14915 -10.05358 -10.04690 -10.04296 -10.04261
  Beta  occ. eigenvalues --  -10.04248 -10.04093 -10.03778 -10.03540 -10.03415
  Beta  occ. eigenvalues --  -10.03243 -10.00767  -0.75235  -0.72317  -0.67111
  Beta  occ. eigenvalues --   -0.63494  -0.61375  -0.58388  -0.51402  -0.48050
  Beta  occ. eigenvalues --   -0.46133  -0.43762  -0.39328  -0.34382  -0.33892
  Beta  occ. eigenvalues --   -0.31896  -0.30808  -0.29687  -0.29262  -0.26845
  Beta  occ. eigenvalues --   -0.25243  -0.24111  -0.23206  -0.22098  -0.21788
  Beta  occ. eigenvalues --   -0.21082  -0.20656  -0.20175  -0.17969  -0.13751
  Beta  occ. eigenvalues --   -0.12305  -0.07588
  Beta virt. eigenvalues --    0.07954   0.08413   0.09757   0.10183   0.10706
  Beta virt. eigenvalues --    0.10925   0.11552   0.11671   0.12797   0.13668
  Beta virt. eigenvalues --    0.14124   0.14340   0.14527   0.15164   0.16420

 Mulliken charges and spin densities:
               1          2
     1  C   -0.145903  -0.467445
     2  C   -0.437225   0.271070
     3  C   -0.282229   0.419342
     4  C    1.455387   0.006945
     5  C   -1.335280  -0.051080
     6  N   -0.320307   0.080904
     7  C    1.264994   0.042147
     8  C   -0.572997   0.031650
     9  C   -0.333683   0.020532
    10  C   -0.416954   0.147711
    11  C   -0.309225  -0.028282
    12  C   -0.460357   0.112586
    13  H    0.072054   0.063137
    14  H   -0.125125   0.244836
    15  H    0.037166   0.082328
    16  H    0.167632   0.003522
    17  H    0.069052   0.058606
    18  H    0.120106  -0.055445
    19  H    0.127325  -0.000805
    20  H    0.125983  -0.001573
    21  H    0.101707  -0.011964
    22  H    0.120729   0.005317
    23  H    0.077150   0.025961
 Sum of Mulliken charges =  -1.00000   1.00000

 Dipole moment (field-independent basis, Debye):
    X=              2.8402    Y=             -3.1852    Z=              0.8382  Tot=              4.3491
 Quadrupole moment (field-independent basis, Debye-Ang):
   XX=           -110.9170   YY=            -96.9859   ZZ=            -84.4115
   XY=              4.4279   XZ=             -2.1225   YZ=              2.5406

 Summary of Natural Population Analysis:

                                       Natural Population
                Natural  -----------------------------------------------
    Atom  No    Charge         Core      Valence    Rydberg      Total
 -----------------------------------------------------------------------
      C    1   -0.27180      0.99966     2.26790    0.00423     3.27180
      C    2   -0.21616      0.99963     2.20709    0.00944     3.21616
      C    3    0.08199      0.99952     1.90822    0.01027     2.91801
      C    4   -0.10374      0.99936     2.09418    0.01020     3.10374
      C    5    0.15977      0.99964     1.82084    0.01975     2.84023
      N    6   -0.20109      0.99978     2.68981    0.01149     3.70109
      C    7    0.00263      0.99950     1.98861    0.00927     2.99737
      C    8   -0.09169      0.99953     2.08476    0.00741     3.09169
      C    9   -0.10727      0.99958     2.09844    0.00926     3.10727
      C   10   -0.08662      0.99957     2.07712    0.00993     3.08662
      C   11   -0.11861      0.99957     2.10973    0.00930     3.11861
      C   12   -0.07585      0.99953     2.06849    0.00784     3.07585
      H   13    0.09640      0.00000     0.40233    0.00128     0.40360
      H   14    0.09198      0.00000     0.40641    0.00161     0.40802
      H   15    0.09033      0.00000     0.40817    0.00150     0.40967
      H   16    0.10194      0.00000     0.39616    0.00191     0.39806
      H   17    0.09712      0.00000     0.40158    0.00130     0.40288
      H   18    0.08092      0.00000     0.41814    0.00094     0.41908
      H   19    0.10222      0.00000     0.39639    0.00139     0.39778
      H   20    0.09117      0.00000     0.40783    0.00100     0.40883
      H   21    0.08841      0.00000     0.41055    0.00104     0.41159
      H   22    0.09120      0.00000     0.40780    0.00101     0.40880
      H   23    0.09676      0.00000     0.40196    0.00127     0.40324
 =======================================================================
   * Total *    0.00000     11.99487    29.87250    0.13262    42.00000

 Normal termination of Gaussian 16 at Wed Dec  9 17:55:07 2020.
