 Gaussian 16, Revision A.03,

 -----------------------------------------------------------
 # opt freq B3LYP/6-31G(d) empiricaldispersion=gd3bj scf=xqc
 -----------------------------------------------------------

 -------------------------------
 CID_130855577_JID_3334_neutraal
 -------------------------------
 Symbolic Z-matrix:
 Charge =  0 Multiplicity = 1

 SCF Done:  E(RB3LYP) =  -525.899546646     A.U. after   12 cycles
 SCF Done:  E(RB3LYP) =  -525.905670525     A.U. after   11 cycles
 SCF Done:  E(RB3LYP) =  -525.905673865     A.U. after   11 cycles
 SCF Done:  E(RB3LYP) =  -525.906159077     A.U. after   11 cycles
 SCF Done:  E(RB3LYP) =  -525.907499443     A.U. after   10 cycles
 SCF Done:  E(RB3LYP) =  -525.907809253     A.U. after   10 cycles
 SCF Done:  E(RB3LYP) =  -525.908683058     A.U. after   10 cycles
 SCF Done:  E(RB3LYP) =  -525.909201911     A.U. after   10 cycles
 SCF Done:  E(RB3LYP) =  -525.909428635     A.U. after   10 cycles
 SCF Done:  E(RB3LYP) =  -525.909649040     A.U. after    9 cycles
 SCF Done:  E(RB3LYP) =  -525.909798306     A.U. after    9 cycles
 SCF Done:  E(RB3LYP) =  -525.909816863     A.U. after    9 cycles
 SCF Done:  E(RB3LYP) =  -525.909824815     A.U. after    9 cycles
 SCF Done:  E(RB3LYP) =  -525.909827280     A.U. after    8 cycles
 SCF Done:  E(RB3LYP) =  -525.909827617     A.U. after    6 cycles
 SCF Done:  E(RB3LYP) =  -525.909827709     A.U. after    6 cycles
 Optimization completed.
    -- Stationary point found.
 Normal termination of Gaussian 16 at Wed Dec  9 23:03:50 2020.

 --------------------------------------------------------------------
 #N Geom=AllCheck Guess=TCheck SCRF=Check GenChk RB3LYP/6-31G(d) Freq
 --------------------------------------------------------------------

 Structure from the checkpoint file:  "JID_3334.chk"
 -------------------------------
 CID_130855577_JID_3334_neutraal
 -------------------------------
 Charge =  0 Multiplicity = 1

 SCF Done:  E(RB3LYP) =  -525.909827709     A.U. after    1 cycles

  Exact polarizability: 151.979  -0.643 119.148  -0.832  -1.784 111.004
 Approx polarizability: 179.574  -0.072 171.889  -2.172  -4.570 175.090

                      1                      2                      3
                      A                      A                      A
 Frequencies --     49.3956                56.1327                79.9346
 Red. masses --      2.9434                 2.5868                 2.0836
 Frc consts  --      0.0042                 0.0048                 0.0078
 IR Inten    --      0.0296                 0.2261                 0.1130

                      4                      5                      6
                      A                      A                      A
 Frequencies --    111.8050               118.7721               179.2142
 Red. masses --      1.8567                 2.3747                 2.3008
 Frc consts  --      0.0137                 0.0197                 0.0435
 IR Inten    --      0.7746                 0.7046                 0.1961

                      7                      8                      9
                      A                      A                      A
 Frequencies --    190.9615               211.5229               221.4237
 Red. masses --      1.6511                 1.6233                 1.5482
 Frc consts  --      0.0355                 0.0428                 0.0447
 IR Inten    --      1.9483                 0.0902                 0.1917

                     10                     11                     12
                      A                      A                      A
 Frequencies --    250.2573               295.1281               325.5428
 Red. masses --      2.6481                 2.5598                 1.3803
 Frc consts  --      0.0977                 0.1314                 0.0862
 IR Inten    --      0.4038                 1.3243                 0.6661

                     13                     14                     15
                      A                      A                      A
 Frequencies --    348.9930               373.6164               378.3523
 Red. masses --      2.6146                 2.1383                 1.7317
 Frc consts  --      0.1876                 0.1759                 0.1461
 IR Inten    --      0.1582                 1.7165                 0.0429

                     16                     17                     18
                      A                      A                      A
 Frequencies --    403.7738               416.9365               494.1704
 Red. masses --      2.0910                 2.2053                 2.7589
 Frc consts  --      0.2009                 0.2259                 0.3970
 IR Inten    --      0.4248                 0.4153                 1.3632

                     19                     20                     21
                      A                      A                      A
 Frequencies --    503.2161               570.7236               632.4822
 Red. masses --      2.4267                 3.8443                 2.4185
 Frc consts  --      0.3621                 0.7378                 0.5700
 IR Inten    --      4.2514                 2.9754                 0.5423

                     22                     23                     24
                      A                      A                      A
 Frequencies --    693.0129               725.4838               801.2957
 Red. masses --      2.3028                 1.8062                 1.5584
 Frc consts  --      0.6516                 0.5601                 0.5896
 IR Inten    --     20.6457                46.3977                 1.8428

                     25                     26                     27
                      A                      A                      A
 Frequencies --    813.2884               845.0220               873.2014
 Red. masses --      1.8526                 1.7403                 2.1088
 Frc consts  --      0.7220                 0.7322                 0.9474
 IR Inten    --      2.9491                 0.0109                 9.0211

                     28                     29                     30
                      A                      A                      A
 Frequencies --    897.5386               926.1949               936.7090
 Red. masses --      2.8049                 2.0693                 1.5630
 Frc consts  --      1.3313                 1.0459                 0.8080
 IR Inten    --      0.4296                 6.7151                 2.1908

                     31                     32                     33
                      A                      A                      A
 Frequencies --    945.6124               947.0878               972.8256
 Red. masses --      1.7906                 1.6294                 1.8336
 Frc consts  --      0.9434                 0.8611                 1.0224
 IR Inten    --      0.3308                 0.4948                 2.1439

                     34                     35                     36
                      A                      A                      A
 Frequencies --    977.6803               986.3416              1018.2936
 Red. masses --      1.5144                 1.5636                 1.6258
 Frc consts  --      0.8529                 0.8962                 0.9933
 IR Inten    --      0.0174                 6.3607                 1.9616

                     37                     38                     39
                      A                      A                      A
 Frequencies --   1023.9883              1033.3637              1042.8356
 Red. masses --      1.5375                 2.7894                 1.9752
 Frc consts  --      0.9499                 1.7550                 1.2656
 IR Inten    --      1.4575                 7.7584                 0.6938

                     40                     41                     42
                      A                      A                      A
 Frequencies --   1057.6816              1062.8277              1080.4160
 Red. masses --      2.2885                 2.0407                 2.1994
 Frc consts  --      1.5083                 1.3581                 1.5126
 IR Inten    --      7.6102                 0.3455                 0.8954

                     43                     44                     45
                      A                      A                      A
 Frequencies --   1123.3438              1141.6585              1148.3635
 Red. masses --      1.8215                 1.9139                 1.9111
 Frc consts  --      1.3542                 1.4697                 1.4849
 IR Inten    --     15.6006                 0.3580                 7.8826

                     46                     47                     48
                      A                      A                      A
 Frequencies --   1190.3346              1192.8001              1207.2742
 Red. masses --      1.6173                 1.6141                 1.8612
 Frc consts  --      1.3502                 1.3531                 1.5983
 IR Inten    --      4.0796                 1.4490                 0.5969

                     49                     50                     51
                      A                      A                      A
 Frequencies --   1213.7449              1231.1736              1243.6104
 Red. masses --      1.7161                 1.6060                 1.5080
 Frc consts  --      1.4895                 1.4343                 1.3741
 IR Inten    --      2.4828                 1.8860                 2.0805

                     52                     53                     54
                      A                      A                      A
 Frequencies --   1266.9019              1289.2450              1297.2565
 Red. masses --      1.3879                 1.3125                 1.4946
 Frc consts  --      1.3125                 1.2854                 1.4819
 IR Inten    --      0.1866                 7.4680                 3.7991

                     55                     56                     57
                      A                      A                      A
 Frequencies --   1299.0714              1318.4730              1327.9939
 Red. masses --      1.3948                 1.3505                 1.3681
 Frc consts  --      1.3869                 1.3833                 1.4215
 IR Inten    --      5.0678                 5.6241                 0.5123

                     58                     59                     60
                      A                      A                      A
 Frequencies --   1343.7929              1353.4215              1355.7780
 Red. masses --      1.4279                 1.4022                 1.3065
 Frc consts  --      1.5192                 1.5133                 1.4150
 IR Inten    --      1.3471                 8.9566                 4.8292

                     61                     62                     63
                      A                      A                      A
 Frequencies --   1368.7626              1376.6010              1394.7677
 Red. masses --      1.4552                 1.7970                 1.3584
 Frc consts  --      1.6063                 2.0064                 1.5569
 IR Inten    --      1.5324                 1.0022                 7.5046

                     64                     65                     66
                      A                      A                      A
 Frequencies --   1399.2837              1422.5675              1430.3988
 Red. masses --      1.3369                 1.3477                 1.2554
 Frc consts  --      1.5423                 1.6069                 1.5134
 IR Inten    --      2.1856                17.2107                 3.2956

                     67                     68                     69
                      A                      A                      A
 Frequencies --   1445.8408              1454.9711              1516.3926
 Red. masses --      1.2338                 1.2125                 1.0765
 Frc consts  --      1.5196                 1.5123                 1.4584
 IR Inten    --     16.3766                 2.8267                 0.9154

                     70                     71                     72
                      A                      A                      A
 Frequencies --   1520.5984              1521.9462              1524.9135
 Red. masses --      1.0505                 1.0534                 1.0818
 Frc consts  --      1.4311                 1.4376                 1.4822
 IR Inten    --      0.5022                 0.3596                 3.1666

                     73                     74                     75
                      A                      A                      A
 Frequencies --   1526.6704              1533.3685              1542.0184
 Red. masses --      1.0828                 1.0498                 1.0576
 Frc consts  --      1.4869                 1.4543                 1.4816
 IR Inten    --      2.1249                 4.0971                 7.8453

                     76                     77                     78
                      A                      A                      A
 Frequencies --   1545.5703              1548.6196              1551.5004
 Red. masses --      1.0899                 1.0487                 1.0609
 Frc consts  --      1.5340                 1.4818                 1.5046
 IR Inten    --      3.4783                15.4705                 5.2895

                     79                     80                     81
                      A                      A                      A
 Frequencies --   1555.8678              2987.6649              2996.1668
 Red. masses --      1.0949                 1.0783                 1.0696
 Frc consts  --      1.5616                 5.6712                 5.6573
 IR Inten    --      0.7369                31.5984                27.2969

                     82                     83                     84
                      A                      A                      A
 Frequencies --   2997.7450              3010.8418              3034.9748
 Red. masses --      1.0822                 1.0850                 1.0420
 Frc consts  --      5.7299                 5.7950                 5.6549
 IR Inten    --      9.9642                58.2079                20.7523

                     85                     86                     87
                      A                      A                      A
 Frequencies --   3041.3706              3044.6286              3053.1257
 Red. masses --      1.0682                 1.0395                 1.0513
 Frc consts  --      5.8215                 5.6772                 5.7741
 IR Inten    --     26.5632                44.3964                14.6810

                     88                     89                     90
                      A                      A                      A
 Frequencies --   3054.0130              3056.6629              3057.7148
 Red. masses --      1.0702                 1.0596                 1.0907
 Frc consts  --      5.8812                 5.8331                 6.0081
 IR Inten    --     22.1949                69.5057                27.7265

                     91                     92                     93
                      A                      A                      A
 Frequencies --   3071.0214              3092.0797              3094.1594
 Red. masses --      1.0644                 1.0979                 1.0977
 Frc consts  --      5.9145                 6.1846                 6.1916
 IR Inten    --     54.8866                28.1696                19.1385

                     94                     95                     96
                      A                      A                      A
 Frequencies --   3101.2441              3105.4765              3107.2952
 Red. masses --      1.1024                 1.0996                 1.1005
 Frc consts  --      6.2468                 6.2481                 6.2607
 IR Inten    --      7.0872                67.4036                22.9633

                     97                     98                     99
                      A                      A                      A
 Frequencies --   3117.8232              3118.9082              3130.8585
 Red. masses --      1.0983                 1.1044                 1.0942
 Frc consts  --      6.2902                 6.3298                 6.3193
 IR Inten    --     23.9915                85.9422                48.6032

                    100                    101                    102
                      A                      A                      A
 Frequencies --   3138.1020              3170.6076              3540.4917
 Red. masses --      1.0996                 1.0959                 1.0752
 Frc consts  --      6.3802                 6.4907                 7.9408
 IR Inten    --     21.1552                23.2743                 1.2631

 - Thermochemistry -
 -------------------
 Temperature   298.150 Kelvin.  Pressure   1.00000 Atm.
 Atom     1 has atomic number  6 and mass  12.00000

 Molecular mass:   181.18305 amu.
 Principal axes and moments of inertia in atomic units:
                           1         2         3
     Eigenvalues --  1102.233333972.152044491.50678
           X            1.00000   0.00013   0.00109
           Y           -0.00013   1.00000  -0.00039
           Z           -0.00109   0.00039   1.00000
 This molecule is an asymmetric top.
 Rotational symmetry number  1.
 Warning -- assumption of classical behavior for rotation
           may cause significant error
 Rotational temperatures (Kelvin)      0.07858     0.02181     0.01928
 Rotational constants (GHZ):           1.63735     0.45435     0.40181
 Zero-point vibrational energy     883567.4 (Joules/Mol)
                                  211.17767 (Kcal/Mol)
 Warning -- explicit consideration of  20 degrees of freedom as
           vibrations may cause significant error
 Vibrational temperatures:     71.07    80.76   115.01   160.86   170.89
          (Kelvin)            257.85   274.75   304.33   318.58   360.06
                              424.62   468.38   502.12   537.55   544.36
                              580.94   599.88   711.00   724.02   821.14
                              910.00   997.09  1043.81  1152.89  1170.14
                             1215.80  1256.34  1291.36  1332.59  1347.72
                             1360.53  1362.65  1399.68  1406.66  1419.13
                             1465.10  1473.29  1486.78  1500.41  1521.77
                             1529.17  1554.48  1616.24  1642.59  1652.24
                             1712.63  1716.17  1737.00  1746.31  1771.38
                             1789.28  1822.79  1854.94  1866.46  1869.07
                             1896.99  1910.69  1933.42  1947.27  1950.66
                             1969.34  1980.62  2006.76  2013.26  2046.76
                             2058.02  2080.24  2093.38  2181.75  2187.80
                             2189.74  2194.01  2196.54  2206.18  2218.62
                             2223.73  2228.12  2232.26  2238.55  4298.58
                             4310.82  4313.09  4331.93  4366.65  4375.85
                             4380.54  4392.77  4394.04  4397.86  4399.37
                             4418.51  4448.81  4451.81  4462.00  4468.09
                             4470.70  4485.85  4487.41  4504.61  4515.03
                             4561.80  5093.98

 Zero-point correction=                           0.336533 (Hartree/Particle)
 Thermal correction to Energy=                    0.350582
 Thermal correction to Enthalpy=                  0.351526
 Thermal correction to Gibbs Free Energy=         0.296155
 Sum of electronic and zero-point Energies=           -525.573295
 Sum of electronic and thermal Energies=              -525.559246
 Sum of electronic and thermal Enthalpies=            -525.558301
 Sum of electronic and thermal Free Energies=         -525.613673

                     E (Thermal)             CV                S
                      KCal/Mol        Cal/Mol-Kelvin    Cal/Mol-Kelvin
 Total                  219.994             54.829            116.539
 Electronic               0.000              0.000              0.000
 Translational            0.889              2.981             41.490
 Rotational               0.889              2.981             31.353
 Vibrational            218.216             48.867             43.696
 Vibration     1          0.595              1.978              4.841
 Vibration     2          0.596              1.975              4.589
 Vibration     3          0.600              1.963              3.892
 Vibration     4          0.607              1.940              3.237
 Vibration     5          0.609              1.934              3.120
 Vibration     6          0.629              1.868              2.337
 Vibration     7          0.634              1.852              2.218
 Vibration     8          0.643              1.823              2.030
 Vibration     9          0.648              1.808              1.947
 Vibration    10          0.663              1.762              1.729
 Vibration    11          0.689              1.683              1.444
 Vibration    12          0.710              1.624              1.282
 Vibration    13          0.726              1.577              1.171
 Vibration    14          0.745              1.526              1.065
 Vibration    15          0.749              1.516              1.046
 Vibration    16          0.769              1.462              0.949
 Vibration    17          0.780              1.433              0.902
 Vibration    18          0.850              1.263              0.673
 Vibration    19          0.859              1.243              0.650
 Vibration    20          0.927              1.095              0.503

 Optimization completed.
    -- Stationary point found.
 Normal termination of Gaussian 16 at Wed Dec  9 23:14:51 2020.

 ----------------------------------------------------------------------
 # B3LYP/6-311++G(d,p) empiricaldispersion=gd3bj scf=xqc pop=npa geom=c
 heck
 ----------------------------------------------------------------------

 ---------------------------------------
 CID_130855577_JID_3334_Energie_neutraal
 ---------------------------------------
 Structure from the checkpoint file:  "JID_3334.chk"
 Charge =  0 Multiplicity = 1

 SCF Done:  E(RB3LYP) =  -526.054339000     A.U. after   13 cycles
 Normal termination of Gaussian 16 at Wed Dec  9 23:20:07 2020.

 ----------------------------------------------------------------------
 # B3LYP/6-311++G(d,p) empiricaldispersion=gd3bj scf=xqc pop=npa geom=c
 heck
 ----------------------------------------------------------------------

 -------------------------------------
 CID_130855577_JID_3334_Energie_kation
 -------------------------------------
 Structure from the checkpoint file:  "JID_3334.chk"
 Charge =  1 Multiplicity = 2

 SCF Done:  E(UB3LYP) =  -525.753103424     A.U. after   19 cycles
 Normal termination of Gaussian 16 at Wed Dec  9 23:30:54 2020.
 Gaussian 16:  ES64L-G16RevA.03 25-Dec-2016

 ----------------------------------------------------------------------
 # B3LYP/6-311++G(d,p) empiricaldispersion=gd3bj scf=xqc pop=npa geom=c
 heck
 ----------------------------------------------------------------------

 ------------------------------------
 CID_130855577_JID_3334_Energie_anion
 ------------------------------------
 Structure from the checkpoint file:  "JID_3334.chk"
 Charge = -1 Multiplicity = 2

                         Standard orientation:
 ---------------------------------------------------------------------
 Center     Atomic      Atomic             Coordinates (Angstroms)
 Number     Number       Type             X           Y           Z
 ---------------------------------------------------------------------
      1          6           0        3.873116    0.820668    0.444453
      2          6           0        2.779746    0.090416   -0.351337
      3          6           0        3.057234   -1.419194   -0.286687
      4          6           0        1.356984    0.543026    0.101391
      5          6           0        1.105958    1.971942   -0.415964
      6          6           0        0.252941   -0.408932   -0.397616
      7          6           0       -1.246343   -0.153027   -0.012499
      8          6           0       -1.840258    1.146762    0.533139
      9          6           0       -3.336602    0.800823    0.656489
     10          6           0       -3.632880   -0.118484   -0.563351
     11          6           0       -2.243335   -0.517507   -1.125275
     12          6           0       -1.069015   -1.299607    1.013399
     13          7           0        0.147755   -1.727727    0.296453
     14          1           0        3.836419    0.525184    1.501020
     15          1           0        3.777617    1.909616    0.401409
     16          1           0        4.867734    0.561892    0.063691
     17          1           0        2.870895    0.385319   -1.408384
     18          1           0        3.058901   -1.780068    0.750869
     19          1           0        2.330856   -2.009064   -0.851786
     20          1           0        4.052315   -1.628983   -0.695664
     21          1           0        1.333149    0.550350    1.202716
     22          1           0        0.832473    1.947469   -1.478717
     23          1           0        0.302521    2.472470    0.124528
     24          1           0        1.997498    2.598368   -0.324796
     25          1           0        0.389920   -0.530930   -1.483747
     26          1           0       -1.393141    1.471004    1.479135
     27          1           0       -1.714085    1.957267   -0.193874
     28          1           0       -3.971479    1.692087    0.682424
     29          1           0       -3.512721    0.256067    1.591609
     30          1           0       -4.229864    0.399520   -1.320845
     31          1           0       -4.208323   -0.998100   -0.257998
     32          1           0       -2.006983    0.073196   -2.020149
     33          1           0       -2.173110   -1.572655   -1.406913
     34          1           0       -0.892239   -0.919427    2.031933
     35          1           0       -1.859407   -2.059901    1.058518
     36          1           0        0.931483   -1.947907    0.902994
 ---------------------------------------------------------------------

 SCF Done:  E(UB3LYP) =  -526.037879767     A.U. after   29 cycles

 The electronic state is 2-A.
 Alpha  occ. eigenvalues --  -14.19129 -10.09609 -10.08519 -10.07773 -10.07768
 Alpha  occ. eigenvalues --  -10.07478 -10.06381 -10.06272 -10.06209 -10.06113
 Alpha  occ. eigenvalues --  -10.06102 -10.05852 -10.05629  -0.83045  -0.73010
 Alpha  occ. eigenvalues --   -0.71709  -0.64899  -0.61298  -0.60903  -0.59058
 Alpha  occ. eigenvalues --   -0.56695  -0.53569  -0.51004  -0.47272  -0.45801
 Alpha  occ. eigenvalues --   -0.42405  -0.40447  -0.37540  -0.36874  -0.35448
 Alpha  occ. eigenvalues --   -0.34912  -0.33905  -0.32268  -0.31884  -0.30190
 Alpha  occ. eigenvalues --   -0.29856  -0.28622  -0.27807  -0.27414  -0.26643
 Alpha  occ. eigenvalues --   -0.25212  -0.24422  -0.24113  -0.23685  -0.23047
 Alpha  occ. eigenvalues --   -0.22694  -0.21925  -0.21662  -0.20150  -0.18849
 Alpha  occ. eigenvalues --   -0.12768   0.04506
 Alpha virt. eigenvalues --    0.06270   0.07068   0.07574   0.08399   0.08530
 Alpha virt. eigenvalues --    0.08776   0.09885   0.10189   0.10614   0.10686
 Alpha virt. eigenvalues --    0.11172   0.11488   0.12341   0.13419   0.13573

  Beta  occ. eigenvalues --  -14.19123 -10.09606 -10.08497 -10.07769 -10.07765
  Beta  occ. eigenvalues --  -10.07467 -10.06363 -10.06250 -10.06200 -10.06096
  Beta  occ. eigenvalues --  -10.06084 -10.05821 -10.05609  -0.83032  -0.72987
  Beta  occ. eigenvalues --   -0.71686  -0.64870  -0.61268  -0.60865  -0.59013
  Beta  occ. eigenvalues --   -0.56652  -0.53523  -0.50960  -0.47217  -0.45747
  Beta  occ. eigenvalues --   -0.42363  -0.40406  -0.37518  -0.36850  -0.35410
  Beta  occ. eigenvalues --   -0.34884  -0.33869  -0.32235  -0.31852  -0.30165
  Beta  occ. eigenvalues --   -0.29830  -0.28597  -0.27774  -0.27384  -0.26620
  Beta  occ. eigenvalues --   -0.25174  -0.24394  -0.24084  -0.23647  -0.23011
  Beta  occ. eigenvalues --   -0.22662  -0.21895  -0.21632  -0.20128  -0.18831
  Beta  occ. eigenvalues --   -0.12753
  Beta virt. eigenvalues --    0.06575   0.07129   0.07676   0.08126   0.08921
  Beta virt. eigenvalues --    0.09017   0.09186   0.10317   0.10530   0.10957
  Beta virt. eigenvalues --    0.11060   0.11529   0.11905   0.12568   0.13684

 Mulliken charges and spin densities:
               1          2
     1  C    0.771799  -1.481178
     2  C   -1.530965   2.135452
     3  C   -0.023096  -0.718767
     4  C    0.256451  -0.338508
     5  C    0.591964  -1.366288
     6  C    0.001881   0.039802
     7  C   -0.635389   1.147391
     8  C   -0.145887  -0.212730
     9  C    0.800763  -1.345983
    10  C    0.199750  -0.700538
    11  C    0.147531  -0.568868
    12  C    0.453534  -1.141245
    13  N   -0.125532   0.079453
    14  H   -0.184838   0.324216
    15  H   -0.175665   0.287627
    16  H   -0.367157   0.517875
    17  H    0.005638   0.169338
    18  H   -0.092292   0.236314
    19  H    0.122507   0.035215
    20  H   -0.125562   0.266113
    21  H    0.227530  -0.005029
    22  H   -0.001814   0.164307
    23  H   -0.338341   0.496030
    24  H   -0.100191   0.227416
    25  H    0.119730   0.119309
    26  H   -0.254538   0.426389
    27  H    0.156438  -0.021652
    28  H   -0.515221   0.692954
    29  H    0.100754   0.037096
    30  H   -0.051601   0.188525
    31  H   -0.115621   0.257324
    32  H   -0.169552   0.312789
    33  H    0.184426  -0.015681
    34  H   -0.321148   0.484487
    35  H   -0.120830   0.302493
    36  H    0.254540  -0.031446
 Sum of Mulliken charges =  -1.00000   1.00000

 Dipole moment (field-independent basis, Debye):
    X=             -0.4209    Y=             -2.3344    Z=             -1.7217  Tot=              2.9310
 Quadrupole moment (field-independent basis, Debye-Ang):
   XX=           -169.6523   YY=           -129.4215   ZZ=           -120.6190
   XY=              1.6181   XZ=             -0.9234   YZ=             -1.2848

 Summary of Natural Population Analysis:

                                       Natural Population
                Natural  -----------------------------------------------
    Atom  No    Charge         Core      Valence    Rydberg      Total
 -----------------------------------------------------------------------
      C    1   -0.28325      0.99965     2.27771    0.00589     3.28325
      C    2   -0.10823      0.99960     2.09887    0.00976     3.10823
      C    3   -0.28977      0.99965     2.28431    0.00581     3.28977
      C    4   -0.11614      0.99956     2.10518    0.01140     3.11614
      C    5   -0.28463      0.99965     2.27871    0.00627     3.28463
      C    6    0.00684      0.99954     1.98047    0.01314     2.99316
      C    7   -0.04083      0.99953     2.02635    0.01495     3.04083
      C    8   -0.19272      0.99958     2.18341    0.00972     3.19272
      C    9   -0.19003      0.99964     2.18255    0.00784     3.19003
      C   10   -0.19428      0.99965     2.18664    0.00800     3.19428
      C   11   -0.18648      0.99959     2.17792    0.00896     3.18648
      C   12   -0.08079      0.99959     2.07017    0.01104     3.08079
      N   13   -0.34614      0.99976     2.83557    0.01081     3.84614
      H   14    0.09676      0.00000     0.40196    0.00128     0.40324
      H   15    0.09959      0.00000     0.39930    0.00111     0.40041
      H   16    0.09882      0.00000     0.40008    0.00110     0.40118
      H   17    0.09076      0.00000     0.40755    0.00169     0.40924
      H   18    0.09365      0.00000     0.40527    0.00108     0.40635
      H   19    0.10509      0.00000     0.39371    0.00120     0.39491
      H   20    0.09958      0.00000     0.39963    0.00080     0.40042
      H   21    0.09462      0.00000     0.40324    0.00213     0.40538
      H   22    0.09611      0.00000     0.40275    0.00114     0.40389
      H   23    0.10367      0.00000     0.39517    0.00116     0.39633
      H   24    0.09985      0.00000     0.39911    0.00104     0.40015
      H   25    0.08802      0.00000     0.41024    0.00175     0.41198
      H   26    0.10386      0.00000     0.39474    0.00140     0.39614
      H   27    0.09921      0.00000     0.39921    0.00158     0.40079
      H   28    0.10033      0.00000     0.39840    0.00127     0.39967
      H   29    0.09502      0.00000     0.40358    0.00140     0.40498
      H   30    0.09800      0.00000     0.40092    0.00108     0.40200
      H   31    0.09651      0.00000     0.40245    0.00104     0.40349
      H   32    0.09671      0.00000     0.40210    0.00119     0.40329
      H   33    0.10294      0.00000     0.39595    0.00111     0.39706
      H   34    0.08566      0.00000     0.41277    0.00157     0.41434
      H   35    0.08766      0.00000     0.41096    0.00138     0.41234
      H   36    0.17405      0.00000     0.32281    0.00314     0.32595
 =======================================================================
   * Total *    0.00000     12.99498    37.84979    0.15522    51.00000

 Normal termination of Gaussian 16 at Wed Dec  9 23:46:56 2020.
