 Gaussian 16, Revision A.03,

 -----------------------------------------------------------
 # opt freq B3LYP/6-31G(d) empiricaldispersion=gd3bj scf=xqc
 -----------------------------------------------------------

 ------------------------------
 CID_82393217_JID_6094_neutraal
 ------------------------------
 Symbolic Z-matrix:
 Charge =  0 Multiplicity = 1

 SCF Done:  E(RB3LYP) =  -690.928312317     A.U. after   14 cycles
 SCF Done:  E(RB3LYP) =  -690.936827113     A.U. after   12 cycles
 SCF Done:  E(RB3LYP) =  -690.937951109     A.U. after   11 cycles
 SCF Done:  E(RB3LYP) =  -690.938458038     A.U. after   11 cycles
 SCF Done:  E(RB3LYP) =  -690.939107792     A.U. after   12 cycles
 SCF Done:  E(RB3LYP) =  -690.939883855     A.U. after   12 cycles
 SCF Done:  E(RB3LYP) =  -690.940496941     A.U. after   11 cycles
 SCF Done:  E(RB3LYP) =  -690.940225218     A.U. after   12 cycles
 SCF Done:  E(RB3LYP) =  -690.940595558     A.U. after   12 cycles
 SCF Done:  E(RB3LYP) =  -690.940617805     A.U. after    9 cycles
 SCF Done:  E(RB3LYP) =  -690.940622940     A.U. after   10 cycles
 SCF Done:  E(RB3LYP) =  -690.940623719     A.U. after    9 cycles
 SCF Done:  E(RB3LYP) =  -690.940622483     A.U. after   10 cycles
 SCF Done:  E(RB3LYP) =  -690.940625571     A.U. after    9 cycles
 SCF Done:  E(RB3LYP) =  -690.940625835     A.U. after    8 cycles
 SCF Done:  E(RB3LYP) =  -690.940625870     A.U. after    7 cycles
 Optimization completed.
    -- Stationary point found.
 Normal termination of Gaussian 16 at Thu Dec 10 21:13:26 2020.

 --------------------------------------------------------------------
 #N Geom=AllCheck Guess=TCheck SCRF=Check GenChk RB3LYP/6-31G(d) Freq
 --------------------------------------------------------------------

 Structure from the checkpoint file:  "JID_6094.chk"
 ------------------------------
 CID_82393217_JID_6094_neutraal
 ------------------------------
 Charge =  0 Multiplicity = 1

 SCF Done:  E(RB3LYP) =  -690.940625870     A.U. after    1 cycles

  Exact polarizability: 192.073   0.136 155.730  13.373   5.206  97.318
 Approx polarizability: 254.052  -9.549 243.083  31.618   8.520 153.359

                      1                      2                      3
                      A                      A                      A
 Frequencies --     20.4282                40.3098                74.0437
 Red. masses --      4.3726                 3.5835                 3.3582
 Frc consts  --      0.0011                 0.0034                 0.0108
 IR Inten    --      0.5244                 0.6259                 2.2141

                      4                      5                      6
                      A                      A                      A
 Frequencies --     92.5591               135.3269               142.5535
 Red. masses --      3.2916                 3.4930                 3.3785
 Frc consts  --      0.0166                 0.0377                 0.0405
 IR Inten    --      3.9349                 0.5818                 0.8867

                      7                      8                      9
                      A                      A                      A
 Frequencies --    173.3858               208.8552               230.0977
 Red. masses --      2.6055                 2.2527                 2.2574
 Frc consts  --      0.0461                 0.0579                 0.0704
 IR Inten    --      6.0944                 1.4680                 6.3178

                     10                     11                     12
                      A                      A                      A
 Frequencies --    236.7988               287.0683               288.5922
 Red. masses --      3.1899                 1.6233                 1.4980
 Frc consts  --      0.1054                 0.0788                 0.0735
 IR Inten    --      2.2002                34.6558                 0.6083

                     13                     14                     15
                      A                      A                      A
 Frequencies --    322.4545               357.5430               406.0726
 Red. masses --      1.9897                 2.5178                 3.4871
 Frc consts  --      0.1219                 0.1896                 0.3388
 IR Inten    --     21.0173                 4.6424                13.9589

                     16                     17                     18
                      A                      A                      A
 Frequencies --    440.2039               462.9755               474.4041
 Red. masses --      2.8796                 4.3024                 3.1214
 Frc consts  --      0.3288                 0.5433                 0.4139
 IR Inten    --      5.3212                 2.8169                 2.4303

                     19                     20                     21
                      A                      A                      A
 Frequencies --    498.9148               507.7873               568.8176
 Red. masses --      5.3080                 2.3524                 4.6246
 Frc consts  --      0.7785                 0.3574                 0.8816
 IR Inten    --      2.6728                 2.1407                 4.2676

                     22                     23                     24
                      A                      A                      A
 Frequencies --    640.1435               671.5837               705.2464
 Red. masses --      4.1349                 5.5065                 2.3804
 Frc consts  --      0.9983                 1.4633                 0.6976
 IR Inten    --      0.4325                 8.7812                 4.8819

                     25                     26                     27
                      A                      A                      A
 Frequencies --    732.3590               734.7221               783.5671
 Red. masses --      4.4970                 4.3759                 1.3357
 Frc consts  --      1.4211                 1.3918                 0.4832
 IR Inten    --      7.0201                 5.6413                27.1083

                     28                     29                     30
                      A                      A                      A
 Frequencies --    806.8163               835.2413               851.6494
 Red. masses --      2.1617                 1.7056                 1.6989
 Frc consts  --      0.8291                 0.7011                 0.7260
 IR Inten    --     13.7087                13.2411                21.2347

                     31                     32                     33
                      A                      A                      A
 Frequencies --    871.3999               875.9209               879.1929
 Red. masses --      1.4220                 1.8117                 1.6847
 Frc consts  --      0.6362                 0.8190                 0.7672
 IR Inten    --      7.0156               126.9828                20.7140

                     34                     35                     36
                      A                      A                      A
 Frequencies --    903.8645               951.5162               962.9323
 Red. masses --      3.1365                 2.0276                 1.2477
 Frc consts  --      1.5097                 1.0816                 0.6817
 IR Inten    --     12.3383                21.5664                 0.8156

                     37                     38                     39
                      A                      A                      A
 Frequencies --    973.4165               988.3165              1008.0482
 Red. masses --      1.8216                 2.4132                 2.4350
 Frc consts  --      1.0170                 1.3888                 1.4578
 IR Inten    --      6.8566                30.9182                20.2673

                     40                     41                     42
                      A                      A                      A
 Frequencies --   1016.9990              1020.2144              1045.2052
 Red. masses --      5.1756                 2.0304                 2.3917
 Frc consts  --      3.1539                 1.2451                 1.5394
 IR Inten    --      1.9491                 8.6711                39.7136

                     43                     44                     45
                      A                      A                      A
 Frequencies --   1082.9236              1087.1859              1094.3851
 Red. masses --      2.5969                 3.7263                 2.4627
 Frc consts  --      1.7943                 2.5950                 1.7378
 IR Inten    --     16.6326                 5.3738                38.4847

                     46                     47                     48
                      A                      A                      A
 Frequencies --   1101.7482              1114.6947              1155.8617
 Red. masses --      1.2362                 1.5383                 2.4087
 Frc consts  --      0.8841                 1.1262                 1.8960
 IR Inten    --      1.2808                 8.4873                22.1968

                     49                     50                     51
                      A                      A                      A
 Frequencies --   1173.5397              1186.4764              1192.2899
 Red. masses --      1.7765                 1.2718                 1.3906
 Frc consts  --      1.4415                 1.0548                 1.1647
 IR Inten    --     13.4339                 0.6407                 6.5026

                     52                     53                     54
                      A                      A                      A
 Frequencies --   1194.1680              1209.4905              1223.0920
 Red. masses --      1.1292                 1.5464                 1.4508
 Frc consts  --      0.9488                 1.3328                 1.2787
 IR Inten    --     23.5464                67.4227                 3.1471

                     55                     56                     57
                      A                      A                      A
 Frequencies --   1233.1469              1249.4327              1292.4913
 Red. masses --      1.6907                 1.1876                 1.6934
 Frc consts  --      1.5148                 1.0923                 1.6667
 IR Inten    --     40.5712                 1.0910                79.7030

                     58                     59                     60
                      A                      A                      A
 Frequencies --   1306.2448              1315.0830              1336.7045
 Red. masses --      1.8347                 1.3897                 1.9182
 Frc consts  --      1.8444                 1.4160                 2.0194
 IR Inten    --     79.4772                 9.1346                 0.3477

                     61                     62                     63
                      A                      A                      A
 Frequencies --   1344.8531              1351.0010              1366.7851
 Red. masses --      1.2484                 1.3846                 1.3288
 Frc consts  --      1.3303                 1.4890                 1.4626
 IR Inten    --      7.9600                 4.4001                31.0867

                     64                     65                     66
                      A                      A                      A
 Frequencies --   1376.4316              1395.2646              1430.5718
 Red. masses --      2.6260                 2.3223                 1.5375
 Frc consts  --      2.9313                 2.6637                 1.8539
 IR Inten    --      7.6951                72.9226                11.6804

                     67                     68                     69
                      A                      A                      A
 Frequencies --   1479.2700              1480.2936              1509.8329
 Red. masses --      2.2827                 2.1010                 1.5202
 Frc consts  --      2.9430                 2.7126                 2.0418
 IR Inten    --     26.4855                16.2457                21.0658

                     70                     71                     72
                      A                      A                      A
 Frequencies --   1520.3631              1524.2525              1534.9313
 Red. masses --      1.0502                 1.1352                 1.1319
 Frc consts  --      1.4303                 1.5540                 1.5712
 IR Inten    --      6.1345                 6.9904                66.1578

                     73                     74                     75
                      A                      A                      A
 Frequencies --   1540.4717              1544.0089              1553.6239
 Red. masses --      1.0851                 1.1344                 1.8828
 Frc consts  --      1.5172                 1.5933                 2.6776
 IR Inten    --      1.8211                15.8257                52.6499

                     76                     77                     78
                      A                      A                      A
 Frequencies --   1648.4532              1658.0188              1690.7053
 Red. masses --      6.1411                 5.5920                 1.0906
 Frc consts  --      9.8321                 9.0572                 1.8367
 IR Inten    --     77.1867               227.1422                31.7026

                     79                     80                     81
                      A                      A                      A
 Frequencies --   2939.0659              3019.2508              3042.6955
 Red. masses --      1.0739                 1.0353                 1.0741
 Frc consts  --      5.4658                 5.5605                 5.8586
 IR Inten    --     75.5191                46.6586                36.1993

                     82                     83                     84
                      A                      A                      A
 Frequencies --   3049.5700              3060.1541              3075.4006
 Red. masses --      1.0719                 1.0871                 1.1062
 Frc consts  --      5.8732                 5.9981                 6.1641
 IR Inten    --     62.5756                46.9069                46.5016

                     85                     86                     87
                      A                      A                      A
 Frequencies --   3130.4315              3152.1271              3153.8337
 Red. masses --      1.0884                 1.0946                 1.0909
 Frc consts  --      6.2840                 6.4078                 6.3930
 IR Inten    --     18.1540                 9.5270                 8.4107

                     88                     89                     90
                      A                      A                      A
 Frequencies --   3154.3103              3168.6110              3184.0326
 Red. masses --      1.0989                 1.0902                 1.0918
 Frc consts  --      6.4421                 6.4488                 6.5215
 IR Inten    --     33.9067                17.5646                15.3660

                     91                     92                     93
                      A                      A                      A
 Frequencies --   3187.4238              3209.3918              3223.4287
 Red. masses --      1.0870                 1.0922                 1.0940
 Frc consts  --      6.5066                 6.6284                 6.6976
 IR Inten    --     15.4543                15.0308                 8.6858

                     94                     95                     96
                      A                      A                      A
 Frequencies --   3253.9070              3463.0786              3550.4272
 Red. masses --      1.0876                 1.0495                 1.0925
 Frc consts  --      6.7845                 7.4157                 8.1140
 IR Inten    --      7.7637                 3.5067                 1.6543

 - Thermochemistry -
 -------------------
 Temperature   298.150 Kelvin.  Pressure   1.00000 Atm.
 Atom     1 has atomic number  6 and mass  12.00000

 Molecular mass:   218.14191 amu.
 Principal axes and moments of inertia in atomic units:
                           1         2         3
     Eigenvalues --  1813.565066645.014607897.34471
           X            0.99999   0.00247  -0.00307
           Y           -0.00244   0.99995   0.01001
           Z            0.00309  -0.01000   0.99995
 This molecule is an asymmetric top.
 Rotational symmetry number  1.
 Warning -- assumption of classical behavior for rotation
           may cause significant error
 Rotational temperatures (Kelvin)      0.04776     0.01303     0.01097
 Rotational constants (GHZ):           0.99513     0.27159     0.22853
 Zero-point vibrational energy     776034.2 (Joules/Mol)
                                  185.47661 (Kcal/Mol)
 Warning -- explicit consideration of  21 degrees of freedom as
           vibrations may cause significant error
 Vibrational temperatures:     29.39    58.00   106.53   133.17   194.71
          (Kelvin)            205.10   249.46   300.50   331.06   340.70
                              413.03   415.22   463.94   514.42   584.25
                              633.36   666.12   682.56   717.83   730.59
                              818.40   921.02   966.26  1014.69  1053.70
                             1057.10  1127.38  1160.83  1201.73  1225.33
                             1253.75  1260.25  1264.96  1300.46  1369.02
                             1385.44  1400.53  1421.97  1450.36  1463.23
                             1467.86  1503.82  1558.09  1564.22  1574.58
                             1585.17  1603.80  1663.03  1688.46  1707.07
                             1715.44  1718.14  1740.19  1759.76  1774.22
                             1797.65  1859.61  1879.39  1892.11  1923.22
                             1934.94  1943.79  1966.50  1980.38  2007.47
                             2058.27  2128.34  2129.81  2172.31  2187.46
                             2193.06  2208.42  2216.40  2221.48  2235.32
                             2371.76  2385.52  2432.55  4228.66  4344.03
                             4377.76  4387.65  4402.88  4424.82  4503.99
                             4535.21  4537.66  4538.35  4558.92  4581.11
                             4585.99  4617.60  4637.79  4681.65  4982.60
                             5108.27

 Zero-point correction=                           0.295576 (Hartree/Particle)
 Thermal correction to Energy=                    0.310321
 Thermal correction to Enthalpy=                  0.311265
 Thermal correction to Gibbs Free Energy=         0.252619
 Sum of electronic and zero-point Energies=           -690.645050
 Sum of electronic and thermal Energies=              -690.630305
 Sum of electronic and thermal Enthalpies=            -690.629361
 Sum of electronic and thermal Free Energies=         -690.688007

                     E (Thermal)             CV                S
                      KCal/Mol        Cal/Mol-Kelvin    Cal/Mol-Kelvin
 Total                  194.729             57.701            123.431
 Electronic               0.000              0.000              0.000
 Translational            0.889              2.981             42.043
 Rotational               0.889              2.981             32.920
 Vibrational            192.952             51.740             48.468
 Vibration     1          0.593              1.986              6.592
 Vibration     2          0.594              1.981              5.244
 Vibration     3          0.599              1.966              4.043
 Vibration     4          0.602              1.954              3.605
 Vibration     5          0.613              1.918              2.869
 Vibration     6          0.616              1.911              2.769
 Vibration     7          0.627              1.875              2.398
 Vibration     8          0.642              1.827              2.054
 Vibration     9          0.652              1.795              1.878
 Vibration    10          0.656              1.784              1.827
 Vibration    11          0.684              1.698              1.491
 Vibration    12          0.685              1.695              1.482
 Vibration    13          0.707              1.630              1.298
 Vibration    14          0.733              1.560              1.133
 Vibration    15          0.771              1.457              0.941
 Vibration    16          0.800              1.382              0.826
 Vibration    17          0.821              1.332              0.757
 Vibration    18          0.831              1.307              0.725
 Vibration    19          0.854              1.252              0.661
 Vibration    20          0.863              1.233              0.639
 Vibration    21          0.925              1.099              0.507

 Optimization completed.
    -- Stationary point found.
 Normal termination of Gaussian 16 at Thu Dec 10 21:24:25 2020.

 ----------------------------------------------------------------------
 # B3LYP/6-311++G(d,p) empiricaldispersion=gd3bj scf=xqc pop=npa geom=c
 heck
 ----------------------------------------------------------------------

 --------------------------------------
 CID_82393217_JID_6094_Energie_neutraal
 --------------------------------------
 Structure from the checkpoint file:  "JID_6094.chk"
 Charge =  0 Multiplicity = 1

 SCF Done:  E(RB3LYP) =  -691.133823689     A.U. after   14 cycles
 Normal termination of Gaussian 16 at Thu Dec 10 21:29:00 2020.

 ----------------------------------------------------------------------
 # B3LYP/6-311++G(d,p) empiricaldispersion=gd3bj scf=xqc pop=npa geom=c
 heck
 ----------------------------------------------------------------------

 ------------------------------------
 CID_82393217_JID_6094_Energie_kation
 ------------------------------------
 Structure from the checkpoint file:  "JID_6094.chk"
 Charge =  1 Multiplicity = 2

 SCF Done:  E(UB3LYP) =  -690.870240436     A.U. after   27 cycles
 Normal termination of Gaussian 16 at Thu Dec 10 21:40:42 2020.
 Gaussian 16:  ES64L-G16RevA.03 25-Dec-2016

 ----------------------------------------------------------------------
 # B3LYP/6-311++G(d,p) empiricaldispersion=gd3bj scf=xqc pop=npa geom=c
 heck
 ----------------------------------------------------------------------

 -----------------------------------
 CID_82393217_JID_6094_Energie_anion
 -----------------------------------
 Structure from the checkpoint file:  "JID_6094.chk"
 Charge = -1 Multiplicity = 2

                         Standard orientation:
 ---------------------------------------------------------------------
 Center     Atomic      Atomic             Coordinates (Angstroms)
 Number     Number       Type             X           Y           Z
 ---------------------------------------------------------------------
      1          6           0       -2.775442    2.933956    0.051370
      2          8           0       -3.522324    1.783451   -0.296538
      3          6           0       -2.927295    0.559614   -0.155804
      4          6           0       -3.720467   -0.541260   -0.495186
      5          6           0       -3.176718   -1.817043   -0.387518
      6          6           0       -1.872147   -2.010474    0.060787
      7          6           0       -1.068472   -0.908715    0.395837
      8          6           0       -1.608085    0.384106    0.275024
      9          7           0        0.249280   -1.159693    0.851352
     10          6           0        1.135999   -1.828359   -0.132929
     11          6           0        1.967269   -0.707820   -0.778147
     12          6           0        1.902105    0.460420    0.181851
     13          6           0        1.049805   -0.034527    1.358283
     14          6           0        3.212354   -0.250812   -0.066397
     15          6           0        4.309898    0.451909   -0.829500
     16          7           0        5.111690    1.267905    0.087919
     17          1           0       -3.441714    3.784248   -0.105502
     18          1           0       -1.887372    3.048979   -0.585258
     19          1           0       -2.459865    2.908966    1.103162
     20          1           0       -4.739177   -0.374690   -0.827502
     21          1           0       -3.787610   -2.680128   -0.638081
     22          1           0       -1.475445   -3.012671    0.185901
     23          1           0       -0.993777    1.247837    0.484458
     24          1           0        1.781717   -2.544909    0.390071
     25          1           0        0.539881   -2.375904   -0.863218
     26          1           0        1.885963   -0.550606   -1.850003
     27          1           0        1.769606    1.474920   -0.186334
     28          1           0        0.417231    0.734012    1.801679
     29          1           0        1.696394   -0.418162    2.158066
     30          1           0        3.575188   -0.881121    0.746398
     31          1           0        4.975086   -0.293338   -1.284283
     32          1           0        3.855382    1.018882   -1.664022
     33          1           0        5.847474    1.749719   -0.425977
     34          1           0        4.520018    1.992900    0.491816
 ---------------------------------------------------------------------

 SCF Done:  E(UB3LYP) =  -691.123422289     A.U. after   31 cycles

 The electronic state is 2-A.
 Alpha  occ. eigenvalues --  -19.06117 -14.22925 -14.19302 -10.14454 -10.12412
 Alpha  occ. eigenvalues --  -10.12336 -10.11406 -10.10727 -10.09792 -10.08931
 Alpha  occ. eigenvalues --  -10.08580 -10.08548 -10.08229 -10.07739 -10.07517
 Alpha  occ. eigenvalues --  -10.07460  -0.97686  -0.86382  -0.79349  -0.76927
 Alpha  occ. eigenvalues --   -0.74656  -0.66629  -0.65944  -0.63809  -0.60854
 Alpha  occ. eigenvalues --   -0.59036  -0.55207  -0.51034  -0.49387  -0.48030
 Alpha  occ. eigenvalues --   -0.47286  -0.44965  -0.41639  -0.40276  -0.39484
 Alpha  occ. eigenvalues --   -0.38922  -0.38313  -0.37492  -0.35936  -0.34927
 Alpha  occ. eigenvalues --   -0.34582  -0.33601  -0.32579  -0.31095  -0.30221
 Alpha  occ. eigenvalues --   -0.29385  -0.28887  -0.28556  -0.26744  -0.26484
 Alpha  occ. eigenvalues --   -0.25963  -0.24459  -0.23454  -0.19607  -0.19093
 Alpha  occ. eigenvalues --   -0.18398  -0.14696  -0.14326  -0.11428   0.04142
 Alpha virt. eigenvalues --    0.06230   0.06443   0.07517   0.07702   0.08068
 Alpha virt. eigenvalues --    0.08246   0.08765   0.09063   0.09620   0.10113
 Alpha virt. eigenvalues --    0.10571   0.10798   0.11520   0.11877   0.12469

  Beta  occ. eigenvalues --  -19.06109 -14.22925 -14.19260 -10.14454 -10.12360
  Beta  occ. eigenvalues --  -10.12336 -10.11402 -10.10716 -10.09768 -10.08929
  Beta  occ. eigenvalues --  -10.08576 -10.08546 -10.08204 -10.07727 -10.07516
  Beta  occ. eigenvalues --  -10.07457  -0.97668  -0.86375  -0.79302  -0.76892
  Beta  occ. eigenvalues --   -0.74637  -0.66609  -0.65931  -0.63788  -0.60803
  Beta  occ. eigenvalues --   -0.58981  -0.55174  -0.51007  -0.49362  -0.47993
  Beta  occ. eigenvalues --   -0.47244  -0.44938  -0.41603  -0.40243  -0.39467
  Beta  occ. eigenvalues --   -0.38894  -0.38282  -0.37460  -0.35912  -0.34894
  Beta  occ. eigenvalues --   -0.34543  -0.33546  -0.32549  -0.31072  -0.30198
  Beta  occ. eigenvalues --   -0.29360  -0.28870  -0.28536  -0.26723  -0.26460
  Beta  occ. eigenvalues --   -0.25925  -0.24426  -0.23434  -0.19590  -0.19080
  Beta  occ. eigenvalues --   -0.18385  -0.14650  -0.14316  -0.11423
  Beta virt. eigenvalues --    0.06175   0.06960   0.07186   0.07664   0.08071
  Beta virt. eigenvalues --    0.08229   0.08538   0.08827   0.09383   0.09947
  Beta virt. eigenvalues --    0.10663   0.10826   0.10974   0.11966   0.12166

 Mulliken charges and spin densities:
               1          2
     1  C    0.658195  -1.006110
     2  O   -0.185235   0.036953
     3  C   -0.952926   0.204873
     4  C   -0.367206  -0.192107
     5  C   -0.090553  -0.071165
     6  C   -0.181061  -0.075360
     7  C    0.209564  -0.097853
     8  C    0.326120   0.425745
     9  N    0.383196  -0.043090
    10  C   -0.005050  -0.511373
    11  C   -0.284745   0.255749
    12  C    1.112764  -1.273298
    13  C   -0.583092   0.111486
    14  C   -1.037343   1.036267
    15  C    1.413010  -2.014368
    16  N   -0.439339   0.078300
    17  H   -0.601846   0.776061
    18  H   -0.381107   0.557457
    19  H   -0.331563   0.492146
    20  H    0.091612   0.062461
    21  H    0.062558   0.092338
    22  H    0.088113   0.052369
    23  H    1.596648  -1.482336
    24  H    0.135969   0.039418
    25  H    0.066569   0.067694
    26  H   -0.040895   0.264451
    27  H   -0.678754   0.947030
    28  H   -0.589536   0.757434
    29  H    0.154549   0.049628
    30  H    0.038064   0.145599
    31  H   -0.082126   0.224489
    32  H   -0.331587   0.455799
    33  H   -0.169566   0.410523
    34  H   -0.003399   0.222789
 Sum of Mulliken charges =  -1.00000   1.00000

 Dipole moment (field-independent basis, Debye):
    X=             -4.0511    Y=             -9.1881    Z=              0.3580  Tot=             10.0479
 Quadrupole moment (field-independent basis, Debye-Ang):
   XX=           -188.9647   YY=           -153.2895   ZZ=           -128.4095
   XY=             -5.3214   XZ=              3.9624   YZ=              2.3167

 Summary of Natural Population Analysis:

                                       Natural Population
                Natural  -----------------------------------------------
    Atom  No    Charge         Core      Valence    Rydberg      Total
 -----------------------------------------------------------------------
      C    1   -0.10175      0.99960     2.09290    0.00925     3.10175
      O    2   -0.27323      0.99986     3.26379    0.00959     4.27323
      C    3    0.16987      0.99939     1.81651    0.01423     2.83013
      C    4   -0.13991      0.99952     2.13087    0.00952     3.13991
      C    5   -0.09144      0.99958     2.08260    0.00926     3.09144
      C    6   -0.13615      0.99952     2.12801    0.00862     3.13615
      C    7    0.10313      0.99948     1.88539    0.01200     2.89687
      C    8   -0.16761      0.99947     2.16038    0.00775     3.16761
      N    9   -0.26248      0.99969     2.75160    0.01119     3.76248
      C   10   -0.08356      0.99960     2.07469    0.00927     3.08356
      C   11   -0.11981      0.99955     2.11017    0.01008     3.11981
      C   12   -0.12117      0.99955     2.10840    0.01321     3.12117
      C   13   -0.08994      0.99962     2.07806    0.01226     3.08994
      C   14   -0.10690      0.99955     2.09587    0.01148     3.10690
      C   15   -0.08668      0.99961     2.07469    0.01238     3.08668
      N   16   -0.42227      0.99977     2.91212    0.01038     3.92227
      H   17    0.09434      0.00000     0.40427    0.00139     0.40566
      H   18    0.08872      0.00000     0.40911    0.00217     0.41128
      H   19    0.08592      0.00000     0.41230    0.00178     0.41408
      H   20    0.10477      0.00000     0.39425    0.00098     0.39523
      H   21    0.09785      0.00000     0.40142    0.00073     0.40215
      H   22    0.10098      0.00000     0.39767    0.00135     0.39902
      H   23    0.11138      0.00000     0.38651    0.00211     0.38862
      H   24    0.09192      0.00000     0.40691    0.00117     0.40808
      H   25    0.10421      0.00000     0.39465    0.00114     0.39579
      H   26    0.10839      0.00000     0.39058    0.00103     0.39161
      H   27    0.11412      0.00000     0.38261    0.00327     0.38588
      H   28    0.10686      0.00000     0.39189    0.00125     0.39314
      H   29    0.09573      0.00000     0.40286    0.00142     0.40427
      H   30    0.10066      0.00000     0.39781    0.00153     0.39934
      H   31    0.08912      0.00000     0.40971    0.00117     0.41088
      H   32    0.08245      0.00000     0.41486    0.00269     0.41755
      H   33    0.17640      0.00000     0.32108    0.00251     0.32360
      H   34    0.17606      0.00000     0.32105    0.00289     0.32394
 =======================================================================
   * Total *    0.00000     15.99336    42.80559    0.20105    59.00000

 Normal termination of Gaussian 16 at Thu Dec 10 21:56:11 2020.
