 Gaussian 16, Revision A.03,

 -----------------------------------------------------------
 # opt freq B3LYP/6-31G(d) empiricaldispersion=gd3bj scf=xqc
 -----------------------------------------------------------

 ------------------------------
 CID_24700482_JID_5495_neutraal
 ------------------------------
 Symbolic Z-matrix:
 Charge =  0 Multiplicity = 1

 SCF Done:  E(RB3LYP) =  -638.046194806     A.U. after   13 cycles
 SCF Done:  E(RB3LYP) =  -638.050271496     A.U. after   12 cycles
 SCF Done:  E(RB3LYP) =  -638.050979689     A.U. after   12 cycles
 SCF Done:  E(RB3LYP) =  -638.051640143     A.U. after   12 cycles
 SCF Done:  E(RB3LYP) =  -638.052063525     A.U. after   11 cycles
 SCF Done:  E(RB3LYP) =  -638.052366676     A.U. after   12 cycles
 SCF Done:  E(RB3LYP) =  -638.052498361     A.U. after   12 cycles
 SCF Done:  E(RB3LYP) =  -638.052648721     A.U. after   12 cycles
 SCF Done:  E(RB3LYP) =  -638.053015639     A.U. after   13 cycles
 SCF Done:  E(RB3LYP) =  -638.053328585     A.U. after   12 cycles
 SCF Done:  E(RB3LYP) =  -638.053990341     A.U. after   11 cycles
 SCF Done:  E(RB3LYP) =  -638.053992573     A.U. after    9 cycles
 SCF Done:  E(RB3LYP) =  -638.053992533     A.U. after    9 cycles
 SCF Done:  E(RB3LYP) =  -638.053992939     A.U. after    9 cycles
 SCF Done:  E(RB3LYP) =  -638.053992990     A.U. after    8 cycles
 Optimization completed.
    -- Stationary point found.
 Normal termination of Gaussian 16 at Thu Dec 10 16:31:20 2020.

 --------------------------------------------------------------------
 #N Geom=AllCheck Guess=TCheck SCRF=Check GenChk RB3LYP/6-31G(d) Freq
 --------------------------------------------------------------------

 Structure from the checkpoint file:  "JID_5495.chk"
 ------------------------------
 CID_24700482_JID_5495_neutraal
 ------------------------------
 Charge =  0 Multiplicity = 1

 SCF Done:  E(RB3LYP) =  -638.053992990     A.U. after    1 cycles

  Exact polarizability: 208.142  -1.417 138.499  11.774   1.227 102.243
 Approx polarizability: 255.229  -6.631 227.093  24.943   2.029 150.544

                      1                      2                      3
                      A                      A                      A
 Frequencies --     19.2113                26.8216                52.1509
 Red. masses --      3.3737                 3.5010                 2.9660
 Frc consts  --      0.0007                 0.0015                 0.0048
 IR Inten    --      0.8388                 0.2436                 0.1337

                      4                      5                      6
                      A                      A                      A
 Frequencies --     64.5872                81.9803               113.2038
 Red. masses --      3.2632                 3.1456                 2.2767
 Frc consts  --      0.0080                 0.0125                 0.0172
 IR Inten    --      0.2462                 0.7293                 0.3861

                      7                      8                      9
                      A                      A                      A
 Frequencies --    120.6050               162.5781               206.6146
 Red. masses --      2.4320                 3.2328                 2.0802
 Frc consts  --      0.0208                 0.0503                 0.0523
 IR Inten    --      0.8135                 0.4058                 0.7238

                     10                     11                     12
                      A                      A                      A
 Frequencies --    235.4161               249.3816               265.8193
 Red. masses --      2.1134                 1.4620                 2.2821
 Frc consts  --      0.0690                 0.0536                 0.0950
 IR Inten    --      1.0754                 0.5314                 0.3506

                     13                     14                     15
                      A                      A                      A
 Frequencies --    291.3958               310.7035               336.0069
 Red. masses --      2.1324                 2.4353                 1.3617
 Frc consts  --      0.1067                 0.1385                 0.0906
 IR Inten    --      0.8013                 3.1772                 0.4250

                     16                     17                     18
                      A                      A                      A
 Frequencies --    348.9192               393.6173               413.1758
 Red. masses --      1.7863                 2.5379                 3.0324
 Frc consts  --      0.1281                 0.2317                 0.3050
 IR Inten    --      0.3125                 4.0716                 2.2979

                     19                     20                     21
                      A                      A                      A
 Frequencies --    426.4383               450.6394               479.9267
 Red. masses --      3.1607                 3.1824                 2.2080
 Frc consts  --      0.3386                 0.3808                 0.2996
 IR Inten    --      0.1570                 2.0139                 1.2095

                     22                     23                     24
                      A                      A                      A
 Frequencies --    519.9009               533.5769               589.2141
 Red. masses --      2.3505                 2.6713                 3.2595
 Frc consts  --      0.3743                 0.4481                 0.6667
 IR Inten    --      5.9150                10.5492                 7.2524

                     25                     26                     27
                      A                      A                      A
 Frequencies --    655.1458               684.3037               727.1499
 Red. masses --      6.6228                 2.4808                 2.3814
 Frc consts  --      1.6748                 0.6845                 0.7419
 IR Inten    --      4.5198                43.1785                47.7145

                     28                     29                     30
                      A                      A                      A
 Frequencies --    746.5107               780.7391               794.4033
 Red. masses --      2.9602                 1.3573                 1.3279
 Frc consts  --      0.9719                 0.4875                 0.4937
 IR Inten    --     20.9012                 3.6418                 0.5141

                     31                     32                     33
                      A                      A                      A
 Frequencies --    825.5529               835.1696               844.0154
 Red. masses --      1.3388                 2.4484                 1.6831
 Frc consts  --      0.5376                 1.0062                 0.7064
 IR Inten    --      5.3672                 2.9218                39.4862

                     34                     35                     36
                      A                      A                      A
 Frequencies --    875.4232               886.5372               928.6037
 Red. masses --      2.8711                 1.5865                 1.2714
 Frc consts  --      1.2964                 0.7347                 0.6459
 IR Inten    --      1.0898                12.1856                 2.3725

                     37                     38                     39
                      A                      A                      A
 Frequencies --    933.4508               955.0245               960.7615
 Red. masses --      2.0490                 1.2814                 1.3142
 Frc consts  --      1.0519                 0.6886                 0.7147
 IR Inten    --      0.3491                 0.0144                 0.2014

                     40                     41                     42
                      A                      A                      A
 Frequencies --   1007.9617              1029.5096              1044.7762
 Red. masses --      2.2692                 2.5761                 2.0333
 Frc consts  --      1.3583                 1.6087                 1.3076
 IR Inten    --     47.6913                 6.3345                 4.6186

                     43                     44                     45
                      A                      A                      A
 Frequencies --   1065.4561              1088.1987              1093.1325
 Red. masses --      1.9228                 2.4517                 2.9490
 Frc consts  --      1.2861                 1.7105                 2.0762
 IR Inten    --      2.2227                 4.1976                49.8611

                     46                     47                     48
                      A                      A                      A
 Frequencies --   1123.1055              1130.2415              1156.4519
 Red. masses --      1.7714                 1.9577                 1.3511
 Frc consts  --      1.3165                 1.4734                 1.0646
 IR Inten    --     26.5594                 4.4003                 6.9970

                     49                     50                     51
                      A                      A                      A
 Frequencies --   1178.6237              1189.4098              1213.1801
 Red. masses --      2.5907                 1.8224                 1.2399
 Frc consts  --      2.1204                 1.5190                 1.0752
 IR Inten    --     50.3470                17.0820                41.9740

                     52                     53                     54
                      A                      A                      A
 Frequencies --   1216.4004              1235.3376              1279.3259
 Red. masses --      1.9477                 2.1089                 1.9888
 Frc consts  --      1.6980                 1.8962                 1.9178
 IR Inten    --     52.9085                 2.4604               179.1167

                     55                     56                     57
                      A                      A                      A
 Frequencies --   1309.4738              1311.0148              1332.4361
 Red. masses --      1.3025                 1.5321                 1.5329
 Frc consts  --      1.3159                 1.5515                 1.6034
 IR Inten    --      5.6933                89.6976                59.5338

                     58                     59                     60
                      A                      A                      A
 Frequencies --   1343.3475              1352.7791              1371.7455
 Red. masses --      1.3394                 2.7626                 1.4098
 Frc consts  --      1.4241                 2.9786                 1.5630
 IR Inten    --      1.9467                28.3876                51.7880

                     61                     62                     63
                      A                      A                      A
 Frequencies --   1387.6497              1407.6404              1408.8731
 Red. masses --      1.3737                 1.3796                 1.2699
 Frc consts  --      1.5585                 1.6106                 1.4851
 IR Inten    --     12.0983                 2.0462                12.4301

                     64                     65                     66
                      A                      A                      A
 Frequencies --   1423.6163              1427.0832              1438.0590
 Red. masses --      1.3150                 1.2727                 1.2462
 Frc consts  --      1.5703                 1.5272                 1.5184
 IR Inten    --     11.9584                 8.2286                 9.6315

                     67                     68                     69
                      A                      A                      A
 Frequencies --   1448.6533              1465.2935              1504.1007
 Red. masses --      1.2688                 2.9316                 1.1554
 Frc consts  --      1.5688                 3.7085                 1.5401
 IR Inten    --      7.7573                 2.1781                40.0178

                     70                     71                     72
                      A                      A                      A
 Frequencies --   1507.7458              1517.2106              1525.1851
 Red. masses --      1.0803                 1.0542                 1.0700
 Frc consts  --      1.4469                 1.4297                 1.4665
 IR Inten    --      1.2812                 0.9852                 7.3593

                     73                     74                     75
                      A                      A                      A
 Frequencies --   1529.7400              1532.1389              1535.9876
 Red. masses --      1.0528                 1.0822                 1.0558
 Frc consts  --      1.4515                 1.4967                 1.4676
 IR Inten    --      7.0581                 5.9803                 8.9198

                     76                     77                     78
                      A                      A                      A
 Frequencies --   1538.1708              1541.5031              1543.1484
 Red. masses --      1.0759                 1.0568                 1.0840
 Frc consts  --      1.4998                 1.4796                 1.5208
 IR Inten    --      8.7659                 6.2802                 8.8357

                     79                     80                     81
                      A                      A                      A
 Frequencies --   1565.5292              1633.7931              1675.5124
 Red. masses --      2.5092                 6.6700                 5.8221
 Frc consts  --      3.6233                10.4899                 9.6299
 IR Inten    --    160.8684                 6.5223                73.0242

                     82                     83                     84
                      A                      A                      A
 Frequencies --   2998.1425              3017.3932              3037.1213
 Red. masses --      1.0828                 1.0696                 1.0627
 Frc consts  --      5.7345                 5.7377                 5.7753
 IR Inten    --     23.7192                70.3407                29.2496

                     85                     86                     87
                      A                      A                      A
 Frequencies --   3043.1358              3048.0339              3052.9487
 Red. masses --      1.0384                 1.0374                 1.0377
 Frc consts  --      5.6658                 5.6785                 5.6982
 IR Inten    --     25.0422                18.0614                22.1531

                     88                     89                     90
                      A                      A                      A
 Frequencies --   3059.7204              3069.0868              3077.4911
 Red. masses --      1.0610                 1.0940                 1.0968
 Frc consts  --      5.8521                 6.0716                 6.1205
 IR Inten    --     41.7782                20.5446                29.9569

                     91                     92                     93
                      A                      A                      A
 Frequencies --   3102.9125              3103.9414              3113.9435
 Red. masses --      1.1012                 1.1077                 1.1023
 Frc consts  --      6.2465                 6.2878                 6.2976
 IR Inten    --     47.9496                29.3746                41.4739

                     94                     95                     96
                      A                      A                      A
 Frequencies --   3115.8603              3128.9905              3136.0224
 Red. masses --      1.1020                 1.1010                 1.1016
 Frc consts  --      6.3036                 6.3508                 6.3830
 IR Inten    --     60.1154                56.6189                34.1824

                     97                     98                     99
                      A                      A                      A
 Frequencies --   3137.6342              3203.6537              3207.8907
 Red. masses --      1.0989                 1.0868                 1.0883
 Frc consts  --      6.3742                 6.5721                 6.5982
 IR Inten    --     23.2645                10.9468                 4.5554

                    100                    101                    102
                      A                      A                      A
 Frequencies --   3219.7654              3233.5674              3498.1947
 Red. masses --      1.0936                 1.0913                 1.0739
 Frc consts  --      6.6795                 6.7232                 7.7429
 IR Inten    --     15.0681                16.1734                 0.1862

 - Thermochemistry -
 -------------------
 Temperature   298.150 Kelvin.  Pressure   1.00000 Atm.
 Atom     1 has atomic number  6 and mass  12.00000

 Molecular mass:   207.16231 amu.
 Principal axes and moments of inertia in atomic units:
                           1         2         3
     Eigenvalues --  1147.682928105.565348558.52868
           X            0.99995   0.00875  -0.00427
           Y           -0.00871   0.99992   0.00890
           Z            0.00435  -0.00887   0.99995
 This molecule is an asymmetric top.
 Rotational symmetry number  1.
 Warning -- assumption of classical behavior for rotation
           may cause significant error
 Rotational temperatures (Kelvin)      0.07547     0.01069     0.01012
 Rotational constants (GHZ):           1.57251     0.22265     0.21087
 Zero-point vibrational energy     845512.6 (Joules/Mol)
                                  202.08236 (Kcal/Mol)
 Warning -- explicit consideration of  24 degrees of freedom as
           vibrations may cause significant error
 Vibrational temperatures:     27.64    38.59    75.03    92.93   117.95
          (Kelvin)            162.87   173.52   233.91   297.27   338.71
                              358.80   382.45   419.25   447.03   483.44
                              502.02   566.33   594.47   613.55   648.37
                              690.51   748.02   767.70   847.75   942.61
                              984.56  1046.21  1074.06  1123.31  1142.97
                             1187.79  1201.62  1214.35  1259.54  1275.53
                             1336.05  1343.03  1374.07  1382.32  1450.23
                             1481.23  1503.20  1532.95  1565.68  1572.77
                             1615.90  1626.17  1663.88  1695.78  1711.30
                             1745.50  1750.13  1777.38  1840.66  1884.04
                             1886.26  1917.08  1932.78  1946.35  1973.64
                             1996.52  2025.28  2027.05  2048.27  2053.25
                             2069.05  2084.29  2108.23  2164.07  2169.31
                             2182.93  2194.40  2200.95  2204.41  2209.94
                             2213.08  2217.88  2220.25  2252.45  2350.66
                             2410.69  4313.66  4341.36  4369.74  4378.39
                             4385.44  4392.51  4402.26  4415.73  4427.82
                             4464.40  4465.88  4480.27  4483.03  4501.92
                             4512.04  4514.36  4609.34  4615.44  4632.52
                             4652.38  5033.12

 Zero-point correction=                           0.322039 (Hartree/Particle)
 Thermal correction to Energy=                    0.338273
 Thermal correction to Enthalpy=                  0.339218
 Thermal correction to Gibbs Free Energy=         0.276619
 Sum of electronic and zero-point Energies=           -637.731954
 Sum of electronic and thermal Energies=              -637.715720
 Sum of electronic and thermal Enthalpies=            -637.714775
 Sum of electronic and thermal Free Energies=         -637.777374

                     E (Thermal)             CV                S
                      KCal/Mol        Cal/Mol-Kelvin    Cal/Mol-Kelvin
 Total                  212.270             61.159            131.750
 Electronic               0.000              0.000              0.000
 Translational            0.889              2.981             41.889
 Rotational               0.889              2.981             32.743
 Vibrational            210.492             55.198             57.118
 Vibration     1          0.593              1.986              6.714
 Vibration     2          0.593              1.984              6.052
 Vibration     3          0.596              1.977              4.734
 Vibration     4          0.597              1.971              4.312
 Vibration     5          0.600              1.961              3.843
 Vibration     6          0.607              1.939              3.213
 Vibration     7          0.609              1.932              3.091
 Vibration     8          0.623              1.888              2.520
 Vibration     9          0.641              1.830              2.073
 Vibration    10          0.655              1.787              1.837
 Vibration    11          0.662              1.764              1.735
 Vibration    12          0.672              1.736              1.623
 Vibration    13          0.687              1.690              1.466
 Vibration    14          0.700              1.653              1.359
 Vibration    15          0.717              1.604              1.231
 Vibration    16          0.726              1.577              1.171
 Vibration    17          0.761              1.484              0.986
 Vibration    18          0.777              1.442              0.915
 Vibration    19          0.788              1.413              0.870
 Vibration    20          0.809              1.359              0.794
 Vibration    21          0.836              1.295              0.710
 Vibration    22          0.875              1.206              0.610
 Vibration    23          0.889              1.176              0.579
 Vibration    24          0.946              1.055              0.469

 Optimization completed.
    -- Stationary point found.
 Normal termination of Gaussian 16 at Thu Dec 10 16:41:08 2020.

 ----------------------------------------------------------------------
 # B3LYP/6-311++G(d,p) empiricaldispersion=gd3bj scf=xqc pop=npa geom=c
 heck
 ----------------------------------------------------------------------

 --------------------------------------
 CID_24700482_JID_5495_Energie_neutraal
 --------------------------------------
 Structure from the checkpoint file:  "JID_5495.chk"
 Charge =  0 Multiplicity = 1

 SCF Done:  E(RB3LYP) =  -638.231189267     A.U. after   14 cycles
 Normal termination of Gaussian 16 at Thu Dec 10 16:46:30 2020.

 ----------------------------------------------------------------------
 # B3LYP/6-311++G(d,p) empiricaldispersion=gd3bj scf=xqc pop=npa geom=c
 heck
 ----------------------------------------------------------------------

 ------------------------------------
 CID_24700482_JID_5495_Energie_kation
 ------------------------------------
 Structure from the checkpoint file:  "JID_5495.chk"
 Charge =  1 Multiplicity = 2

 SCF Done:  E(UB3LYP) =  -637.960849887     A.U. after   22 cycles
 Normal termination of Gaussian 16 at Thu Dec 10 16:57:51 2020.
 Gaussian 16:  ES64L-G16RevA.03 25-Dec-2016

 ----------------------------------------------------------------------
 # B3LYP/6-311++G(d,p) empiricaldispersion=gd3bj scf=xqc pop=npa geom=c
 heck
 ----------------------------------------------------------------------

 -----------------------------------
 CID_24700482_JID_5495_Energie_anion
 -----------------------------------
 Structure from the checkpoint file:  "JID_5495.chk"
 Charge = -1 Multiplicity = 2

                         Standard orientation:
 ---------------------------------------------------------------------
 Center     Atomic      Atomic             Coordinates (Angstroms)
 Number     Number       Type             X           Y           Z
 ---------------------------------------------------------------------
      1          6           0        4.250411    1.206420   -1.293961
      2          6           0        4.946135    0.558234   -0.095052
      3          6           0        4.019095    0.180585    1.058374
      4          8           0        3.115505   -0.864926    0.693549
      5          6           0        1.814003   -0.602232    0.369174
      6          6           0        1.244595    0.670425    0.231461
      7          6           0       -0.103305    0.791565   -0.099671
      8          6           0       -0.918625   -0.325915   -0.313238
      9          6           0       -0.331530   -1.589026   -0.173848
     10          6           0        1.011431   -1.729725    0.163924
     11          6           0       -2.382345   -0.111140   -0.684873
     12          6           0       -3.167993   -1.420231   -0.865426
     13          7           0       -2.954829    0.841397    0.276404
     14          6           0       -4.324827    1.301576    0.050147
     15          6           0       -5.421287    0.529631    0.795994
     16          1           0        3.769627    2.151574   -1.015858
     17          1           0        3.479800    0.548937   -1.707322
     18          1           0        4.971997    1.422274   -2.089348
     19          1           0        5.467720   -0.351527   -0.417596
     20          1           0        5.713930    1.235169    0.304990
     21          1           0        4.609509   -0.229430    1.884883
     22          1           0        3.476409    1.050869    1.443607
     23          1           0        1.835728    1.567728    0.365128
     24          1           0       -0.544651    1.779421   -0.186260
     25          1           0       -0.920866   -2.487192   -0.324259
     26          1           0        1.461021   -2.710908    0.278175
     27          1           0       -2.403517    0.407382   -1.655948
     28          1           0       -3.220041   -1.985723    0.072592
     29          1           0       -4.189894   -1.207755   -1.191499
     30          1           0       -2.707797   -2.059041   -1.627590
     31          1           0       -2.840953    0.484587    1.222954
     32          1           0       -4.389041    2.359270    0.344152
     33          1           0       -4.513069    1.275823   -1.030403
     34          1           0       -5.241485    0.561065    1.878117
     35          1           0       -6.405861    0.977670    0.614229
     36          1           0       -5.463349   -0.521567    0.495998
 ---------------------------------------------------------------------

 SCF Done:  E(UB3LYP) =  -638.216054876     A.U. after   33 cycles
 SCF Done:  E(UB3LYP) =  -638.216054876     a.u. after    1 cycles

 The electronic state is 2-A.
 Alpha  occ. eigenvalues --  -19.05815 -14.20224 -10.14296 -10.13245 -10.11482
 Alpha  occ. eigenvalues --  -10.10238 -10.08345 -10.08134 -10.08017 -10.07947
 Alpha  occ. eigenvalues --  -10.07918 -10.07786 -10.06960 -10.06953 -10.06845
 Alpha  occ. eigenvalues --   -0.97299  -0.81764  -0.76280  -0.70327  -0.68330
 Alpha  occ. eigenvalues --   -0.65816  -0.64232  -0.62810  -0.59736  -0.54567
 Alpha  occ. eigenvalues --   -0.52503  -0.51682  -0.50470  -0.47722  -0.44739
 Alpha  occ. eigenvalues --   -0.40940  -0.39659  -0.37647  -0.37417  -0.36263
 Alpha  occ. eigenvalues --   -0.35609  -0.34274  -0.33928  -0.33362  -0.33038
 Alpha  occ. eigenvalues --   -0.32683  -0.30503  -0.29947  -0.29450  -0.28739
 Alpha  occ. eigenvalues --   -0.28002  -0.26898  -0.26744  -0.25966  -0.25630
 Alpha  occ. eigenvalues --   -0.25297  -0.24165  -0.23015  -0.22045  -0.16551
 Alpha  occ. eigenvalues --   -0.13585  -0.12277   0.04123
 Alpha virt. eigenvalues --    0.05257   0.06811   0.07024   0.07319   0.07476
 Alpha virt. eigenvalues --    0.07817   0.08094   0.08763   0.09217   0.09436
 Alpha virt. eigenvalues --    0.10231   0.10448   0.10566   0.10734   0.11376

  Beta  occ. eigenvalues --  -19.05814 -14.20215 -10.14288 -10.13225 -10.11477
  Beta  occ. eigenvalues --  -10.10221 -10.08338 -10.08128 -10.08010 -10.07941
  Beta  occ. eigenvalues --  -10.07890 -10.07784 -10.06929 -10.06926 -10.06821
  Beta  occ. eigenvalues --   -0.97290  -0.81742  -0.76265  -0.70291  -0.68300
  Beta  occ. eigenvalues --   -0.65798  -0.64197  -0.62770  -0.59696  -0.54518
  Beta  occ. eigenvalues --   -0.52453  -0.51638  -0.50420  -0.47684  -0.44714
  Beta  occ. eigenvalues --   -0.40918  -0.39629  -0.37617  -0.37379  -0.36238
  Beta  occ. eigenvalues --   -0.35583  -0.34238  -0.33900  -0.33327  -0.33020
  Beta  occ. eigenvalues --   -0.32653  -0.30472  -0.29923  -0.29413  -0.28706
  Beta  occ. eigenvalues --   -0.27963  -0.26855  -0.26707  -0.25929  -0.25594
  Beta  occ. eigenvalues --   -0.25265  -0.24143  -0.22992  -0.22017  -0.16530
  Beta  occ. eigenvalues --   -0.13554  -0.12250
  Beta virt. eigenvalues --    0.06039   0.06460   0.07187   0.07261   0.07608
  Beta virt. eigenvalues --    0.07994   0.08094   0.08453   0.08917   0.09511
  Beta virt. eigenvalues --    0.09795   0.10476   0.10595   0.10890   0.10989

 Mulliken charges and spin densities:
               1          2
     1  C   -0.182798  -0.317825
     2  C    0.951673  -1.123011
     3  C   -0.009155  -0.258277
     4  O   -0.050046   0.006024
     5  C   -0.677281   0.250838
     6  C    0.167348  -0.129860
     7  C    0.643744  -0.843028
     8  C    1.053673  -0.596844
     9  C   -0.940688   0.730783
    10  C   -0.579459   0.220762
    11  C   -0.175634  -0.044363
    12  C    0.241286  -0.974906
    13  N    0.103906  -0.013235
    14  C   -0.258710   0.091313
    15  C    0.822380  -1.297508
    16  H   -0.075909   0.220338
    17  H    0.119182   0.025483
    18  H   -0.260977   0.408510
    19  H    0.057624   0.088640
    20  H   -0.451143   0.594274
    21  H   -0.459017   0.646975
    22  H   -0.260951   0.393406
    23  H    0.129022   0.019844
    24  H   -0.081228   0.304204
    25  H   -0.085257   0.226982
    26  H    0.083555   0.095006
    27  H    0.026090   0.127387
    28  H    0.023597   0.150327
    29  H   -0.291695   0.452408
    30  H    0.043822   0.079990
    31  H    0.221875  -0.075029
    32  H   -0.042924   0.203864
    33  H   -0.064700   0.196222
    34  H   -0.142928   0.269746
    35  H   -0.383642   0.520510
    36  H   -0.214636   0.350050
 Sum of Mulliken charges =  -1.00000   1.00000

 Dipole moment (field-independent basis, Debye):
    X=             -0.4974    Y=             -2.3289    Z=             -0.4353  Tot=              2.4208
 Quadrupole moment (field-independent basis, Debye-Ang):
   XX=           -239.8006   YY=           -130.4573   ZZ=           -126.6073
   XY=             -9.0341   XZ=             -4.7087   YZ=             -1.3130

 Summary of Natural Population Analysis:

                                       Natural Population
                Natural  -----------------------------------------------
    Atom  No    Charge         Core      Valence    Rydberg      Total
 -----------------------------------------------------------------------
      C    1   -0.28929      0.99966     2.28349    0.00613     3.28929
      C    2   -0.20125      0.99964     2.19334    0.00827     3.20125
      C    3   -0.00778      0.99955     1.99571    0.01251     3.00778
      O    4   -0.28095      0.99985     3.27126    0.00984     4.28095
      C    5    0.16343      0.99937     1.82508    0.01213     2.83657
      C    6   -0.14215      0.99951     2.13495    0.00768     3.14215
      C    7   -0.08113      0.99953     2.07286    0.00874     3.08113
      C    8   -0.03526      0.99949     2.02594    0.00983     3.03526
      C    9   -0.09592      0.99952     2.08866    0.00774     3.09592
      C   10   -0.12233      0.99953     2.11355    0.00925     3.12233
      C   11   -0.01085      0.99957     1.99918    0.01210     3.01085
      C   12   -0.29872      0.99966     2.29231    0.00675     3.29872
      N   13   -0.34088      0.99975     2.82998    0.01116     3.84088
      C   14   -0.08864      0.99964     2.07709    0.01191     3.08864
      C   15   -0.29390      0.99967     2.28934    0.00489     3.29390
      H   16    0.09666      0.00000     0.40209    0.00125     0.40334
      H   17    0.10068      0.00000     0.39800    0.00132     0.39932
      H   18    0.09995      0.00000     0.39916    0.00089     0.40005
      H   19    0.09616      0.00000     0.40265    0.00119     0.40384
      H   20    0.10070      0.00000     0.39649    0.00281     0.39930
      H   21    0.09229      0.00000     0.40625    0.00146     0.40771
      H   22    0.08444      0.00000     0.41368    0.00188     0.41556
      H   23    0.10480      0.00000     0.39341    0.00179     0.39520
      H   24    0.10828      0.00000     0.39043    0.00129     0.39172
      H   25    0.10201      0.00000     0.39689    0.00110     0.39799
      H   26    0.10374      0.00000     0.39491    0.00135     0.39626
      H   27    0.09233      0.00000     0.40601    0.00166     0.40767
      H   28    0.09748      0.00000     0.40130    0.00122     0.40252
      H   29    0.10308      0.00000     0.39586    0.00106     0.39692
      H   30    0.10040      0.00000     0.39853    0.00107     0.39960
      H   31    0.17085      0.00000     0.32684    0.00231     0.32915
      H   32    0.08836      0.00000     0.41056    0.00107     0.41164
      H   33    0.09111      0.00000     0.40743    0.00146     0.40889
      H   34    0.09405      0.00000     0.40471    0.00124     0.40595
      H   35    0.10013      0.00000     0.39836    0.00151     0.39987
      H   36    0.09814      0.00000     0.40051    0.00136     0.40186
 =======================================================================
   * Total *   -0.00000     14.99394    41.83683    0.16923    57.00000

 Normal termination of Gaussian 16 at Thu Dec 10 17:18:12 2020.
