 Gaussian 16, Revision A.03,

 -----------------------------------------------------------
 # opt freq B3LYP/6-31G(d) empiricaldispersion=gd3bj scf=xqc
 -----------------------------------------------------------

 ------------------------------
 CID_28315557_JID_9601_neutraal
 ------------------------------
 Symbolic Z-matrix:
 Charge =  0 Multiplicity = 1

 SCF Done:  E(RB3LYP) =  -874.457408636     A.U. after   16 cycles
 SCF Done:  E(RB3LYP) =  -874.482957356     A.U. after   13 cycles
 SCF Done:  E(RB3LYP) =  -874.484277706     A.U. after   12 cycles
 SCF Done:  E(RB3LYP) =  -874.484631403     A.U. after   12 cycles
 SCF Done:  E(RB3LYP) =  -874.485037824     A.U. after   12 cycles
 SCF Done:  E(RB3LYP) =  -874.485424206     A.U. after   12 cycles
 SCF Done:  E(RB3LYP) =  -874.485768775     A.U. after   13 cycles
 SCF Done:  E(RB3LYP) =  -874.486320463     A.U. after   12 cycles
 SCF Done:  E(RB3LYP) =  -874.487515129     A.U. after   13 cycles
 SCF Done:  E(RB3LYP) =  -874.487815074     A.U. after   12 cycles
 SCF Done:  E(RB3LYP) =  -874.488006735     A.U. after    6 cycles
 SCF Done:  E(RB3LYP) =  -874.488006751     A.U. after    7 cycles
 SCF Done:  E(RB3LYP) =  -874.488006768     A.U. after    7 cycles
 SCF Done:  E(RB3LYP) =  -874.488006781     A.U. after    7 cycles
 SCF Done:  E(RB3LYP) =  -874.488006789     A.U. after    6 cycles
 Optimization completed.
    -- Stationary point found.
 Normal termination of Gaussian 16 at Sat Dec 12 10:09:09 2020.

 --------------------------------------------------------------------
 #N Geom=AllCheck Guess=TCheck SCRF=Check GenChk RB3LYP/6-31G(d) Freq
 --------------------------------------------------------------------

 Structure from the checkpoint file:  "JID_9601.chk"
 ------------------------------
 CID_28315557_JID_9601_neutraal
 ------------------------------
 Charge =  0 Multiplicity = 1

 SCF Done:  E(RB3LYP) =  -874.488006789     A.U. after    2 cycles

  Exact polarizability: 238.548   1.385 159.685  -5.336  -1.294 107.410
 Approx polarizability: 320.469   1.308 259.730 -12.174  -8.778 174.266

                      1                      2                      3
                      A                      A                      A
 Frequencies --     15.5546                30.4928                45.9730
 Red. masses --      4.7406                 6.1005                 5.9054
 Frc consts  --      0.0007                 0.0033                 0.0074
 IR Inten    --      1.9906                 2.1911                 1.8002

                      4                      5                      6
                      A                      A                      A
 Frequencies --     57.1972                84.3412                93.4330
 Red. masses --      3.8187                 3.1553                 2.7610
 Frc consts  --      0.0074                 0.0132                 0.0142
 IR Inten    --      1.4346                 1.7618                 2.7587

                      7                      8                      9
                      A                      A                      A
 Frequencies --    102.2201               131.5516               150.3376
 Red. masses --      5.0131                 2.8439                 2.3729
 Frc consts  --      0.0309                 0.0290                 0.0316
 IR Inten    --      1.2708                 5.0092                 3.0617

                     10                     11                     12
                      A                      A                      A
 Frequencies --    163.9361               171.9360               201.6392
 Red. masses --      1.1615                 1.3454                 4.0078
 Frc consts  --      0.0184                 0.0234                 0.0960
 IR Inten    --      0.1296                 3.9971                 2.4598

                     13                     14                     15
                      A                      A                      A
 Frequencies --    216.2480               237.5237               264.8414
 Red. masses --      3.2023                 3.5545                 4.7703
 Frc consts  --      0.0882                 0.1182                 0.1971
 IR Inten    --      1.1729                 8.4971                 1.7350

                     16                     17                     18
                      A                      A                      A
 Frequencies --    278.0222               310.4222               329.3458
 Red. masses --      4.4483                 1.1613                 6.4623
 Frc consts  --      0.2026                 0.0659                 0.4130
 IR Inten    --     10.8202                85.5453                 0.5590

                     19                     20                     21
                      A                      A                      A
 Frequencies --    349.2746               365.1922               372.6437
 Red. masses --      4.4937                 2.9969                 4.3830
 Frc consts  --      0.3230                 0.2355                 0.3586
 IR Inten    --      1.4490                 0.4849                 1.5637

                     22                     23                     24
                      A                      A                      A
 Frequencies --    388.9422               428.2157               448.7831
 Red. masses --      5.6662                 3.0141                 3.5002
 Frc consts  --      0.5050                 0.3256                 0.4154
 IR Inten    --      3.0225                 4.4976                 6.8766

                     25                     26                     27
                      A                      A                      A
 Frequencies --    472.3448               497.2534               528.0385
 Red. masses --      4.1851                 3.9630                 6.3707
 Frc consts  --      0.5501                 0.5773                 1.0466
 IR Inten    --      2.2431                 4.3671                 2.8607

                     28                     29                     30
                      A                      A                      A
 Frequencies --    546.7955               653.5952               675.9254
 Red. masses --      3.9274                 5.0797                 4.3211
 Frc consts  --      0.6918                 1.2785                 1.1632
 IR Inten    --      0.6241                10.3829                16.1129

                     31                     32                     33
                      A                      A                      A
 Frequencies --    726.2530               738.0569               743.8632
 Red. masses --      4.6988                 5.6490                 5.3469
 Frc consts  --      1.4602                 1.8130                 1.7432
 IR Inten    --      1.0495                 3.9446                 0.2584

                     34                     35                     36
                      A                      A                      A
 Frequencies --    751.2605               765.0704               830.8101
 Red. masses --      5.6482                 4.7114                 5.4355
 Frc consts  --      1.8782                 1.6248                 2.2105
 IR Inten    --      1.1212                14.2128                 7.4725

                     37                     38                     39
                      A                      A                      A
 Frequencies --    847.7680               868.4578               881.1909
 Red. masses --      1.5799                 2.0395                 2.3655
 Frc consts  --      0.6690                 0.9063                 1.0822
 IR Inten    --     13.2194                64.4167                18.2658

                     40                     41                     42
                      A                      A                      A
 Frequencies --    896.7560               920.9948               926.6233
 Red. masses --      1.4520                 1.5089                 4.7204
 Frc consts  --      0.6880                 0.7541                 2.3880
 IR Inten    --     13.4610                93.5965                15.4937

                     43                     44                     45
                      A                      A                      A
 Frequencies --    953.5100              1008.8467              1033.6028
 Red. masses --      1.8709                 3.6527                 3.3098
 Frc consts  --      1.0022                 2.1903                 2.0833
 IR Inten    --     13.6139                34.2713                26.7614

                     46                     47                     48
                      A                      A                      A
 Frequencies --   1045.8769              1065.0343              1129.8825
 Red. masses --      3.4741                 2.4677                 2.2682
 Frc consts  --      2.2390                 1.6492                 1.7061
 IR Inten    --     76.6822                25.6390                 5.8084

                     49                     50                     51
                      A                      A                      A
 Frequencies --   1145.4460              1177.1180              1186.2724
 Red. masses --      4.0663                 1.8718                 1.2560
 Frc consts  --      3.1434                 1.5281                 1.0414
 IR Inten    --     30.9744                87.8089                 6.3871

                     52                     53                     54
                      A                      A                      A
 Frequencies --   1187.4061              1190.2499              1204.9931
 Red. masses --      1.2544                 1.6092                 2.1576
 Frc consts  --      1.0420                 1.3431                 1.8458
 IR Inten    --     13.3156                69.0843                67.6582

                     55                     56                     57
                      A                      A                      A
 Frequencies --   1216.4002              1226.7880              1237.9307
 Red. masses --      1.2952                 1.5028                 1.6203
 Frc consts  --      1.1291                 1.3325                 1.4630
 IR Inten    --     20.6351                21.6814                55.8671

                     58                     59                     60
                      A                      A                      A
 Frequencies --   1250.8947              1268.6985              1322.5719
 Red. masses --      1.7505                 1.5874                 2.6898
 Frc consts  --      1.6138                 1.5054                 2.7721
 IR Inten    --     17.4817                14.4010                66.8230

                     61                     62                     63
                      A                      A                      A
 Frequencies --   1343.3282              1356.1043              1366.8954
 Red. masses --      2.1302                 1.3193                 3.0031
 Frc consts  --      2.2649                 1.4295                 3.3059
 IR Inten    --     36.6520                29.5968                22.2380

                     64                     65                     66
                      A                      A                      A
 Frequencies --   1391.0897              1401.4134              1431.6008
 Red. masses --      1.4793                 4.0285                 2.3468
 Frc consts  --      1.6866                 4.6615                 2.8338
 IR Inten    --     43.4768                17.7077               100.3649

                     67                     68                     69
                      A                      A                      A
 Frequencies --   1446.9011              1474.0324              1482.2237
 Red. masses --      1.4749                 1.8503                 1.4452
 Frc consts  --      1.8192                 2.3687                 1.8708
 IR Inten    --      9.4505                25.9925                63.3938

                     70                     71                     72
                      A                      A                      A
 Frequencies --   1492.8658              1509.1161              1509.7535
 Red. masses --      1.1584                 1.2570                 1.3127
 Frc consts  --      1.5210                 1.6867                 1.7629
 IR Inten    --     34.0861                55.9730                65.7197

                     73                     74                     75
                      A                      A                      A
 Frequencies --   1514.3301              1520.1525              1527.9415
 Red. masses --      1.0702                 1.3603                 2.1868
 Frc consts  --      1.4460                 1.8521                 3.0079
 IR Inten    --      8.7139                54.3152                13.8110

                     76                     77                     78
                      A                      A                      A
 Frequencies --   1541.1301              1545.0915              1549.5552
 Red. masses --      1.0829                 1.0518                 1.1217
 Frc consts  --      1.5154                 1.4794                 1.5869
 IR Inten    --      0.9137                17.9837                 4.4851

                     79                     80                     81
                      A                      A                      A
 Frequencies --   1581.0041              1629.1143              1683.3258
 Red. masses --      6.8507                 9.8540                 6.4540
 Frc consts  --     10.0891                15.4087                10.7749
 IR Inten    --     26.8619                13.2981                 9.5935

                     82                     83                     84
                      A                      A                      A
 Frequencies --   1704.0100              2375.8877              2963.1784
 Red. masses --      1.1132                12.5819                 1.0734
 Frc consts  --      1.9044                41.8455                 5.5529
 IR Inten    --     30.1453                 0.3336                59.5399

                     85                     86                     87
                      A                      A                      A
 Frequencies --   3039.0167              3042.0118              3062.3160
 Red. masses --      1.0354                 1.0367                 1.0844
 Frc consts  --      5.6340                 5.6525                 5.9918
 IR Inten    --     77.6997                56.5562                40.5191

                     88                     89                     90
                      A                      A                      A
 Frequencies --   3079.4608              3087.1804              3113.7537
 Red. masses --      1.0636                 1.0598                 1.1009
 Frc consts  --      5.9429                 5.9510                 6.2888
 IR Inten    --     29.4050                23.1477                25.5559

                     91                     92                     93
                      A                      A                      A
 Frequencies --   3121.8895              3122.9907              3128.1601
 Red. masses --      1.0983                 1.1046                 1.1039
 Frc consts  --      6.3066                 6.3472                 6.3643
 IR Inten    --     30.4654                12.5153                 4.4546

                     94                     95                     96
                      A                      A                      A
 Frequencies --   3155.2202              3159.6206              3212.1461
 Red. masses --      1.1050                 1.1064                 1.0914
 Frc consts  --      6.4812                 6.5080                 6.6346
 IR Inten    --     30.8374                25.1423                 5.0035

                     97                     98                     99
                      A                      A                      A
 Frequencies --   3231.0090              3458.6757              3550.8401
 Red. masses --      1.0920                 1.0508                 1.0919
 Frc consts  --      6.7168                 7.4064                 8.1116
 IR Inten    --      1.7042                22.2584                 5.7853

 - Thermochemistry -
 -------------------
 Temperature   298.150 Kelvin.  Pressure   1.00000 Atm.
 Atom     1 has atomic number  6 and mass  12.00000

 Molecular mass:   260.12733 amu.
 Principal axes and moments of inertia in atomic units:
                           1         2         3
     Eigenvalues --  2706.430548148.452639882.81740
           X            0.99994  -0.01092  -0.00176
           Y            0.01091   0.99990  -0.00860
           Z            0.00186   0.00858   0.99996
 This molecule is an asymmetric top.
 Rotational symmetry number  1.
 Warning -- assumption of classical behavior for rotation
           may cause significant error
 Rotational temperatures (Kelvin)      0.03200     0.01063     0.00876
 Rotational constants (GHZ):           0.66683     0.22148     0.18261
 Zero-point vibrational energy     749251.0 (Joules/Mol)
                                  179.07529 (Kcal/Mol)
 Warning -- explicit consideration of  28 degrees of freedom as
           vibrations may cause significant error
 Vibrational temperatures:     22.38    43.87    66.14    82.29   121.35
          (Kelvin)            134.43   147.07   189.27   216.30   235.87
                              247.38   290.11   311.13   341.74   381.05
                              400.01   446.63   473.86   502.53   525.43
                              536.15   559.60   616.11   645.70   679.60
                              715.44   759.73   786.72   940.38   972.51
                             1044.92  1061.90  1070.25  1080.90  1100.77
                             1195.35  1219.75  1249.52  1267.84  1290.23
                             1325.11  1333.20  1371.89  1451.51  1487.12
                             1504.78  1532.35  1625.65  1648.04  1693.61
                             1706.78  1708.41  1712.50  1733.72  1750.13
                             1765.07  1781.11  1799.76  1825.37  1902.89
                             1932.75  1951.13  1966.66  2001.47  2016.32
                             2059.75  2081.77  2120.80  2132.59  2147.90
                             2171.28  2172.20  2178.78  2187.16  2198.37
                             2217.34  2223.04  2229.46  2274.71  2343.93
                             2421.93  2451.69  3418.37  4263.35  4372.47
                             4376.78  4405.99  4430.66  4441.76  4480.00
                             4491.70  4493.29  4500.72  4539.66  4545.99
                             4621.56  4648.70  4976.26  5108.87

 Zero-point correction=                           0.285375 (Hartree/Particle)
 Thermal correction to Energy=                    0.304170
 Thermal correction to Enthalpy=                  0.305114
 Thermal correction to Gibbs Free Energy=         0.236395
 Sum of electronic and zero-point Energies=           -874.202632
 Sum of electronic and thermal Energies=              -874.183837
 Sum of electronic and thermal Enthalpies=            -874.182893
 Sum of electronic and thermal Free Energies=         -874.251612

                     E (Thermal)             CV                S
                      KCal/Mol        Cal/Mol-Kelvin    Cal/Mol-Kelvin
 Total                  190.869             68.642            144.632
 Electronic               0.000              0.000              0.000
 Translational            0.889              2.981             42.568
 Rotational               0.889              2.981             33.743
 Vibrational            189.092             62.680             68.321
 Vibration     1          0.593              1.986              7.133
 Vibration     2          0.594              1.984              5.797
 Vibration     3          0.595              1.979              4.984
 Vibration     4          0.596              1.975              4.552
 Vibration     5          0.601              1.960              3.787
 Vibration     6          0.602              1.954              3.587
 Vibration     7          0.604              1.947              3.412
 Vibration     8          0.612              1.922              2.923
 Vibration     9          0.618              1.902              2.668
 Vibration    10          0.623              1.887              2.504
 Vibration    11          0.626              1.877              2.414
 Vibration    12          0.639              1.838              2.118
 Vibration    13          0.645              1.816              1.990
 Vibration    14          0.656              1.783              1.821
 Vibration    15          0.671              1.737              1.630
 Vibration    16          0.679              1.714              1.546
 Vibration    17          0.699              1.654              1.360
 Vibration    18          0.712              1.617              1.263
 Vibration    19          0.727              1.577              1.169
 Vibration    20          0.738              1.544              1.100
 Vibration    21          0.744              1.528              1.069
 Vibration    22          0.757              1.494              1.004
 Vibration    23          0.790              1.409              0.865
 Vibration    24          0.808              1.364              0.799
 Vibration    25          0.829              1.311              0.731
 Vibration    26          0.853              1.256              0.665
 Vibration    27          0.883              1.188              0.592
 Vibration    28          0.902              1.147              0.551

 Optimization completed.
    -- Stationary point found.
 Normal termination of Gaussian 16 at Sat Dec 12 10:25:34 2020.

 ----------------------------------------------------------------------
 # B3LYP/6-311++G(d,p) empiricaldispersion=gd3bj scf=xqc pop=npa geom=c
 heck
 ----------------------------------------------------------------------

 --------------------------------------
 CID_28315557_JID_9601_Energie_neutraal
 --------------------------------------
 Structure from the checkpoint file:  "JID_9601.chk"
 Charge =  0 Multiplicity = 1

 SCF Done:  E(RB3LYP) =  -874.731361757     A.U. after   15 cycles
 Normal termination of Gaussian 16 at Sat Dec 12 10:32:39 2020.

 ----------------------------------------------------------------------
 # B3LYP/6-311++G(d,p) empiricaldispersion=gd3bj scf=xqc pop=npa geom=c
 heck
 ----------------------------------------------------------------------

 ------------------------------------
 CID_28315557_JID_9601_Energie_kation
 ------------------------------------
 Structure from the checkpoint file:  "JID_9601.chk"
 Charge =  1 Multiplicity = 2

 SCF Done:  E(UB3LYP) =  -874.442923625     A.U. after   30 cycles
 Normal termination of Gaussian 16 at Sat Dec 12 10:53:01 2020.
 Gaussian 16:  ES64L-G16RevA.03 25-Dec-2016

 ----------------------------------------------------------------------
 # B3LYP/6-311++G(d,p) empiricaldispersion=gd3bj scf=xqc pop=npa geom=c
 heck
 ----------------------------------------------------------------------

 -----------------------------------
 CID_28315557_JID_9601_Energie_anion
 -----------------------------------
 Structure from the checkpoint file:  "JID_9601.chk"
 Charge = -1 Multiplicity = 2

                         Standard orientation:
 ---------------------------------------------------------------------
 Center     Atomic      Atomic             Coordinates (Angstroms)
 Number     Number       Type             X           Y           Z
 ---------------------------------------------------------------------
      1          6           0       -4.530982   -1.465712   -0.607369
      2          8           0       -3.607028   -1.374946    0.481858
      3          6           0       -2.394667   -0.810641    0.146702
      4          6           0       -2.307377    0.583230   -0.115097
      5          6           0       -1.091546    1.178272   -0.442678
      6          6           0        0.026841    0.348763   -0.490683
      7          6           0       -0.036043   -1.031415   -0.203900
      8          6           0       -1.265673   -1.619985    0.108978
      9          7           0        1.228482   -1.599949   -0.306791
     10          6           0        2.039619   -0.622958   -0.641707
     11          7           0        1.365284    0.589286   -0.790442
     12          6           0        1.937956    1.891762   -1.046258
     13          6           0        2.496849    2.512606    0.168954
     14          7           0        2.947206    2.973146    1.133398
     15          6           0        3.525215   -0.754611   -0.756647
     16          6           0        4.184949   -0.927981    0.626756
     17          7           0        3.903863   -2.268447    1.135200
     18          8           0       -3.432428    1.374932   -0.085237
     19          6           0       -3.991341    1.562278    1.221124
     20          1           0       -4.118373   -2.089852   -1.410362
     21          1           0       -4.775627   -0.474484   -1.002195
     22          1           0       -5.430159   -1.937389   -0.205080
     23          1           0       -1.061395    2.246871   -0.628304
     24          1           0       -1.352215   -2.680136    0.318945
     25          1           0        2.726224    1.815236   -1.800859
     26          1           0        1.161154    2.541381   -1.460776
     27          1           0        3.754844   -1.640804   -1.356716
     28          1           0        3.956166    0.114889   -1.262501
     29          1           0        5.269765   -0.817748    0.507059
     30          1           0        3.849447   -0.102082    1.279713
     31          1           0        4.186370   -2.335280    2.110951
     32          1           0        2.897168   -2.432792    1.101138
     33          1           0       -4.296092    0.607978    1.659966
     34          1           0       -3.266241    2.056739    1.879961
     35          1           0       -4.862040    2.207681    1.087473
 ---------------------------------------------------------------------

 SCF Done:  E(UB3LYP) =  -874.725858495     A.U. after   33 cycles
 SCF Done:  E(UB3LYP) =  -874.725858495     a.u. after    1 cycles

 The electronic state is 2-A.
 Alpha  occ. eigenvalues --  -19.05575 -19.05551 -14.28404 -14.22831 -14.20286
 Alpha  occ. eigenvalues --  -14.19518 -10.16695 -10.14699 -10.13643 -10.13567
 Alpha  occ. eigenvalues --  -10.13442 -10.13331 -10.12610 -10.11878 -10.10313
 Alpha  occ. eigenvalues --  -10.10214 -10.08676 -10.08528 -10.07783  -0.98052
 Alpha  occ. eigenvalues --   -0.95919  -0.93323  -0.82797  -0.80671  -0.78997
 Alpha  occ. eigenvalues --   -0.75539  -0.68762  -0.67802  -0.65868  -0.63975
 Alpha  occ. eigenvalues --   -0.61255  -0.58891  -0.54268  -0.51914  -0.51144
 Alpha  occ. eigenvalues --   -0.49282  -0.45651  -0.44206  -0.43773  -0.41620
 Alpha  occ. eigenvalues --   -0.40401  -0.39465  -0.38794  -0.38100  -0.37862
 Alpha  occ. eigenvalues --   -0.37238  -0.35680  -0.35268  -0.34674  -0.33804
 Alpha  occ. eigenvalues --   -0.33715  -0.32809  -0.30280  -0.28520  -0.28420
 Alpha  occ. eigenvalues --   -0.28276  -0.27620  -0.27067  -0.26806  -0.25375
 Alpha  occ. eigenvalues --   -0.24629  -0.23462  -0.21488  -0.21005  -0.18708
 Alpha  occ. eigenvalues --   -0.18391  -0.14929  -0.13852  -0.12809   0.04032
 Alpha virt. eigenvalues --    0.05595   0.05858   0.07031   0.07377   0.08126
 Alpha virt. eigenvalues --    0.08601   0.09026   0.09335   0.09636   0.09973
 Alpha virt. eigenvalues --    0.10371   0.10650   0.11030   0.11397   0.11743

  Beta  occ. eigenvalues --  -19.05568 -19.05553 -14.28404 -14.22815 -14.20268
  Beta  occ. eigenvalues --  -14.19514 -10.16592 -10.14624 -10.13623 -10.13555
  Beta  occ. eigenvalues --  -10.13435 -10.13322 -10.12607 -10.11881 -10.10316
  Beta  occ. eigenvalues --  -10.10193 -10.08653 -10.08455 -10.07691  -0.98037
  Beta  occ. eigenvalues --   -0.95911  -0.93272  -0.82744  -0.80626  -0.78979
  Beta  occ. eigenvalues --   -0.75460  -0.68669  -0.67688  -0.65768  -0.63927
  Beta  occ. eigenvalues --   -0.61193  -0.58844  -0.54168  -0.51819  -0.51118
  Beta  occ. eigenvalues --   -0.49210  -0.45601  -0.44149  -0.43662  -0.41574
  Beta  occ. eigenvalues --   -0.40354  -0.39429  -0.38740  -0.38027  -0.37814
  Beta  occ. eigenvalues --   -0.37214  -0.35648  -0.35207  -0.34627  -0.33756
  Beta  occ. eigenvalues --   -0.33604  -0.32763  -0.30229  -0.28491  -0.28340
  Beta  occ. eigenvalues --   -0.28230  -0.27571  -0.27027  -0.26764  -0.25336
  Beta  occ. eigenvalues --   -0.24583  -0.23349  -0.21344  -0.20901  -0.18678
  Beta  occ. eigenvalues --   -0.18359  -0.14897  -0.13546  -0.12599
  Beta virt. eigenvalues --    0.05629   0.06468   0.06968   0.07215   0.07883
  Beta virt. eigenvalues --    0.08581   0.08807   0.09212   0.09337   0.09931
  Beta virt. eigenvalues --    0.10083   0.10600   0.10689   0.11157   0.11359

 Mulliken charges and spin densities:
               1          2
     1  C   -0.030480  -0.232610
     2  O   -0.149181   0.003840
     3  C    0.027362  -0.438502
     4  C    0.655379  -1.267247
     5  C    0.229806  -0.468356
     6  C   -1.031405   1.308359
     7  C   -0.091057   0.040725
     8  C   -0.305641   0.314721
     9  N   -0.119170   0.041997
    10  C   -0.169691   0.593570
    11  N    0.272033   0.001936
    12  C    0.086960  -0.310642
    13  C    1.401117  -1.298522
    14  N   -0.284657  -0.008197
    15  C    0.112063  -0.416576
    16  C    0.045735  -0.552043
    17  N   -0.407684   0.045926
    18  O   -0.147457   0.009620
    19  C   -0.057074  -0.203637
    20  H    0.090607   0.033088
    21  H    0.145823   0.039559
    22  H   -0.011013   0.151396
    23  H   -0.111833   0.283198
    24  H    0.117720   0.050347
    25  H   -1.391997   1.631097
    26  H   -0.647971   0.842868
    27  H    0.013078   0.210947
    28  H    0.160412  -0.026873
    29  H   -0.216952   0.407713
    30  H    0.157925  -0.041835
    31  H    0.157912   0.057410
    32  H    0.255431  -0.004328
    33  H    0.131517   0.045531
    34  H    0.026224   0.102475
    35  H    0.086159   0.053047
 Sum of Mulliken charges =  -1.00000   1.00000

 Dipole moment (field-independent basis, Debye):
    X=             -8.0787    Y=             -3.9516    Z=              2.7665  Tot=              9.4093
 Quadrupole moment (field-independent basis, Debye-Ang):
   XX=           -188.5030   YY=           -167.2892   ZZ=           -143.3623
   XY=            -11.7790   XZ=              9.8269   YZ=              6.4562

 Summary of Natural Population Analysis:

                                       Natural Population
                Natural  -----------------------------------------------
    Atom  No    Charge         Core      Valence    Rydberg      Total
 -----------------------------------------------------------------------
      C    1   -0.09825      0.99959     2.09080    0.00785     3.09825
      O    2   -0.29502      0.99987     3.28483    0.01032     4.29502
      C    3    0.12444      0.99935     1.86369    0.01253     2.87556
      C    4    0.13303      0.99935     1.85273    0.01489     2.86697
      C    5   -0.12136      0.99948     2.11242    0.00945     3.12136
      C    6    0.07106      0.99945     1.91911    0.01039     2.92894
      C    7    0.05824      0.99946     1.93015    0.01215     2.94176
      C    8   -0.09704      0.99948     2.08926    0.00830     3.09704
      N    9   -0.26595      0.99966     2.75752    0.00876     3.76595
      C   10    0.23633      0.99959     1.74665    0.01742     2.76367
      N   11   -0.21596      0.99959     2.70455    0.01182     3.71596
      C   12   -0.13903      0.99952     2.12476    0.01474     3.13903
      C   13    0.15763      0.99963     1.82743    0.01531     2.84237
      N   14   -0.17281      0.99979     2.66159    0.01143     3.67281
      C   15   -0.22258      0.99958     2.21239    0.01060     3.22258
      C   16   -0.08320      0.99964     2.07303    0.01052     3.08320
      N   17   -0.42749      0.99977     2.91860    0.00912     3.92749
      O   18   -0.29219      0.99986     3.28264    0.00969     4.29219
      C   19   -0.09874      0.99959     2.09147    0.00768     3.09874
      H   20    0.08150      0.00000     0.41699    0.00150     0.41850
      H   21    0.08926      0.00000     0.40920    0.00155     0.41074
      H   22    0.08623      0.00000     0.41244    0.00133     0.41377
      H   23    0.11034      0.00000     0.38798    0.00169     0.38966
      H   24    0.10638      0.00000     0.39202    0.00160     0.39362
      H   25    0.13219      0.00000     0.35889    0.00892     0.36781
      H   26    0.12688      0.00000     0.36964    0.00349     0.37312
      H   27    0.11606      0.00000     0.38247    0.00148     0.38394
      H   28    0.11124      0.00000     0.38623    0.00253     0.38876
      H   29    0.09070      0.00000     0.40796    0.00134     0.40930
      H   30    0.08327      0.00000     0.41482    0.00191     0.41673
      H   31    0.17008      0.00000     0.32832    0.00160     0.32992
      H   32    0.18585      0.00000     0.31186    0.00229     0.31415
      H   33    0.08969      0.00000     0.40864    0.00167     0.41031
      H   34    0.08323      0.00000     0.41533    0.00144     0.41677
      H   35    0.08599      0.00000     0.41295    0.00106     0.41401
 =======================================================================
   * Total *   -0.00000     18.99227    49.75937    0.24836    69.00000

 Normal termination of Gaussian 16 at Sat Dec 12 11:16:04 2020.
