 Gaussian 16, Revision A.03,

 -----------------------------------------------------------
 # opt freq B3LYP/6-31G(d) empiricaldispersion=gd3bj scf=xqc
 -----------------------------------------------------------

 ------------------------------
 CID_89447358_JID_5387_neutraal
 ------------------------------
 Symbolic Z-matrix:
 Charge =  0 Multiplicity = 1

 SCF Done:  E(RB3LYP) =  -651.666591828     A.U. after   14 cycles
 SCF Done:  E(RB3LYP) =  -651.669502397     A.U. after   12 cycles
 SCF Done:  E(RB3LYP) =  -651.669965528     A.U. after   12 cycles
 SCF Done:  E(RB3LYP) =  -651.670042578     A.U. after   11 cycles
 SCF Done:  E(RB3LYP) =  -651.670076467     A.U. after   11 cycles
 SCF Done:  E(RB3LYP) =  -651.670093039     A.U. after   10 cycles
 SCF Done:  E(RB3LYP) =  -651.670103721     A.U. after   10 cycles
 SCF Done:  E(RB3LYP) =  -651.670106702     A.U. after    9 cycles
 SCF Done:  E(RB3LYP) =  -651.670108713     A.U. after    9 cycles
 SCF Done:  E(RB3LYP) =  -651.670108937     A.U. after    7 cycles
 Optimization completed.
    -- Stationary point found.
 Normal termination of Gaussian 16 at Thu Dec 10 15:50:26 2020.

 --------------------------------------------------------------------
 #N Geom=AllCheck Guess=TCheck SCRF=Check GenChk RB3LYP/6-31G(d) Freq
 --------------------------------------------------------------------

 Structure from the checkpoint file:  "JID_5387.chk"
 ------------------------------
 CID_89447358_JID_5387_neutraal
 ------------------------------
 Charge =  0 Multiplicity = 1

 SCF Done:  E(RB3LYP) =  -651.670108937     A.U. after    1 cycles

  Exact polarizability: 183.945   8.407 143.036  -0.000   0.002  90.079
 Approx polarizability: 279.910  14.680 239.430   0.001   0.006 128.244

                      1                      2                      3
                      A                      A                      A
 Frequencies --     36.2868                59.9021                85.8004
 Red. masses --      2.7378                 3.1653                 3.3470
 Frc consts  --      0.0021                 0.0067                 0.0145
 IR Inten    --      0.5230                 0.0505                 1.3871

                      4                      5                      6
                      A                      A                      A
 Frequencies --    112.3151               139.1670               160.3862
 Red. masses --      3.5856                 3.1297                 3.4294
 Frc consts  --      0.0266                 0.0357                 0.0520
 IR Inten    --      2.2372                 0.2170                 0.8160

                      7                      8                      9
                      A                      A                      A
 Frequencies --    218.8339               224.2672               233.0444
 Red. masses --      2.0078                 1.8336                 1.6192
 Frc consts  --      0.0567                 0.0543                 0.0518
 IR Inten    --      0.5960                 1.0507                 0.0000

                     10                     11                     12
                      A                      A                      A
 Frequencies --    236.7573               244.8867               253.0425
 Red. masses --      1.4062                 1.2164                 1.1174
 Frc consts  --      0.0464                 0.0430                 0.0422
 IR Inten    --      0.3278                 0.1791                 0.3430

                     13                     14                     15
                      A                      A                      A
 Frequencies --    282.2926               302.1574               361.6648
 Red. masses --      2.1399                 2.5591                 4.7331
 Frc consts  --      0.1005                 0.1377                 0.3648
 IR Inten    --      0.0223                 0.8267                 0.0773

                     16                     17                     18
                      A                      A                      A
 Frequencies --    412.3916               421.8823               441.8481
 Red. masses --      2.6533                 4.5740                 2.6068
 Frc consts  --      0.2659                 0.4797                 0.2999
 IR Inten    --      0.0151                 0.1797                 0.9870

                     19                     20                     21
                      A                      A                      A
 Frequencies --    516.5529               520.0054               560.4118
 Red. masses --      5.2103                 5.3441                 3.3435
 Frc consts  --      0.8191                 0.8514                 0.6187
 IR Inten    --      0.7248                 7.1793                 6.9348

                     22                     23                     24
                      A                      A                      A
 Frequencies --    635.0214               651.9358               689.0585
 Red. masses --      6.9552                 5.7588                 6.0142
 Frc consts  --      1.6525                 1.4421                 1.6824
 IR Inten    --      2.6531                 2.2731                 2.6673

                     25                     26                     27
                      A                      A                      A
 Frequencies --    722.0926               741.6784               790.9212
 Red. masses --      3.5389                 6.7828                 8.6320
 Frc consts  --      1.0872                 2.1983                 3.1815
 IR Inten    --      1.5639                 0.1130                 0.4845

                     28                     29                     30
                      A                      A                      A
 Frequencies --    853.9549               858.8310               885.1376
 Red. masses --      3.9090                 1.3353                 3.4085
 Frc consts  --      1.6795                 0.5803                 1.5734
 IR Inten    --      1.7639                19.1711                 2.0034

                     31                     32                     33
                      A                      A                      A
 Frequencies --    904.2122               942.0107               948.5142
 Red. masses --      3.7502                 1.1656                 3.2217
 Frc consts  --      1.8065                 0.6094                 1.7077
 IR Inten    --      0.9332                 1.0576                 9.1582

                     34                     35                     36
                      A                      A                      A
 Frequencies --    949.1512               968.1779               974.4958
 Red. masses --      1.1770                 1.3241                 1.5059
 Frc consts  --      0.6248                 0.7313                 0.8426
 IR Inten    --      0.8354                 0.0381                 0.1153

                     37                     38                     39
                      A                      A                      A
 Frequencies --    978.6331              1056.0362              1066.7641
 Red. masses --      1.5183                 2.6318                 2.5008
 Frc consts  --      0.8568                 1.7292                 1.6767
 IR Inten    --      0.0295                54.6462                20.0806

                     40                     41                     42
                      A                      A                      A
 Frequencies --   1084.5609              1130.8723              1141.6638
 Red. masses --      1.8979                 2.3378                 2.3326
 Frc consts  --      1.3153                 1.7615                 1.7913
 IR Inten    --      7.1787                 0.8999                 1.8681

                     43                     44                     45
                      A                      A                      A
 Frequencies --   1144.0922              1166.3182              1199.0757
 Red. masses --      2.5137                 2.0818                 2.2112
 Frc consts  --      1.9386                 1.6685                 1.8732
 IR Inten    --      4.0091                 7.9968                15.4366

                     46                     47                     48
                      A                      A                      A
 Frequencies --   1213.0491              1231.4704              1254.3417
 Red. masses --      2.1246                 2.4230                 3.9419
 Frc consts  --      1.8419                 2.1650                 3.6541
 IR Inten    --      4.6214                22.4934                 6.3962

                     49                     50                     51
                      A                      A                      A
 Frequencies --   1325.2089              1345.9774              1351.8236
 Red. masses --      2.9926                 2.0082                 1.3081
 Frc consts  --      3.0965                 2.1435                 1.4084
 IR Inten    --     10.0450                41.5721                 1.7753

                     52                     53                     54
                      A                      A                      A
 Frequencies --   1362.7556              1376.7291              1423.5968
 Red. masses --      1.3213                 1.6344                 1.2160
 Frc consts  --      1.4458                 1.8252                 1.4520
 IR Inten    --      1.3732                25.3753                 3.1644

                     55                     56                     57
                      A                      A                      A
 Frequencies --   1426.7774              1429.5427              1434.1095
 Red. masses --      2.5613                 1.2222                 2.5314
 Frc consts  --      3.0720                 1.4716                 3.0674
 IR Inten    --     51.6590                 5.5676                49.9074

                     58                     59                     60
                      A                      A                      A
 Frequencies --   1446.5695              1451.7251              1474.1787
 Red. masses --      1.2633                 1.2867                 2.6697
 Frc consts  --      1.5575                 1.5977                 3.4184
 IR Inten    --      0.2164                 1.0520                 0.6818

                     61                     62                     63
                      A                      A                      A
 Frequencies --   1515.9140              1517.5491              1521.6785
 Red. masses --      1.0437                 1.0425                 1.0487
 Frc consts  --      1.4131                 1.4146                 1.4307
 IR Inten    --      0.2942                 0.5301                 3.8462

                     64                     65                     66
                      A                      A                      A
 Frequencies --   1524.6178              1530.5837              1533.9125
 Red. masses --      1.0487                 1.0464                 1.0451
 Frc consts  --      1.4362                 1.4443                 1.4488
 IR Inten    --      0.0461                 5.3233                 9.1214

                     67                     68                     69
                      A                      A                      A
 Frequencies --   1537.3773              1543.2055              1617.7314
 Red. masses --      1.0643                 1.0769                 8.7653
 Frc consts  --      1.4820                 1.5111                13.5154
 IR Inten    --      8.6264                 3.0147                28.0422

                     70                     71                     72
                      A                      A                      A
 Frequencies --   1625.1028              1661.6944              3032.9568
 Red. masses --      6.8632                 7.9223                 1.0838
 Frc consts  --     10.6791                12.8885                 5.8742
 IR Inten    --     44.8273                 7.4030                13.6307

                     73                     74                     75
                      A                      A                      A
 Frequencies --   3050.2342              3053.9728              3055.8729
 Red. masses --      1.0348                 1.0359                 1.0343
 Frc consts  --      5.6725                 5.6923                 5.6906
 IR Inten    --     21.1626                22.9163                26.7421

                     76                     77                     78
                      A                      A                      A
 Frequencies --   3058.9041              3086.8041              3116.0270
 Red. masses --      1.0350                 1.0840                 1.1023
 Frc consts  --      5.7060                 6.0857                 6.3063
 IR Inten    --     25.8047                21.0758                 0.0409

                     79                     80                     81
                      A                      A                      A
 Frequencies --   3122.1309              3125.2419              3125.9210
 Red. masses --      1.1016                 1.1035                 1.1030
 Frc consts  --      6.3269                 6.3504                 6.3500
 IR Inten    --     73.2073                 7.2474                23.1677

                     82                     83                     84
                      A                      A                      A
 Frequencies --   3127.6716              3128.2766              3136.0774
 Red. masses --      1.1030                 1.1021                 1.1033
 Frc consts  --      6.3573                 6.3546                 6.3934
 IR Inten    --     35.0665                40.8451                 4.1579

                     85                     86                     87
                      A                      A                      A
 Frequencies --   3142.0195              3196.3410              3212.1475
 Red. masses --      1.1016                 1.0879                 1.0958
 Frc consts  --      6.4073                 6.5485                 6.6614
 IR Inten    --     38.8568                 9.4812                21.0155

 - Thermochemistry -
 -------------------
 Temperature   298.150 Kelvin.  Pressure   1.00000 Atm.
 Atom     1 has atomic number  6 and mass  12.00000

 Molecular mass:   204.12626 amu.
 Principal axes and moments of inertia in atomic units:
                           1         2         3
     Eigenvalues --  2101.196893723.439925035.28896
           X            0.99956   0.02959  -0.00000
           Y           -0.02959   0.99956  -0.00000
           Z            0.00000   0.00000   1.00000
 This molecule is an asymmetric top.
 Rotational symmetry number  1.
 Warning -- assumption of classical behavior for rotation
           may cause significant error
 Rotational temperatures (Kelvin)      0.04122     0.02326     0.01720
 Rotational constants (GHZ):           0.85891     0.48470     0.35842
 Zero-point vibrational energy     692368.2 (Joules/Mol)
                                  165.47998 (Kcal/Mol)
 Warning -- explicit consideration of  21 degrees of freedom as
           vibrations may cause significant error
 Vibrational temperatures:     52.21    86.19   123.45   161.60   200.23
          (Kelvin)            230.76   314.85   322.67   335.30   340.64
                              352.34   364.07   406.16   434.74   520.35
                              593.34   606.99   635.72   743.20   748.17
                              806.31   913.65   937.99   991.40  1038.93
                             1067.11  1137.96  1228.65  1235.67  1273.52
                             1300.96  1355.34  1364.70  1365.62  1392.99
                             1402.08  1408.03  1519.40  1534.84  1560.44
                             1627.07  1642.60  1646.09  1678.07  1725.20
                             1745.31  1771.81  1804.72  1906.68  1936.56
                             1944.97  1960.70  1980.81  2048.24  2052.81
                             2056.79  2063.36  2081.29  2088.71  2121.01
                             2181.06  2183.41  2189.36  2193.58  2202.17
                             2206.96  2211.94  2220.33  2327.55  2338.16
                             2390.81  4363.75  4388.61  4393.99  4396.72
                             4401.08  4441.22  4483.27  4492.05  4496.53
                             4497.50  4500.02  4500.89  4512.12  4520.67
                             4598.82  4621.56

 Zero-point correction=                           0.263709 (Hartree/Particle)
 Thermal correction to Energy=                    0.278231
 Thermal correction to Enthalpy=                  0.279175
 Thermal correction to Gibbs Free Energy=         0.222343
 Sum of electronic and zero-point Energies=           -651.406400
 Sum of electronic and thermal Energies=              -651.391878
 Sum of electronic and thermal Enthalpies=            -651.390934
 Sum of electronic and thermal Free Energies=         -651.447766

                     E (Thermal)             CV                S
                      KCal/Mol        Cal/Mol-Kelvin    Cal/Mol-Kelvin
 Total                  174.593             55.272            119.615
 Electronic               0.000              0.000              0.000
 Translational            0.889              2.981             41.845
 Rotational               0.889              2.981             32.044
 Vibrational            172.815             49.311             45.726
 Vibration     1          0.594              1.982              5.452
 Vibration     2          0.597              1.973              4.460
 Vibration     3          0.601              1.959              3.754
 Vibration     4          0.607              1.939              3.229
 Vibration     5          0.615              1.914              2.815
 Vibration     6          0.622              1.891              2.545
 Vibration     7          0.647              1.812              1.969
 Vibration     8          0.649              1.804              1.924
 Vibration     9          0.654              1.790              1.855
 Vibration    10          0.656              1.784              1.827
 Vibration    11          0.660              1.771              1.767
 Vibration    12          0.664              1.758              1.709
 Vibration    13          0.681              1.706              1.520
 Vibration    14          0.694              1.670              1.405
 Vibration    15          0.736              1.551              1.115
 Vibration    16          0.776              1.443              0.918
 Vibration    17          0.784              1.423              0.886
 Vibration    18          0.802              1.379              0.821
 Vibration    19          0.872              1.213              0.618
 Vibration    20          0.875              1.206              0.610
 Vibration    21          0.916              1.117              0.523

 Optimization completed.
    -- Stationary point found.
 Normal termination of Gaussian 16 at Thu Dec 10 16:01:45 2020.

 ----------------------------------------------------------------------
 # B3LYP/6-311++G(d,p) empiricaldispersion=gd3bj scf=xqc pop=npa geom=c
 heck
 ----------------------------------------------------------------------

 --------------------------------------
 CID_89447358_JID_5387_Energie_neutraal
 --------------------------------------
 Structure from the checkpoint file:  "JID_5387.chk"
 Charge =  0 Multiplicity = 1

 SCF Done:  E(RB3LYP) =  -651.838915067     A.U. after   15 cycles
 Normal termination of Gaussian 16 at Thu Dec 10 16:07:02 2020.

 ----------------------------------------------------------------------
 # B3LYP/6-311++G(d,p) empiricaldispersion=gd3bj scf=xqc pop=npa geom=c
 heck
 ----------------------------------------------------------------------

 ------------------------------------
 CID_89447358_JID_5387_Energie_kation
 ------------------------------------
 Structure from the checkpoint file:  "JID_5387.chk"
 Charge =  1 Multiplicity = 2

 SCF Done:  E(UB3LYP) =  -651.528007066     A.U. after   26 cycles
 Normal termination of Gaussian 16 at Thu Dec 10 16:20:02 2020.
 Gaussian 16:  ES64L-G16RevA.03 25-Dec-2016

 ----------------------------------------------------------------------
 # B3LYP/6-311++G(d,p) empiricaldispersion=gd3bj scf=xqc pop=npa geom=c
 heck
 ----------------------------------------------------------------------

 -----------------------------------
 CID_89447358_JID_5387_Energie_anion
 -----------------------------------
 Structure from the checkpoint file:  "JID_5387.chk"
 Charge = -1 Multiplicity = 2

                         Standard orientation:
 ---------------------------------------------------------------------
 Center     Atomic      Atomic             Coordinates (Angstroms)
 Number     Number       Type             X           Y           Z
 ---------------------------------------------------------------------
      1          6           0       -1.721513    2.298319   -1.273684
      2          6           0       -0.889907    2.066991    0.000120
      3          6           0       -1.722403    2.298144    1.273349
      4          6           0       -0.205272    0.719835    0.000139
      5          6           0       -0.756656   -0.533668    0.000048
      6          8           0        0.209368   -1.526692   -0.000045
      7          6           0        1.418641   -0.892349    0.000031
      8          6           0        1.221336    0.506307    0.000099
      9          6           0        2.387184    1.262169    0.000152
     10          6           0        3.579356    0.529790    0.000103
     11          7           0        3.671084   -0.810893    0.000019
     12          7           0        2.553858   -1.553367   -0.000009
     13          6           0       -2.163365   -1.040775   -0.000060
     14          6           0       -2.450286   -1.859967   -1.272566
     15          6           0       -2.450541   -1.859806    1.272482
     16          1           0       -2.562903    1.599385   -1.334052
     17          1           0       -1.109545    2.162584   -2.171264
     18          1           0       -2.131258    3.314676   -1.286669
     19          1           0       -0.088526    2.817902    0.000487
     20          1           0       -2.563996    1.599396    1.332995
     21          1           0       -1.111122    2.162125    2.171356
     22          1           0       -2.131953    3.314582    1.286231
     23          1           0        2.391698    2.348085    0.000227
     24          1           0        4.539283    1.038627    0.000129
     25          1           0       -2.817454   -0.163348   -0.000199
     26          1           0       -1.796863   -2.736369   -1.321615
     27          1           0       -3.489945   -2.204253   -1.273300
     28          1           0       -2.284323   -1.259968   -2.173381
     29          1           0       -2.284859   -1.259666    2.173255
     30          1           0       -3.490168   -2.204188    1.273001
     31          1           0       -1.797051   -2.736142    1.321816
 ---------------------------------------------------------------------

 SCF Done:  E(UB3LYP) =  -651.843878936     A.U. after   33 cycles
 SCF Done:  E(UB3LYP) =  -651.843878936     a.u. after    1 cycles

 The electronic state is 2-A.
 Alpha  occ. eigenvalues --  -19.02746 -14.14734 -14.14659 -10.08766 -10.07339
 Alpha  occ. eigenvalues --  -10.07095 -10.06909 -10.06070 -10.06069 -10.05303
 Alpha  occ. eigenvalues --  -10.05302 -10.03802 -10.03003 -10.01725 -10.01140
 Alpha  occ. eigenvalues --   -0.95792  -0.83091  -0.71083  -0.69177  -0.66022
 Alpha  occ. eigenvalues --   -0.64099  -0.60117  -0.58647  -0.57948  -0.52565
 Alpha  occ. eigenvalues --   -0.50029  -0.48261  -0.44891  -0.41717  -0.37357
 Alpha  occ. eigenvalues --   -0.36784  -0.34370  -0.33516  -0.33003  -0.32965
 Alpha  occ. eigenvalues --   -0.32007  -0.30837  -0.29603  -0.29587  -0.28765
 Alpha  occ. eigenvalues --   -0.27931  -0.26554  -0.24653  -0.24329  -0.24260
 Alpha  occ. eigenvalues --   -0.23651  -0.23440  -0.22685  -0.22065  -0.20341
 Alpha  occ. eigenvalues --   -0.16296  -0.14586  -0.10949  -0.08873  -0.06461
 Alpha  occ. eigenvalues --    0.05465
 Alpha virt. eigenvalues --    0.06912   0.07943   0.08839   0.09832   0.10093
 Alpha virt. eigenvalues --    0.10723   0.10869   0.11943   0.12752   0.13301
 Alpha virt. eigenvalues --    0.13679   0.13791   0.14506   0.14538   0.15088

  Beta  occ. eigenvalues --  -19.02693 -14.14222 -14.14153 -10.08875 -10.07336
  Beta  occ. eigenvalues --  -10.07129 -10.06458 -10.06072 -10.06071 -10.05259
  Beta  occ. eigenvalues --  -10.05259 -10.03933 -10.03078 -10.01504 -10.00795
  Beta  occ. eigenvalues --   -0.95608  -0.82215  -0.70947  -0.69009  -0.65555
  Beta  occ. eigenvalues --   -0.63572  -0.59697  -0.58647  -0.57859  -0.52040
  Beta  occ. eigenvalues --   -0.49854  -0.48155  -0.44603  -0.41491  -0.37198
  Beta  occ. eigenvalues --   -0.36676  -0.34201  -0.33473  -0.32855  -0.32430
  Beta  occ. eigenvalues --   -0.31875  -0.30777  -0.29396  -0.29371  -0.28710
  Beta  occ. eigenvalues --   -0.27766  -0.26392  -0.24548  -0.24267  -0.23951
  Beta  occ. eigenvalues --   -0.23583  -0.23247  -0.21985  -0.21299  -0.20221
  Beta  occ. eigenvalues --   -0.14578  -0.14052  -0.09655  -0.06912  -0.05758
  Beta virt. eigenvalues --    0.06839   0.07885   0.08711   0.09770   0.10026
  Beta virt. eigenvalues --    0.10614   0.10772   0.11862   0.12276   0.12848
  Beta virt. eigenvalues --    0.13177   0.13582   0.13782   0.14477   0.14550

 Mulliken charges and spin densities:
               1          2
     1  C   -0.723707  -0.002428
     2  C    0.000278  -0.001267
     3  C   -0.723775  -0.002381
     4  C    0.634286  -0.040036
     5  C   -0.400551   0.270081
     6  O   -0.000067   0.008092
     7  C   -0.417941  -0.046439
     8  C    0.758749   0.068606
     9  C   -0.318180   0.364058
    10  C   -0.394335  -0.118363
    11  N   -0.221472   0.224778
    12  N   -0.147036   0.233175
    13  C    0.047322   0.150304
    14  C   -0.509503  -0.143479
    15  C   -0.509903  -0.143072
    16  H    0.137225  -0.000416
    17  H    0.138286   0.005772
    18  H    0.114569  -0.002499
    19  H    0.186405  -0.000491
    20  H    0.137239  -0.000432
    21  H    0.138310   0.005738
    22  H    0.114583  -0.002493
    23  H    0.067309  -0.022496
    24  H    0.135646   0.002532
    25  H    0.107577   0.002976
    26  H    0.158372   0.010435
    27  H    0.072332   0.056614
    28  H    0.093528   0.028159
    29  H    0.093561   0.028108
    30  H    0.072487   0.056452
    31  H    0.158405   0.010412
 Sum of Mulliken charges =  -1.00000   1.00000

 Dipole moment (field-independent basis, Debye):
    X=             -8.8236    Y=              4.8548    Z=              0.0008  Tot=             10.0710
 Quadrupole moment (field-independent basis, Debye-Ang):
   XX=           -141.1273   YY=           -112.6177   ZZ=           -102.6009
   XY=             10.5049   XZ=             -0.0021   YZ=             -0.0009

 Summary of Natural Population Analysis:

                                       Natural Population
                Natural  -----------------------------------------------
    Atom  No    Charge         Core      Valence    Rydberg      Total
 -----------------------------------------------------------------------
      C    1   -0.27789      0.99966     2.27390    0.00433     3.27789
      C    2   -0.11374      0.99959     2.10645    0.00769     3.11374
      C    3   -0.27789      0.99966     2.27390    0.00433     3.27789
      C    4   -0.09089      0.99941     2.07962    0.01186     3.09089
      C    5    0.25162      0.99937     1.73234    0.01667     2.74838
      O    6   -0.25284      0.99985     3.24305    0.00993     4.25284
      C    7    0.22315      0.99940     1.75626    0.02119     2.77685
      C    8   -0.02595      0.99945     2.01467    0.01183     3.02595
      C    9   -0.05697      0.99953     2.04974    0.00770     3.05697
      C   10   -0.03642      0.99962     2.02178    0.01502     3.03642
      N   11   -0.08158      0.99974     2.56412    0.01771     3.58158
      N   12   -0.08188      0.99964     2.56690    0.01533     3.58188
      C   13   -0.13811      0.99957     2.13000    0.00854     3.13811
      C   14   -0.27536      0.99966     2.27109    0.00461     3.27536
      C   15   -0.27535      0.99966     2.27108    0.00461     3.27535
      H   16    0.09370      0.00000     0.40541    0.00089     0.40630
      H   17    0.10231      0.00000     0.39699    0.00071     0.39769
      H   18    0.08818      0.00000     0.41085    0.00098     0.41182
      H   19    0.09559      0.00000     0.40253    0.00187     0.40441
      H   20    0.09370      0.00000     0.40541    0.00089     0.40630
      H   21    0.10230      0.00000     0.39699    0.00071     0.39770
      H   22    0.08818      0.00000     0.41084    0.00097     0.41182
      H   23    0.08672      0.00000     0.41146    0.00181     0.41328
      H   24    0.08127      0.00000     0.41735    0.00138     0.41873
      H   25    0.09547      0.00000     0.40282    0.00170     0.40453
      H   26    0.10303      0.00000     0.39606    0.00090     0.39697
      H   27    0.08935      0.00000     0.40977    0.00087     0.41065
      H   28    0.09894      0.00000     0.40011    0.00095     0.40106
      H   29    0.09894      0.00000     0.40011    0.00095     0.40106
      H   30    0.08935      0.00000     0.40978    0.00087     0.41065
      H   31    0.10303      0.00000     0.39607    0.00090     0.39697
 =======================================================================
   * Total *   -0.00000     14.99381    39.82746    0.17873    55.00000

 Normal termination of Gaussian 16 at Thu Dec 10 16:36:57 2020.
