 Gaussian 16, Revision A.03,

 -----------------------------------------------------------
 # opt freq B3LYP/6-31G(d) empiricaldispersion=gd3bj scf=xqc
 -----------------------------------------------------------

 ------------------------------
 CID_59910375_JID_1406_neutraal
 ------------------------------
 Symbolic Z-matrix:
 Charge =  0 Multiplicity = 1

 SCF Done:  E(RB3LYP) =  -492.951809229     A.U. after   15 cycles
 SCF Done:  E(RB3LYP) =  -492.957492811     A.U. after   13 cycles
 SCF Done:  E(RB3LYP) =  -492.959249887     A.U. after   12 cycles
 SCF Done:  E(RB3LYP) =  -492.961614549     A.U. after   13 cycles
 SCF Done:  E(RB3LYP) =  -492.962938067     A.U. after   13 cycles
 SCF Done:  E(RB3LYP) =  -492.963467472     A.U. after   12 cycles
 SCF Done:  E(RB3LYP) =  -492.963586044     A.U. after   11 cycles
 SCF Done:  E(RB3LYP) =  -492.963606441     A.U. after   10 cycles
 SCF Done:  E(RB3LYP) =  -492.963611936     A.U. after    9 cycles
 SCF Done:  E(RB3LYP) =  -492.963613479     A.U. after    8 cycles
 Optimization completed.
    -- Stationary point found.

 1\1\GINC-NODE102\FOpt\RB3LYP\6-31G(d)\C7H12N4\VSC10255\08-Dec-2020\0\\
 # opt freq B3LYP/6-31G(d) empiricaldispersion=gd3bj scf=xqc\\CID_59910
 375_JID_1406_neutraal\\0,1\C,1.0949689505,0.0472537859,0.2073921914\C,
 0.1023389944,-0.8663490689,0.9455432805\C,0.7939666361,-2.0192532295,1
 .6295271323\N,0.7179069584,-3.2000253011,1.130404263\C,1.4460786893,-4
 .2879795035,1.7823983292\C,1.7036397377,-4.1041538685,3.2816727423\N,2
 .2612774456,-2.7766152317,3.4798493706\C,1.5546776501,-1.7412739567,2.
 8545194214\N,1.6445835644,-0.6017001319,3.4552640736\N,2.4997020996,-0

 Normal termination of Gaussian 16 at Tue Dec  8 19:53:31 2020.

 --------------------------------------------------------------------
 #N Geom=AllCheck Guess=TCheck SCRF=Check GenChk RB3LYP/6-31G(d) Freq
 --------------------------------------------------------------------

 Structure from the checkpoint file:  "JID_1406.chk"
 ------------------------------
 CID_59910375_JID_1406_neutraal
 ------------------------------
 Charge =  0 Multiplicity = 1

 SCF Done:  E(RB3LYP) =  -492.963613479     A.U. after    1 cycles

  Exact polarizability: 109.832   2.915 118.636   1.302  -2.883  66.730
 Approx polarizability: 143.565  12.891 207.851   4.941  -6.634 102.477

                      1                      2                      3
                      A                      A                      A
 Frequencies --     62.7581                98.9343               168.9034
 Red. masses --      2.4732                 3.2265                 2.9398
 Frc consts  --      0.0057                 0.0186                 0.0494
 IR Inten    --      0.8251                 1.9490                 1.5044

                      4                      5                      6
                      A                      A                      A
 Frequencies --    179.7738               207.9462               255.1558
 Red. masses --      3.3016                 1.3283                 2.1967
 Frc consts  --      0.0629                 0.0338                 0.0843
 IR Inten    --      0.5144                 1.5146                 2.0825

                      7                      8                      9
                      A                      A                      A
 Frequencies --    290.9139               296.3887               355.5985
 Red. masses --      2.2581                 2.4109                 2.9720
 Frc consts  --      0.1126                 0.1248                 0.2214
 IR Inten    --      3.7390                 1.7266                14.8189

                     10                     11                     12
                      A                      A                      A
 Frequencies --    434.3733               488.9338               562.1416
 Red. masses --      3.6569                 4.6483                 5.6061
 Frc consts  --      0.4065                 0.6547                 1.0438
 IR Inten    --      2.2177                12.1953                 2.1968

                     13                     14                     15
                      A                      A                      A
 Frequencies --    580.5782               625.7581               656.4130
 Red. masses --      3.9198                 4.5198                 2.0016
 Frc consts  --      0.7785                 1.0428                 0.5081
 IR Inten    --     37.5373                21.6076                91.2656

                     16                     17                     18
                      A                      A                      A
 Frequencies --    740.3659               762.4646               805.3097
 Red. masses --      2.7663                 3.3519                 1.3076
 Frc consts  --      0.8934                 1.1481                 0.4996
 IR Inten    --     90.6281                15.7330                 1.0131

                     19                     20                     21
                      A                      A                      A
 Frequencies --    880.0838               901.2913               943.6876
 Red. masses --      4.7764                 2.7772                 2.0597
 Frc consts  --      2.1797                 1.3292                 1.0807
 IR Inten    --     70.3953                 2.4017                21.2835

                     22                     23                     24
                      A                      A                      A
 Frequencies --    959.9917              1007.2788              1029.6452
 Red. masses --      2.8128                 2.9997                 2.2793
 Frc consts  --      1.5273                 1.7932                 1.4237
 IR Inten    --     19.0064                26.4459                 1.3415

                     25                     26                     27
                      A                      A                      A
 Frequencies --   1048.3998              1067.8282              1088.3700
 Red. masses --      3.5501                 2.9135                 1.8408
 Frc consts  --      2.2990                 1.9573                 1.2847
 IR Inten    --      9.4284                17.9311                12.1216

                     28                     29                     30
                      A                      A                      A
 Frequencies --   1114.5678              1141.8436              1150.0214
 Red. masses --      1.8776                 1.6752                 1.9141
 Frc consts  --      1.3742                 1.2869                 1.4915
 IR Inten    --      5.7351                16.5433                 3.2785

                     31                     32                     33
                      A                      A                      A
 Frequencies --   1188.2728              1218.8863              1249.0845
 Red. masses --      1.1054                 2.4297                 2.3387
 Frc consts  --      0.9196                 2.1268                 2.1499
 IR Inten    --      0.9375                46.9069                21.4388

                     34                     35                     36
                      A                      A                      A
 Frequencies --   1266.2788              1287.1191              1310.6859
 Red. masses --      1.6181                 1.2564                 1.2131
 Frc consts  --      1.5286                 1.2263                 1.2279
 IR Inten    --     17.2441                 0.4927                14.1687

                     37                     38                     39
                      A                      A                      A
 Frequencies --   1363.3620              1384.5975              1395.0379
 Red. masses --      1.5353                 1.4361                 1.5413
 Frc consts  --      1.6814                 1.6221                 1.7673
 IR Inten    --      6.4765                48.9637                 3.4197

                     40                     41                     42
                      A                      A                      A
 Frequencies --   1396.8541              1430.9352              1434.1182
 Red. masses --      1.8380                 1.2571                 1.3514
 Frc consts  --      2.1130                 1.5165                 1.6375
 IR Inten    --      6.6628                17.7413                35.3383

                     43                     44                     45
                      A                      A                      A
 Frequencies --   1483.9450              1504.6443              1508.5969
 Red. masses --      2.0284                 1.1079                 1.1414
 Frc consts  --      2.6317                 1.4778                 1.5305
 IR Inten    --     17.7413                 3.1798                 3.7006

                     46                     47                     48
                      A                      A                      A
 Frequencies --   1528.0786              1541.1935              1542.6508
 Red. masses --      1.0416                 1.0648                 1.1223
 Frc consts  --      1.4330                 1.4902                 1.5737
 IR Inten    --      6.3939                 5.3955                 3.0330

                     49                     50                     51
                      A                      A                      A
 Frequencies --   1567.9850              1668.7559              1706.4240
 Red. masses --      1.1200                 9.1623                 8.5864
 Frc consts  --      1.6224                15.0328                14.7310
 IR Inten    --      6.6315                45.1777                56.1168

                     52                     53                     54
                      A                      A                      A
 Frequencies --   2855.7005              2961.7433              3040.9031
 Red. masses --      1.0743                 1.0728                 1.0663
 Frc consts  --      5.1619                 5.5446                 5.8097
 IR Inten    --    142.0777                69.1584                27.4899

                     55                     56                     57
                      A                      A                      A
 Frequencies --   3057.0186              3068.3295              3088.8177
 Red. masses --      1.0357                 1.0610                 1.0894
 Frc consts  --      5.7026                 5.8853                 6.1236
 IR Inten    --     31.5976                13.7882                36.0594

                     58                     59                     60
                      A                      A                      A
 Frequencies --   3092.2123              3092.7621              3117.1024
 Red. masses --      1.0981                 1.0896                 1.1012
 Frc consts  --      6.1864                 6.1406                 6.3042
 IR Inten    --     44.7557                47.1326                10.9649

                     61                     62                     63
                      A                      A                      A
 Frequencies --   3124.8050              3147.2368              3558.6716
 Red. masses --      1.1039                 1.1028                 1.0773
 Frc consts  --      6.3506                 6.4356                 8.0385
 IR Inten    --     26.9605                26.4744                 8.2597

 - Thermochemistry -
 -------------------
 Temperature   298.150 Kelvin.  Pressure   1.00000 Atm.
 Atom     1 has atomic number  6 and mass  12.00000

 Molecular mass:   152.10620 amu.
 Principal axes and moments of inertia in atomic units:
                           1         2         3
     Eigenvalues --  1148.629331622.591502596.15431
           X            0.99682  -0.07910  -0.01002
           Y            0.07907   0.99686  -0.00389
           Z            0.01029   0.00308   0.99994
 This molecule is an asymmetric top.
 Rotational symmetry number  1.
 Warning -- assumption of classical behavior for rotation
           may cause significant error
 Rotational temperatures (Kelvin)      0.07541     0.05338     0.03336
 Rotational constants (GHZ):           1.57121     1.11226     0.69516
 Zero-point vibrational energy     520905.1 (Joules/Mol)
                                  124.49930 (Kcal/Mol)
 Warning -- explicit consideration of  13 degrees of freedom as
           vibrations may cause significant error
 Vibrational temperatures:     90.29   142.34   243.01   258.65   299.19
          (Kelvin)            367.11   418.56   426.44   511.63   624.97
                              703.47   808.80   835.32   900.33   944.43
                             1065.22  1097.02  1158.66  1266.24  1296.76
                             1357.76  1381.21  1449.25  1481.43  1508.41
                             1536.37  1565.92  1603.61  1642.86  1654.62
                             1709.66  1753.71  1797.15  1821.89  1851.88
                             1885.78  1961.57  1992.13  2007.15  2009.76
                             2058.80  2063.38  2135.07  2164.85  2170.53
                             2198.56  2217.43  2219.53  2255.98  2400.97
                             2455.16  4108.72  4261.29  4375.18  4398.37
                             4414.64  4444.12  4449.00  4449.79  4484.82
                             4495.90  4528.17  5120.13

 Zero-point correction=                           0.198402 (Hartree/Particle)
 Thermal correction to Energy=                    0.208210
 Thermal correction to Enthalpy=                  0.209154
 Thermal correction to Gibbs Free Energy=         0.163150
 Sum of electronic and zero-point Energies=           -492.765211
 Sum of electronic and thermal Energies=              -492.755403
 Sum of electronic and thermal Enthalpies=            -492.754459
 Sum of electronic and thermal Free Energies=         -492.800464

                     E (Thermal)             CV                S
                      KCal/Mol        Cal/Mol-Kelvin    Cal/Mol-Kelvin
 Total                  130.654             37.534             96.824
 Electronic               0.000              0.000              0.000
 Translational            0.889              2.981             40.968
 Rotational               0.889              2.981             29.960
 Vibrational            128.876             31.573             25.896
 Vibration     1          0.597              1.972              4.369
 Vibration     2          0.604              1.950              3.475
 Vibration     3          0.625              1.881              2.448
 Vibration     4          0.629              1.867              2.331
 Vibration     5          0.641              1.829              2.062
 Vibration     6          0.666              1.754              1.695
 Vibration     7          0.687              1.691              1.469
 Vibration     8          0.690              1.680              1.437
 Vibration     9          0.731              1.564              1.141
 Vibration    10          0.795              1.395              0.844
 Vibration    11          0.845              1.275              0.686
 Vibration    12          0.918              1.113              0.520
 Vibration    13          0.937              1.073              0.484

                           ! Non-Optimized Parameters !

 1\1\GINC-NODE102\Freq\RB3LYP\6-31G(d)\C7H12N4\VSC10255\08-Dec-2020\0\\
 #N Geom=AllCheck Guess=TCheck SCRF=Check GenChk RB3LYP/6-31G(d) Freq\\
 CID_59910375_JID_1406_neutraal\\0,1\C,1.0949689505,0.0472537859,0.2073
 921914\C,0.1023389944,-0.8663490689,0.9455432805\C,0.7939666361,-2.019
 2532295,1.6295271323\N,0.7179069584,-3.2000253011,1.130404263\C,1.4460
 786893,-4.2879795035,1.7823983292\C,1.7036397377,-4.1041538685,3.28167
 27423\N,2.2612774456,-2.7766152317,3.4798493706\C,1.5546776501,-1.7412
 739567,2.8545194214\N,1.6445835644,-0.6017001319,3.4552640736\N,2.4997

 Normal termination of Gaussian 16 at Tue Dec  8 19:58:26 2020.

 ----------------------------------------------------------------------
 # B3LYP/6-311++G(d,p) empiricaldispersion=gd3bj scf=xqc pop=npa geom=c
 heck
 ----------------------------------------------------------------------

 --------------------------------------
 CID_59910375_JID_1406_Energie_neutraal
 --------------------------------------
 Structure from the checkpoint file:  "JID_1406.chk"
 Charge =  0 Multiplicity = 1

 SCF Done:  E(RB3LYP) =  -493.098231222     A.U. after   15 cycles
 Normal termination of Gaussian 16 at Tue Dec  8 20:00:37 2020.

 ----------------------------------------------------------------------
 # B3LYP/6-311++G(d,p) empiricaldispersion=gd3bj scf=xqc pop=npa geom=c
 heck
 ----------------------------------------------------------------------

 ------------------------------------
 CID_59910375_JID_1406_Energie_kation
 ------------------------------------
 Structure from the checkpoint file:  "JID_1406.chk"
 Charge =  1 Multiplicity = 2

 SCF Done:  E(UB3LYP) =  -492.815297124     A.U. after   24 cycles
 Normal termination of Gaussian 16 at Tue Dec  8 20:05:45 2020.
 Gaussian 16:  ES64L-G16RevA.03 25-Dec-2016

 -----------------------------------
 CID_59910375_JID_1406_Energie_anion
 -----------------------------------
 Structure from the checkpoint file:  "JID_1406.chk"
 Charge = -1 Multiplicity = 2

                         Standard orientation:
 ---------------------------------------------------------------------
 Center     Atomic      Atomic             Coordinates (Angstroms)
 Number     Number       Type             X           Y           Z
 ---------------------------------------------------------------------
      1          6           0        2.962689   -0.973649   -0.608303
      2          6           0        2.344652   -0.258848    0.604933
      3          6           0        1.047965    0.429102    0.257515
      4          7           0        1.012859    1.706900    0.134505
      5          6           0       -0.244329    2.341728   -0.259764
      6          6           0       -1.516582    1.571440    0.108991
      7          7           0       -1.349842    0.196304   -0.331225
      8          6           0       -0.144315   -0.403848    0.054490
      9          7           0       -0.215909   -1.684263    0.206211
     10          7           0       -1.544264   -2.028498   -0.128993
     11          6           0       -2.364858   -0.806864   -0.021063
     12          1           0        2.294667   -1.756370   -0.978166
     13          1           0        3.916267   -1.436803   -0.332935
     14          1           0        3.151048   -0.263139   -1.420572
     15          1           0        2.163039   -0.989679    1.401125
     16          1           0        3.026487    0.507120    0.985046
     17          1           0       -0.277399    3.337051    0.196277
     18          1           0       -0.209213    2.492889   -1.347630
     19          1           0       -1.691506    1.617199    1.199539
     20          1           0       -2.385224    2.017524   -0.386830
     21          1           0       -1.849594   -2.796971    0.458874
     22          1           0       -3.177552   -0.810272   -0.753795
     23          1           0       -2.792264   -0.646014    0.994793
 ---------------------------------------------------------------------

 SCF Done:  E(UB3LYP) =  -493.090204527     A.U. after   33 cycles
 SCF Done:  E(UB3LYP) =  -493.090204526     a.u. after    1 cycles

 The electronic state is 2-A.
 Alpha  occ. eigenvalues --  -14.20852 -14.19657 -14.17643 -14.14041 -10.10798
 Alpha  occ. eigenvalues --  -10.07856 -10.07835 -10.06451 -10.05483 -10.03431
 Alpha  occ. eigenvalues --  -10.03307  -0.90019  -0.79731  -0.75649  -0.68627
 Alpha  occ. eigenvalues --   -0.64462  -0.61209  -0.54170  -0.51587  -0.48795
 Alpha  occ. eigenvalues --   -0.47111  -0.39870  -0.38215  -0.35355  -0.34074
 Alpha  occ. eigenvalues --   -0.33542  -0.31888  -0.30757  -0.29312  -0.28926
 Alpha  occ. eigenvalues --   -0.26273  -0.25872  -0.24789  -0.23018  -0.21805
 Alpha  occ. eigenvalues --   -0.21287  -0.17832  -0.15649  -0.13481  -0.10450
 Alpha  occ. eigenvalues --   -0.06781   0.05384
 Alpha virt. eigenvalues --    0.07492   0.08706   0.08955   0.09819   0.10596
 Alpha virt. eigenvalues --    0.11288   0.11824   0.12240   0.12826   0.13227
 Alpha virt. eigenvalues --    0.14444   0.15310   0.16536   0.17132   0.18251

  Beta  occ. eigenvalues --  -14.20833 -14.19605 -14.17358 -14.13609 -10.10766
  Beta  occ. eigenvalues --  -10.07811 -10.07800 -10.06464 -10.05282 -10.03447
  Beta  occ. eigenvalues --  -10.03279  -0.89820  -0.79384  -0.75164  -0.68364
  Beta  occ. eigenvalues --   -0.64307  -0.61088  -0.53972  -0.51447  -0.48454
  Beta  occ. eigenvalues --   -0.46929  -0.39725  -0.37967  -0.35182  -0.33899
  Beta  occ. eigenvalues --   -0.33349  -0.31785  -0.30645  -0.28941  -0.28729
  Beta  occ. eigenvalues --   -0.26104  -0.25633  -0.24589  -0.22526  -0.21653
  Beta  occ. eigenvalues --   -0.21146  -0.17160  -0.15169  -0.12351  -0.09966
  Beta  occ. eigenvalues --   -0.05934
  Beta virt. eigenvalues --    0.07999   0.08806   0.09049   0.10157   0.10718
  Beta virt. eigenvalues --    0.10985   0.11644   0.11980   0.12410   0.12892
  Beta virt. eigenvalues --    0.13402   0.14482   0.15096   0.16522   0.17105

 Mulliken charges and spin densities:
               1          2
     1  C   -0.145910  -0.398661
     2  C   -0.220726  -0.118910
     3  C   -0.327542   0.587898
     4  N   -0.099587   0.241625
     5  C   -0.451905   0.054900
     6  C    0.533470  -0.747261
     7  N   -0.126038   0.144502
     8  C   -0.146898  -0.152576
     9  N   -0.315553   0.235255
    10  N   -0.110416   0.066642
    11  C    0.844374  -1.108239
    12  H    0.141749   0.019743
    13  H   -0.087788   0.205727
    14  H    0.101355   0.015670
    15  H    0.047482   0.103528
    16  H    0.011396   0.142936
    17  H    0.106719   0.040942
    18  H   -0.015221   0.175468
    19  H    0.068410   0.013239
    20  H   -0.358689   0.524583
    21  H    0.181781   0.067444
    22  H   -0.419719   0.599499
    23  H   -0.210745   0.286048
 Sum of Mulliken charges =  -1.00000   1.00000

 Dipole moment (field-independent basis, Debye):
    X=              0.4458    Y=             -0.5080    Z=              1.3571  Tot=              1.5161
 Quadrupole moment (field-independent basis, Debye-Ang):
   XX=           -111.4473   YY=            -93.6027   ZZ=            -84.8275
   XY=              2.7896   XZ=             -6.1961   YZ=             -0.9477

 Summary of Natural Population Analysis:

                                       Natural Population
                Natural  -----------------------------------------------
    Atom  No    Charge         Core      Valence    Rydberg      Total
 -----------------------------------------------------------------------
      C    1   -0.28018      0.99966     2.27656    0.00397     3.28018
      C    2   -0.20433      0.99962     2.19583    0.00888     3.20433
      C    3    0.13633      0.99952     1.84867    0.01548     2.86367
      N    4   -0.17859      0.99966     2.66781    0.01112     3.67859
      C    5   -0.10543      0.99961     2.09260    0.01321     3.10543
      C    6   -0.08825      0.99962     2.07621    0.01242     3.08825
      N    7   -0.26385      0.99965     2.75108    0.01313     3.76385
      C    8    0.17534      0.99956     1.80676    0.01834     2.82466
      N    9   -0.12712      0.99966     2.61505    0.01241     3.62712
      N   10   -0.24992      0.99974     2.73593    0.01425     3.74992
      C   11    0.01279      0.99965     1.97399    0.01357     2.98721
      H   12    0.10402      0.00000     0.39443    0.00155     0.39598
      H   13    0.08957      0.00000     0.40899    0.00144     0.41043
      H   14    0.09319      0.00000     0.40548    0.00134     0.40681
      H   15    0.10147      0.00000     0.39680    0.00172     0.39853
      H   16    0.09896      0.00000     0.39881    0.00223     0.40104
      H   17    0.08883      0.00000     0.40973    0.00144     0.41117
      H   18    0.09595      0.00000     0.40239    0.00166     0.40405
      H   19    0.07796      0.00000     0.42005    0.00199     0.42204
      H   20    0.09610      0.00000     0.40166    0.00224     0.40390
      H   21    0.17395      0.00000     0.32375    0.00230     0.32605
      H   22    0.09051      0.00000     0.40691    0.00258     0.40949
      H   23    0.06271      0.00000     0.43503    0.00226     0.43729
 =======================================================================
   * Total *    0.00000     10.99595    29.84452    0.15953    41.00000

 Normal termination of Gaussian 16 at Tue Dec  8 20:13:08 2020.
