 Gaussian 16, Revision A.03,

 -----------------------------------------------------------
 # opt freq B3LYP/6-31G(d) empiricaldispersion=gd3bj scf=xqc
 -----------------------------------------------------------

 -------------------------------
 CID_129989309_JID_6612_neutraal
 -------------------------------
 Symbolic Z-matrix:
 Charge =  0 Multiplicity = 1

 SCF Done:  E(RB3LYP) =  -725.713757230     A.U. after   15 cycles
 SCF Done:  E(RB3LYP) =  -725.717980675     A.U. after   13 cycles
 SCF Done:  E(RB3LYP) =  -725.718357388     A.U. after   12 cycles
 SCF Done:  E(RB3LYP) =  -725.718720885     A.U. after   12 cycles
 SCF Done:  E(RB3LYP) =  -725.719183577     A.U. after   12 cycles
 SCF Done:  E(RB3LYP) =  -725.719344953     A.U. after   11 cycles
 SCF Done:  E(RB3LYP) =  -725.719422024     A.U. after   11 cycles
 SCF Done:  E(RB3LYP) =  -725.719464573     A.U. after   10 cycles
 SCF Done:  E(RB3LYP) =  -725.719496968     A.U. after   11 cycles
 SCF Done:  E(RB3LYP) =  -725.719500884     A.U. after   10 cycles
 SCF Done:  E(RB3LYP) =  -725.719503963     A.U. after   10 cycles
 SCF Done:  E(RB3LYP) =  -725.719504772     A.U. after    9 cycles
 SCF Done:  E(RB3LYP) =  -725.719504978     A.U. after    8 cycles
 SCF Done:  E(RB3LYP) =  -725.719505007     A.U. after    7 cycles
 Optimization completed.
    -- Stationary point found.
 Normal termination of Gaussian 16 at Thu Dec 10 22:15:32 2020.

 --------------------------------------------------------------------
 #N Geom=AllCheck Guess=TCheck SCRF=Check GenChk RB3LYP/6-31G(d) Freq
 --------------------------------------------------------------------

 Structure from the checkpoint file:  "JID_6612.chk"
 -------------------------------
 CID_129989309_JID_6612_neutraal
 -------------------------------
 Charge =  0 Multiplicity = 1

 SCF Done:  E(RB3LYP) =  -725.719505007     A.U. after    1 cycles

  Exact polarizability: 159.620  22.580 115.532  -4.595  10.890 127.360
 Approx polarizability: 213.514  39.678 187.010  -6.813  27.841 219.809

                      1                      2                      3
                      A                      A                      A
 Frequencies --     23.8777                44.0392                50.0759
 Red. masses --      5.8704                 6.0944                 5.6203
 Frc consts  --      0.0020                 0.0070                 0.0083
 IR Inten    --      0.7542                 0.9216                 0.7757

                      4                      5                      6
                      A                      A                      A
 Frequencies --     84.8603                96.5072               118.4018
 Red. masses --      5.6872                 4.2069                 3.1439
 Frc consts  --      0.0241                 0.0231                 0.0260
 IR Inten    --      0.9374                 1.7984                 0.5497

                      7                      8                      9
                      A                      A                      A
 Frequencies --    158.5036               203.1346               242.7674
 Red. masses --      2.4711                 3.9566                 3.5027
 Frc consts  --      0.0366                 0.0962                 0.1216
 IR Inten    --      0.0571                 0.1234                 0.4843

                     10                     11                     12
                      A                      A                      A
 Frequencies --    278.5350               299.2535               327.2570
 Red. masses --      3.0956                 4.8784                 5.0964
 Frc consts  --      0.1415                 0.2574                 0.3216
 IR Inten    --      1.6337                 0.3070                 5.2185

                     13                     14                     15
                      A                      A                      A
 Frequencies --    381.4552               417.9053               452.8560
 Red. masses --      4.7148                 3.0460                 7.1527
 Frc consts  --      0.4042                 0.3134                 0.8643
 IR Inten    --      6.0393                 0.2202                 5.4297

                     16                     17                     18
                      A                      A                      A
 Frequencies --    487.9405               571.6101               585.8418
 Red. masses --      4.1503                 2.3050                 2.8122
 Frc consts  --      0.5822                 0.4437                 0.5687
 IR Inten    --      3.8789                17.4208                45.0643

                     19                     20                     21
                      A                      A                      A
 Frequencies --    611.5517               634.2875               654.4229
 Red. masses --      3.2091                 6.3067                 2.1524
 Frc consts  --      0.7071                 1.4949                 0.5431
 IR Inten    --      5.4470                 0.0883                74.1020

                     22                     23                     24
                      A                      A                      A
 Frequencies --    676.7116               703.9639               716.5582
 Red. masses --      2.8014                 3.8906                 1.6310
 Frc consts  --      0.7558                 1.1360                 0.4934
 IR Inten    --     10.5419                 5.6654                28.6600

                     25                     26                     27
                      A                      A                      A
 Frequencies --    749.2160               793.1175               818.2651
 Red. masses --      3.3248                 2.3207                 2.5921
 Frc consts  --      1.0996                 0.8601                 1.0225
 IR Inten    --     35.2878                18.4938                 1.2988

                     28                     29                     30
                      A                      A                      A
 Frequencies --    837.4922               851.9491               864.8059
 Red. masses --      2.0577                 2.0218                 1.2509
 Frc consts  --      0.8504                 0.8646                 0.5512
 IR Inten    --     27.2489                39.1930                 1.3250

                     31                     32                     33
                      A                      A                      A
 Frequencies --    884.3406               909.9730               930.4321
 Red. masses --      1.9222                 2.5644                 1.8369
 Frc consts  --      0.8857                 1.2511                 0.9369
 IR Inten    --      8.8907                17.5452                 3.3480

                     34                     35                     36
                      A                      A                      A
 Frequencies --    936.9261               943.1564               973.3430
 Red. masses --      1.8382                 1.9257                 1.3442
 Frc consts  --      0.9507                 1.0093                 0.7503
 IR Inten    --     10.4093                 6.5950                 0.7742

                     37                     38                     39
                      A                      A                      A
 Frequencies --    996.4247              1009.1545              1023.3017
 Red. masses --      1.2445                 1.9613                 6.1896
 Frc consts  --      0.7280                 1.1768                 3.8187
 IR Inten    --      0.4310                 1.6322                 0.8870

                     40                     41                     42
                      A                      A                      A
 Frequencies --   1057.3599              1062.7152              1110.6928
 Red. masses --      2.3454                 1.9762                 1.5682
 Frc consts  --      1.5450                 1.3150                 1.1398
 IR Inten    --     10.4271                 3.3803                11.9840

                     43                     44                     45
                      A                      A                      A
 Frequencies --   1117.3759              1171.6691              1187.9405
 Red. masses --      1.8253                 1.8618                 2.0042
 Frc consts  --      1.3427                 1.5059                 1.6664
 IR Inten    --     12.3774                61.6380                84.3784

                     46                     47                     48
                      A                      A                      A
 Frequencies --   1194.2000              1196.7924              1205.0466
 Red. masses --      1.1024                 2.4772                 1.4575
 Frc consts  --      0.9263                 2.0905                 1.2470
 IR Inten    --      0.3493                65.0553                28.0664

                     49                     50                     51
                      A                      A                      A
 Frequencies --   1212.2604              1236.9640              1251.7829
 Red. masses --      1.1987                 1.8705                 2.3381
 Frc consts  --      1.0379                 1.6862                 2.1586
 IR Inten    --      9.4466                18.9704                 9.2053

                     52                     53                     54
                      A                      A                      A
 Frequencies --   1277.2666              1303.6636              1343.1745
 Red. masses --      1.1744                 1.4452                 1.6696
 Frc consts  --      1.1289                 1.4471                 1.7747
 IR Inten    --     12.0670                13.8720                 1.2061

                     55                     56                     57
                      A                      A                      A
 Frequencies --   1345.6104              1365.1379              1367.8816
 Red. masses --      1.7314                 2.3334                 1.3794
 Frc consts  --      1.8471                 2.5621                 1.5207
 IR Inten    --      1.2277                 0.6611                 0.8142

                     58                     59                     60
                      A                      A                      A
 Frequencies --   1372.1785              1387.1218              1403.1113
 Red. masses --      1.3135                 2.1326                 1.5800
 Frc consts  --      1.4571                 2.4177                 1.8328
 IR Inten    --     13.0875                12.5475                61.1649

                     61                     62                     63
                      A                      A                      A
 Frequencies --   1429.8074              1494.6867              1519.9951
 Red. masses --      3.1836                 2.2209                 1.0848
 Frc consts  --      3.8346                 2.9234                 1.4766
 IR Inten    --    296.9509                10.1191                 4.9345

                     64                     65                     66
                      A                      A                      A
 Frequencies --   1530.9599              1547.6195              1558.5981
 Red. masses --      1.0951                 2.2679                 1.1176
 Frc consts  --      1.5123                 3.2004                 1.5996
 IR Inten    --      2.7553                15.0965                 0.6549

                     67                     68                     69
                      A                      A                      A
 Frequencies --   1640.6963              1667.2258              1689.5206
 Red. masses --      5.6238                 5.7413                 9.1643
 Frc consts  --      8.9194                 9.4026                15.4126
 IR Inten    --      8.6084                10.8254               167.1320

                     70                     71                     72
                      A                      A                      A
 Frequencies --   1848.9477              3034.3591              3064.1564
 Red. masses --      9.9979                 1.0571                 1.1062
 Frc consts  --     20.1376                 5.7348                 6.1193
 IR Inten    --    232.0357                34.2143                22.6741

                     73                     74                     75
                      A                      A                      A
 Frequencies --   3079.1747              3084.0125              3128.7649
 Red. masses --      1.0670                 1.0628                 1.1022
 Frc consts  --      5.9608                 5.9560                 6.3570
 IR Inten    --     14.0620                32.7229                27.3406

                     76                     77                     78
                      A                      A                      A
 Frequencies --   3141.8703              3147.2766              3182.2517
 Red. masses --      1.1028                 1.0868                 1.0853
 Frc consts  --      6.4138                 6.3427                 6.4753
 IR Inten    --     23.7040                 8.7448                 2.8464

                     79                     80                     81
                      A                      A                      A
 Frequencies --   3189.5938              3199.5025              3210.4401
 Red. masses --      1.0881                 1.0923                 1.0964
 Frc consts  --      6.5220                 6.5882                 6.6581
 IR Inten    --      3.4565                28.5458                26.1494

                     82                     83                     84
                      A                      A                      A
 Frequencies --   3223.9610              3462.1333              3685.0259
 Red. masses --      1.0939                 1.0733                 1.0641
 Frc consts  --      6.6990                 7.5801                 8.5136
 IR Inten    --      6.0601                14.4961                53.2442

 - Thermochemistry -
 -------------------
 Temperature   298.150 Kelvin.  Pressure   1.00000 Atm.
 Atom     1 has atomic number  6 and mass  12.00000

 Molecular mass:   218.10553 amu.
 Principal axes and moments of inertia in atomic units:
                           1         2         3
     Eigenvalues --  2000.531394330.769134891.16778
           X            0.99980   0.01923  -0.00598
           Y           -0.01908   0.99953   0.02386
           Z            0.00643  -0.02374   0.99970
 This molecule is an asymmetric top.
 Rotational symmetry number  1.
 Warning -- assumption of classical behavior for rotation
           may cause significant error
 Rotational temperatures (Kelvin)      0.04330     0.02000     0.01771
 Rotational constants (GHZ):           0.90213     0.41673     0.36898
 Zero-point vibrational energy     653608.1 (Joules/Mol)
                                  156.21609 (Kcal/Mol)
 Warning -- explicit consideration of  19 degrees of freedom as
           vibrations may cause significant error
 Vibrational temperatures:     34.35    63.36    72.05   122.10   138.85
          (Kelvin)            170.35   228.05   292.27   349.29   400.75
                              430.56   470.85   548.83   601.27   651.56
                              702.04   822.42   842.90   879.89   912.60
                              941.57   973.64  1012.85  1030.97  1077.95
                             1141.12  1177.30  1204.96  1225.76  1244.26
                             1272.37  1309.25  1338.68  1348.03  1356.99
                             1400.42  1433.63  1451.95  1472.30  1521.30
                             1529.01  1598.04  1607.65  1685.77  1709.18
                             1718.19  1721.92  1733.79  1744.17  1779.72
                             1801.04  1837.70  1875.68  1932.53  1936.03
                             1964.13  1968.08  1974.26  1995.76  2018.76
                             2057.17  2150.52  2186.93  2202.71  2226.68
                             2242.48  2360.60  2398.77  2430.84  2660.22
                             4365.77  4408.64  4430.25  4437.21  4501.59
                             4520.45  4528.23  4578.55  4589.11  4603.37
                             4619.11  4638.56  4981.24  5301.93

 Zero-point correction=                           0.248946 (Hartree/Particle)
 Thermal correction to Energy=                    0.262917
 Thermal correction to Enthalpy=                  0.263861
 Thermal correction to Gibbs Free Energy=         0.206370
 Sum of electronic and zero-point Energies=           -725.470559
 Sum of electronic and thermal Energies=              -725.456588
 Sum of electronic and thermal Enthalpies=            -725.455644
 Sum of electronic and thermal Free Energies=         -725.513135

                     E (Thermal)             CV                S
                      KCal/Mol        Cal/Mol-Kelvin    Cal/Mol-Kelvin
 Total                  164.983             53.457            121.000
 Electronic               0.000              0.000              0.000
 Translational            0.889              2.981             42.042
 Rotational               0.889              2.981             32.116
 Vibrational            163.205             47.495             46.842
 Vibration     1          0.593              1.985              6.282
 Vibration     2          0.595              1.980              5.069
 Vibration     3          0.595              1.978              4.814
 Vibration     4          0.601              1.960              3.775
 Vibration     5          0.603              1.952              3.524
 Vibration     6          0.609              1.934              3.126
 Vibration     7          0.621              1.893              2.568
 Vibration     8          0.639              1.835              2.105
 Vibration     9          0.659              1.775              1.783
 Vibration    10          0.679              1.713              1.543
 Vibration    11          0.692              1.675              1.421
 Vibration    12          0.711              1.621              1.274
 Vibration    13          0.751              1.510              1.033
 Vibration    14          0.781              1.431              0.899
 Vibration    15          0.811              1.355              0.787
 Vibration    16          0.844              1.277              0.689
 Vibration    17          0.928              1.093              0.501
 Vibration    18          0.943              1.062              0.475
 Vibration    19          0.971              1.007              0.430

 Optimization completed.
    -- Stationary point found.
 Normal termination of Gaussian 16 at Thu Dec 10 22:26:17 2020.

 ----------------------------------------------------------------------
 # B3LYP/6-311++G(d,p) empiricaldispersion=gd3bj scf=xqc pop=npa geom=c
 heck
 ----------------------------------------------------------------------

 ---------------------------------------
 CID_129989309_JID_6612_Energie_neutraal
 ---------------------------------------
 Structure from the checkpoint file:  "JID_6612.chk"
 Charge =  0 Multiplicity = 1

 SCF Done:  E(RB3LYP) =  -725.929459875     A.U. after   16 cycles
 Normal termination of Gaussian 16 at Thu Dec 10 22:30:57 2020.

 ----------------------------------------------------------------------
 # B3LYP/6-311++G(d,p) empiricaldispersion=gd3bj scf=xqc pop=npa geom=c
 heck
 ----------------------------------------------------------------------

 -------------------------------------
 CID_129989309_JID_6612_Energie_kation
 -------------------------------------
 Structure from the checkpoint file:  "JID_6612.chk"
 Charge =  1 Multiplicity = 2

 SCF Done:  E(UB3LYP) =  -725.629924400     A.U. after   31 cycles
 Normal termination of Gaussian 16 at Thu Dec 10 22:43:26 2020.
 Gaussian 16:  ES64L-G16RevA.03 25-Dec-2016

 ----------------------------------------------------------------------
 # B3LYP/6-311++G(d,p) empiricaldispersion=gd3bj scf=xqc pop=npa geom=c
 heck
 ----------------------------------------------------------------------

 ------------------------------------
 CID_129989309_JID_6612_Energie_anion
 ------------------------------------
 Structure from the checkpoint file:  "JID_6612.chk"
 Charge = -1 Multiplicity = 2

                         Standard orientation:
 ---------------------------------------------------------------------
 Center     Atomic      Atomic             Coordinates (Angstroms)
 Number     Number       Type             X           Y           Z
 ---------------------------------------------------------------------
      1          6           0       -3.416438   -0.228014    0.376768
      2          6           0       -2.600632    0.756250    1.226780
      3          6           0       -1.177755    0.605605    0.656864
      4          7           0       -1.103524   -0.822246    0.357317
      5          6           0       -2.436127   -1.380444    0.088802
      6          6           0        0.023909   -1.425385   -0.188679
      7          7           0        0.058319   -2.531300   -0.841204
      8          6           0        1.320715   -0.715902    0.038558
      9          6           0        2.136374   -0.422323   -1.058866
     10          6           0        3.357825    0.223427   -0.874028
     11          6           0        3.780879    0.568946    0.410544
     12          6           0        2.979547    0.261735    1.511511
     13          6           0        1.753451   -0.374916    1.325801
     14          6           0       -0.980638    1.529532   -0.544168
     15          8           0       -0.750578    2.713290   -0.450319
     16          8           0       -1.134850    0.897093   -1.732371
     17          1           0       -4.324985   -0.570536    0.878858
     18          1           0       -3.713664    0.247845   -0.562944
     19          1           0       -2.587166    0.445290    2.276594
     20          1           0       -2.957814    1.787611    1.178138
     21          1           0       -0.427069    0.908898    1.386122
     22          1           0       -2.610970   -2.251860    0.732202
     23          1           0       -2.515661   -1.711663   -0.954353
     24          1           0       -0.875169   -2.932494   -0.956719
     25          1           0        1.799749   -0.710869   -2.048790
     26          1           0        3.981696    0.454804   -1.732804
     27          1           0        4.733194    1.071535    0.554134
     28          1           0        3.310860    0.514244    2.514794
     29          1           0        1.135156   -0.628930    2.182603
     30          1           0       -0.994960    1.576816   -2.418426
 ---------------------------------------------------------------------

 SCF Done:  E(UB3LYP) =  -725.922255669     A.U. after   33 cycles
 SCF Done:  E(UB3LYP) =  -725.922255669     a.u. after    1 cycles

 The electronic state is 2-A.
 Alpha  occ. eigenvalues --  -19.06867 -19.01023 -14.23017 -14.16464 -10.19703
 Alpha  occ. eigenvalues --  -10.13291 -10.11767 -10.10137 -10.07704 -10.07381
 Alpha  occ. eigenvalues --  -10.07339 -10.07254 -10.07160 -10.07024 -10.06981
 Alpha  occ. eigenvalues --  -10.06832  -1.00811  -0.91864  -0.86760  -0.77807
 Alpha  occ. eigenvalues --   -0.74915  -0.68365  -0.66168  -0.64419  -0.64364
 Alpha  occ. eigenvalues --   -0.56351  -0.53810  -0.50543  -0.49896  -0.48597
 Alpha  occ. eigenvalues --   -0.46036  -0.43682  -0.41037  -0.39846  -0.38680
 Alpha  occ. eigenvalues --   -0.36572  -0.35621  -0.35387  -0.34256  -0.33129
 Alpha  occ. eigenvalues --   -0.32040  -0.31833  -0.31186  -0.30474  -0.28895
 Alpha  occ. eigenvalues --   -0.27181  -0.26009  -0.25647  -0.24793  -0.24395
 Alpha  occ. eigenvalues --   -0.23997  -0.22404  -0.22229  -0.18600  -0.16336
 Alpha  occ. eigenvalues --   -0.15262  -0.14645  -0.12245   0.04282
 Alpha virt. eigenvalues --    0.06714   0.06805   0.07206   0.08266   0.08697
 Alpha virt. eigenvalues --    0.08913   0.08963   0.10001   0.10351   0.10560
 Alpha virt. eigenvalues --    0.11356   0.11742   0.12217   0.13324   0.13590

  Beta  occ. eigenvalues --  -19.06812 -19.00972 -14.23006 -14.16431 -10.19640
  Beta  occ. eigenvalues --  -10.13277 -10.11771 -10.10114 -10.07661 -10.07352
  Beta  occ. eigenvalues --  -10.07349 -10.07167 -10.07150 -10.06984 -10.06887
  Beta  occ. eigenvalues --  -10.06821  -1.00701  -0.91765  -0.86709  -0.77733
  Beta  occ. eigenvalues --   -0.74818  -0.68306  -0.66053  -0.64331  -0.64243
  Beta  occ. eigenvalues --   -0.56235  -0.53665  -0.50484  -0.49783  -0.48493
  Beta  occ. eigenvalues --   -0.45958  -0.43622  -0.40953  -0.39777  -0.38588
  Beta  occ. eigenvalues --   -0.36496  -0.35510  -0.35289  -0.34107  -0.33061
  Beta  occ. eigenvalues --   -0.32008  -0.31760  -0.31126  -0.30404  -0.28830
  Beta  occ. eigenvalues --   -0.26940  -0.25949  -0.25553  -0.24678  -0.24343
  Beta  occ. eigenvalues --   -0.23931  -0.22292  -0.22023  -0.18512  -0.16238
  Beta  occ. eigenvalues --   -0.15060  -0.14251  -0.12115
  Beta virt. eigenvalues --    0.06679   0.07326   0.07555   0.07891   0.08726
  Beta virt. eigenvalues --    0.08961   0.09087   0.09202   0.10452   0.10761
  Beta virt. eigenvalues --    0.10872   0.11576   0.12117   0.12331   0.13601

 Mulliken charges and spin densities:
               1          2
     1  C   -0.058354  -0.500513
     2  C    0.611877  -0.958277
     3  C   -0.691162   0.993273
     4  N    0.180133   0.014936
     5  C    0.588127  -0.773429
     6  C   -0.666653  -0.609024
     7  N   -0.260173  -0.015706
     8  C    1.026632   0.505704
     9  C   -0.530242   0.445699
    10  C   -0.265143  -0.121546
    11  C    0.067910  -0.344546
    12  C   -0.201453  -0.166068
    13  C   -0.159571   0.075370
    14  C    0.685721  -1.126240
    15  O   -0.288146   0.059964
    16  O   -0.215076   0.075371
    17  H   -0.544020   0.730484
    18  H    0.050766   0.095842
    19  H   -0.455913   0.640621
    20  H    0.070906   0.110467
    21  H   -0.089461   0.339102
    22  H   -0.149246   0.324723
    23  H    0.049230   0.103543
    24  H    0.147527   0.050228
    25  H    0.071623   0.122418
    26  H   -0.014580   0.166628
    27  H    0.104102   0.023652
    28  H   -0.051628   0.207345
    29  H   -0.013135   0.219096
    30  H   -0.000599   0.310882
 Sum of Mulliken charges =  -1.00000   1.00000

 Dipole moment (field-independent basis, Debye):
    X=              2.5708    Y=              0.8132    Z=             -1.7717  Tot=              3.2263
 Quadrupole moment (field-independent basis, Debye-Ang):
   XX=           -145.0299   YY=           -135.9048   ZZ=           -127.4504
   XY=              0.0250   XZ=             11.5178   YZ=             -0.2382

 Summary of Natural Population Analysis:

                                       Natural Population
                Natural  -----------------------------------------------
    Atom  No    Charge         Core      Valence    Rydberg      Total
 -----------------------------------------------------------------------
      C    1   -0.19540      0.99963     2.18770    0.00807     3.19540
      C    2   -0.18345      0.99962     2.17463    0.00920     3.18345
      C    3   -0.05158      0.99953     2.03770    0.01434     3.05158
      N    4   -0.26282      0.99964     2.75057    0.01261     3.76282
      C    5   -0.08535      0.99962     2.07410    0.01164     3.08535
      C    6    0.23776      0.99957     1.74451    0.01816     2.76224
      N    7   -0.35526      0.99972     2.84851    0.00704     3.85526
      C    8   -0.03181      0.99946     2.02072    0.01163     3.03181
      C    9   -0.08240      0.99952     2.07313    0.00975     3.08240
      C   10   -0.10366      0.99957     2.09483    0.00926     3.10366
      C   11   -0.08933      0.99957     2.08012    0.00964     3.08933
      C   12   -0.10611      0.99956     2.09738    0.00917     3.10611
      C   13   -0.09074      0.99952     2.08155    0.00966     3.09074
      C   14    0.41293      0.99968     1.56228    0.02511     2.58707
      O   15   -0.30492      0.99987     3.29889    0.00616     4.30492
      O   16   -0.34246      0.99987     3.33555    0.00703     4.34246
      H   17    0.10630      0.00000     0.39173    0.00197     0.39370
      H   18    0.09804      0.00000     0.40038    0.00158     0.40196
      H   19    0.10596      0.00000     0.39096    0.00308     0.39404
      H   20    0.10653      0.00000     0.39250    0.00097     0.39347
      H   21    0.12413      0.00000     0.37372    0.00215     0.37587
      H   22    0.09723      0.00000     0.40106    0.00172     0.40277
      H   23    0.09399      0.00000     0.40453    0.00148     0.40601
      H   24    0.16037      0.00000     0.33749    0.00214     0.33963
      H   25    0.10768      0.00000     0.39097    0.00135     0.39232
      H   26    0.09741      0.00000     0.40180    0.00079     0.40259
      H   27    0.09540      0.00000     0.40388    0.00073     0.40460
      H   28    0.09837      0.00000     0.40084    0.00079     0.40163
      H   29    0.10326      0.00000     0.39518    0.00156     0.39674
      H   30    0.23995      0.00000     0.25446    0.00559     0.26005
 =======================================================================
   * Total *   -0.00000     15.99396    41.80169    0.20435    58.00000

 Normal termination of Gaussian 16 at Thu Dec 10 22:57:54 2020.
