 Gaussian 16, Revision A.03,

 -----------------------------------------------------------
 # opt freq B3LYP/6-31G(d) empiricaldispersion=gd3bj scf=xqc
 -----------------------------------------------------------

 -------------------------------
 CID_150531289_JID_9276_neutraal
 -------------------------------
 Symbolic Z-matrix:
 Charge =  0 Multiplicity = 1

 SCF Done:  E(RB3LYP) =  -920.106404120     A.U. after   16 cycles
 SCF Done:  E(RB3LYP) =  -920.112249883     A.U. after   16 cycles
 SCF Done:  E(RB3LYP) =  -920.101407961     A.U. after   17 cycles
 SCF Done:  E(RB3LYP) =  -920.113207923     A.U. after   15 cycles
 SCF Done:  E(RB3LYP) =  -920.111193810     A.U. after   17 cycles
 SCF Done:  E(RB3LYP) =  -920.116909473     A.U. after   15 cycles
 SCF Done:  E(RB3LYP) =  -920.117232002     A.U. after   14 cycles
 SCF Done:  E(RB3LYP) =  -920.117499609     A.U. after   14 cycles
 SCF Done:  E(RB3LYP) =  -920.117556851     A.U. after   12 cycles
 SCF Done:  E(RB3LYP) =  -920.117576385     A.U. after   11 cycles
 SCF Done:  E(RB3LYP) =  -920.117579331     A.U. after    9 cycles
 SCF Done:  E(RB3LYP) =  -920.117581154     A.U. after    9 cycles
 SCF Done:  E(RB3LYP) =  -920.117581410     A.U. after    8 cycles
 Optimization completed.
    -- Stationary point found.
 Normal termination of Gaussian 16 at Mon Dec 14 18:51:19 2020.

 --------------------------------------------------------------------
 #N Geom=AllCheck Guess=TCheck SCRF=Check GenChk RB3LYP/6-31G(d) Freq
 --------------------------------------------------------------------

 Structure from the checkpoint file:  "JID_9276.chk"
 -------------------------------
 CID_150531289_JID_9276_neutraal
 -------------------------------
 Charge =  0 Multiplicity = 1

 SCF Done:  E(RB3LYP) =  -920.117581410     A.U. after    1 cycles

  Exact polarizability: 236.910 -12.376 213.335  -0.663   4.819  79.337
 Approx polarizability: 371.175 -15.502 402.925   4.428  10.860 129.476

                      1                      2                      3
                      A                      A                      A
 Frequencies --     35.5904                50.2324                69.7687
 Red. masses --      5.4282                 7.8956                 9.8850
 Frc consts  --      0.0041                 0.0117                 0.0283
 IR Inten    --      0.1953                 0.0895                 1.4004

                      4                      5                      6
                      A                      A                      A
 Frequencies --     82.9645               125.7407               148.3567
 Red. masses --      7.0460                 6.8829                 1.1332
 Frc consts  --      0.0286                 0.0641                 0.0147
 IR Inten    --      2.3957                 5.3145                 0.4139

                      7                      8                      9
                      A                      A                      A
 Frequencies --    154.1454               168.8283               183.6418
 Red. masses --      4.3755                 5.8380                 7.0484
 Frc consts  --      0.0613                 0.0980                 0.1401
 IR Inten    --      1.3586                 0.5026                 4.6537

                     10                     11                     12
                      A                      A                      A
 Frequencies --    221.9345               244.3128               261.0955
 Red. masses --      5.8172                 7.5193                 6.1086
 Frc consts  --      0.1688                 0.2644                 0.2454
 IR Inten    --      2.6921                 3.2126                 1.5397

                     13                     14                     15
                      A                      A                      A
 Frequencies --    282.3265               298.7910               342.9888
 Red. masses --      4.8892                 6.3918                 5.6925
 Frc consts  --      0.2296                 0.3362                 0.3946
 IR Inten    --      1.6586                 6.4806                 5.4068

                     16                     17                     18
                      A                      A                      A
 Frequencies --    377.8917               402.5878               424.3817
 Red. masses --      7.4945                 5.2062                 3.7220
 Frc consts  --      0.6306                 0.4972                 0.3949
 IR Inten    --      6.6349                 6.3193                 5.9117

                     19                     20                     21
                      A                      A                      A
 Frequencies --    458.5798               473.0902               508.7600
 Red. masses --      4.5734                 6.2358                 9.8687
 Frc consts  --      0.5667                 0.8223                 1.5050
 IR Inten    --      4.6518                 2.6310                 8.5192

                     22                     23                     24
                      A                      A                      A
 Frequencies --    515.9764               522.9698               564.6082
 Red. masses --      7.4193                 3.3302                 5.1152
 Frc consts  --      1.1638                 0.5366                 0.9608
 IR Inten    --     11.2687                 1.0256                20.5530

                     25                     26                     27
                      A                      A                      A
 Frequencies --    606.2739               609.0921               634.1979
 Red. masses --      4.0284                 6.1463                 2.8071
 Frc consts  --      0.8724                 1.3435                 0.6652
 IR Inten    --      8.1612                60.5627                19.8384

                     28                     29                     30
                      A                      A                      A
 Frequencies --    639.6640               673.9049               707.5338
 Red. masses --      1.7741                 1.7833                 2.2627
 Frc consts  --      0.4277                 0.4772                 0.6674
 IR Inten    --    152.9661                89.4855                94.5175

                     31                     32                     33
                      A                      A                      A
 Frequencies --    715.2497               740.9515               773.1570
 Red. masses --      2.8425                 4.2026                 5.0217
 Frc consts  --      0.8568                 1.3594                 1.7686
 IR Inten    --    191.1476                81.0537                19.3681

                     34                     35                     36
                      A                      A                      A
 Frequencies --    779.7061               812.0236               829.5620
 Red. masses --      5.6643                 6.5237                 3.3232
 Frc consts  --      2.0289                 2.5344                 1.3474
 IR Inten    --     26.1916                11.9821                24.7222

                     37                     38                     39
                      A                      A                      A
 Frequencies --    830.9733               892.8455               961.8102
 Red. masses --      1.4198                 4.7961                 2.3546
 Frc consts  --      0.5776                 2.2527                 1.2834
 IR Inten    --     31.1840                 0.3271                 2.4711

                     40                     41                     42
                      A                      A                      A
 Frequencies --    967.1917               975.2262               991.5982
 Red. masses --      2.7041                 1.3719                 1.8953
 Frc consts  --      1.4904                 0.7688                 1.0980
 IR Inten    --     64.2157                 0.2018                15.2814

                     43                     44                     45
                      A                      A                      A
 Frequencies --   1062.0165              1071.9276              1097.2967
 Red. masses --      3.7822                 1.5819                 3.3959
 Frc consts  --      2.5134                 1.0709                 2.4091
 IR Inten    --     17.0475                 2.6295                12.5950

                     46                     47                     48
                      A                      A                      A
 Frequencies --   1126.5884              1137.9022              1244.2844
 Red. masses --      1.7999                 4.6184                 4.0842
 Frc consts  --      1.3459                 3.5233                 3.7256
 IR Inten    --      3.0308                10.0270                17.2065

                     49                     50                     51
                      A                      A                      A
 Frequencies --   1260.9171              1278.8425              1295.4962
 Red. masses --      4.0013                 3.4171                 1.6097
 Frc consts  --      3.7482                 3.2926                 1.5917
 IR Inten    --     20.2031               142.0397                 8.6385

                     52                     53                     54
                      A                      A                      A
 Frequencies --   1335.4182              1360.7204              1393.0700
 Red. masses --      2.6059                 3.2995                 3.4356
 Frc consts  --      2.7381                 3.5994                 3.9282
 IR Inten    --     12.5601                19.5408                 8.5688

                     55                     56                     57
                      A                      A                      A
 Frequencies --   1395.4824              1427.2072              1437.7268
 Red. masses --      2.5194                 1.5422                 1.7577
 Frc consts  --      2.8906                 1.8508                 2.1406
 IR Inten    --      8.6083                71.0766                88.5618

                     58                     59                     60
                      A                      A                      A
 Frequencies --   1465.4328              1485.7747              1506.0547
 Red. masses --      2.3699                 3.1790                 1.2793
 Frc consts  --      2.9985                 4.1347                 1.7096
 IR Inten    --      5.7002                22.5569                19.9850

                     61                     62                     63
                      A                      A                      A
 Frequencies --   1516.3212              1520.8141              1530.7876
 Red. masses --      1.0445                 1.1671                 2.5140
 Frc consts  --      1.4149                 1.5904                 3.4709
 IR Inten    --      9.2821               110.9470                26.1386

                     64                     65                     66
                      A                      A                      A
 Frequencies --   1613.6307              1632.6466              1648.7990
 Red. masses --      5.2503                 5.3791                 6.2378
 Frc consts  --      8.0546                 8.4479                 9.9912
 IR Inten    --     22.3585                53.7380                88.4544

                     67                     68                     69
                      A                      A                      A
 Frequencies --   1666.4444              1753.7599              2226.4934
 Red. masses --      6.5148                 7.2539                13.9875
 Frc consts  --     10.6594                13.1451                40.8538
 IR Inten    --    123.3713               625.9741              1031.9311

                     70                     71                     72
                      A                      A                      A
 Frequencies --   3053.7576              3107.1588              3170.8370
 Red. masses --      1.0397                 1.1004                 1.0995
 Frc consts  --      5.7127                 6.2595                 6.5130
 IR Inten    --      6.7357                10.1781                 6.1914

                     73                     74                     75
                      A                      A                      A
 Frequencies --   3185.3044              3210.3788              3261.3554
 Red. masses --      1.0888                 1.0951                 1.0903
 Frc consts  --      6.5090                 6.6500                 6.8324
 IR Inten    --     16.0727                16.4619                 0.6259

                     76                     77                     78
                      A                      A                      A
 Frequencies --   3553.9814              3570.6127              3583.5802
 Red. masses --      1.0745                 1.0687                 1.0769
 Frc consts  --      7.9960                 8.0277                 8.1485
 IR Inten    --     18.4008               179.4263                39.5501

 - Thermochemistry -
 -------------------
 Temperature   298.150 Kelvin.  Pressure   1.00000 Atm.
 Atom     1 has atomic number  6 and mass  12.00000

 Molecular mass:   259.08177 amu.
 Principal axes and moments of inertia in atomic units:
                           1         2         3
     Eigenvalues --  3668.714446117.620049052.88476
           X            0.99967   0.02557  -0.00352
           Y           -0.02551   0.99957   0.01462
           Z            0.00390  -0.01453   0.99989
 This molecule is an asymmetric top.
 Rotational symmetry number  1.
 Warning -- assumption of classical behavior for rotation
           may cause significant error
 Rotational temperatures (Kelvin)      0.02361     0.01416     0.00957
 Rotational constants (GHZ):           0.49193     0.29501     0.19936
 Zero-point vibrational energy     533829.6 (Joules/Mol)
                                  127.58835 (Kcal/Mol)
 Warning -- explicit consideration of  26 degrees of freedom as
           vibrations may cause significant error
 Vibrational temperatures:     51.21    72.27   100.38   119.37   180.91
          (Kelvin)            213.45   221.78   242.91   264.22   319.31
                              351.51   375.66   406.20   429.89   493.48
                              543.70   579.23   610.59   659.79   680.67
                              731.99   742.37   752.44   812.35   872.29
                              876.35   912.47   920.33   969.60  1017.98
                             1029.08  1066.06  1112.40  1121.82  1168.32
                             1193.55  1195.59  1284.61  1383.83  1391.57
                             1403.13  1426.69  1528.00  1542.26  1578.77
                             1620.91  1637.19  1790.25  1814.18  1839.97
                             1863.93  1921.37  1957.77  2004.32  2007.79
                             2053.43  2068.57  2108.43  2137.70  2166.88
                             2181.65  2188.11  2202.46  2321.65  2349.01
                             2372.25  2397.64  2523.27  3203.43  4393.68
                             4470.51  4562.13  4582.94  4619.02  4692.36
                             5113.39  5137.32  5155.97

 Zero-point correction=                           0.203325 (Hartree/Particle)
 Thermal correction to Energy=                    0.219457
 Thermal correction to Enthalpy=                  0.220401
 Thermal correction to Gibbs Free Energy=         0.159155
 Sum of electronic and zero-point Energies=           -919.914256
 Sum of electronic and thermal Energies=              -919.898124
 Sum of electronic and thermal Enthalpies=            -919.897180
 Sum of electronic and thermal Free Energies=         -919.958427

                     E (Thermal)             CV                S
                      KCal/Mol        Cal/Mol-Kelvin    Cal/Mol-Kelvin
 Total                  137.711             61.347            128.904
 Electronic               0.000              0.000              0.000
 Translational            0.889              2.981             42.556
 Rotational               0.889              2.981             33.674
 Vibrational            135.934             55.385             52.675
 Vibration     1          0.594              1.982              5.491
 Vibration     2          0.595              1.978              4.808
 Vibration     3          0.598              1.969              4.160
 Vibration     4          0.600              1.961              3.819
 Vibration     5          0.611              1.927              3.010
 Vibration     6          0.618              1.904              2.693
 Vibration     7          0.620              1.898              2.620
 Vibration     8          0.625              1.881              2.448
 Vibration     9          0.631              1.862              2.291
 Vibration    10          0.648              1.808              1.943
 Vibration    11          0.660              1.772              1.771
 Vibration    12          0.669              1.744              1.654
 Vibration    13          0.681              1.706              1.520
 Vibration    14          0.692              1.676              1.424
 Vibration    15          0.722              1.590              1.198
 Vibration    16          0.748              1.517              1.048
 Vibration    17          0.768              1.465              0.953
 Vibration    18          0.786              1.417              0.877
 Vibration    19          0.817              1.342              0.770
 Vibration    20          0.830              1.310              0.729
 Vibration    21          0.864              1.231              0.637
 Vibration    22          0.871              1.215              0.619
 Vibration    23          0.878              1.199              0.603
 Vibration    24          0.920              1.108              0.515
 Vibration    25          0.965              1.019              0.439
 Vibration    26          0.968              1.013              0.434

                           ! Non-Optimized Parameters !
 Normal termination of Gaussian 16 at Mon Dec 14 19:04:36 2020.

 ----------------------------------------------------------------------
 # B3LYP/6-311++G(d,p) empiricaldispersion=gd3bj scf=xqc pop=npa geom=c
 heck
 ----------------------------------------------------------------------

 ---------------------------------------
 CID_150531289_JID_9276_Energie_neutraal
 ---------------------------------------
 Structure from the checkpoint file:  "JID_9276.chk"
 Charge =  0 Multiplicity = 1

 SCF Done:  E(RB3LYP) =  -920.376479564     A.U. after   18 cycles
 Normal termination of Gaussian 16 at Mon Dec 14 19:10:42 2020.

 ----------------------------------------------------------------------
 # B3LYP/6-311++G(d,p) empiricaldispersion=gd3bj scf=xqc pop=npa geom=c
 heck
 ----------------------------------------------------------------------

 -------------------------------------
 CID_150531289_JID_9276_Energie_kation
 -------------------------------------
 Structure from the checkpoint file:  "JID_9276.chk"
 Charge =  1 Multiplicity = 2

 SCF Done:  E(UB3LYP) =  -920.089246751     A.U. after   26 cycles
 Normal termination of Gaussian 16 at Mon Dec 14 19:23:29 2020.
 Gaussian 16:  ES64L-G16RevA.03 25-Dec-2016

 ----------------------------------------------------------------------
 # B3LYP/6-311++G(d,p) empiricaldispersion=gd3bj scf=xqc pop=npa geom=c
 heck
 ----------------------------------------------------------------------

 ------------------------------------
 CID_150531289_JID_9276_Energie_anion
 ------------------------------------
 Structure from the checkpoint file:  "JID_9276.chk"
 Charge = -1 Multiplicity = 2

                         Standard orientation:
 ---------------------------------------------------------------------
 Center     Atomic      Atomic             Coordinates (Angstroms)
 Number     Number       Type             X           Y           Z
 ---------------------------------------------------------------------
      1          6           0        1.874439    2.723192    1.041560
      2          6           0        2.424565    1.440305    0.475578
      3          7           0        3.739104    1.389264    0.272988
      4          6           0        4.264659    0.257919   -0.240132
      5          6           0        3.533160   -0.866444   -0.578129
      6          6           0        2.148331   -0.821131   -0.364762
      7          6           0        1.568056    0.347428    0.172463
      8          6           0        0.152744    0.366813    0.358963
      9          6           0       -0.659527   -0.688988    0.043689
     10          6           0       -0.057170   -1.937392   -0.456632
     11          8           0       -0.633834   -2.996324   -0.711198
     12          7           0        1.322402   -1.876838   -0.650189
     13          6           0       -2.127350   -0.568673    0.204909
     14          7           0       -2.867279    0.493471    0.068359
     15          7           0       -2.217705    1.608115   -0.493071
     16          7           0       -2.991622    2.575080   -0.634253
     17          7           0       -3.555119    3.550854   -0.822179
     18          7           0       -2.844481   -1.725157    0.455573
     19          8           0       -2.265022   -2.632972    1.369731
     20          1           0        1.386597    2.558373    2.009756
     21          1           0        1.129641    3.169376    0.372221
     22          1           0        2.695069    3.428651    1.178121
     23          1           0        5.342559    0.265971   -0.385617
     24          1           0        4.011416   -1.749655   -0.989999
     25          1           0       -0.299182    1.265784    0.754375
     26          1           0        1.718474   -2.740282   -1.005528
     27          1           0       -3.806683   -1.539548    0.723491
     28          1           0       -1.815570   -3.246001    0.749259
 ---------------------------------------------------------------------

 SCF Done:  E(UB3LYP) =  -920.426417581     A.U. after   25 cycles

 The electronic state is 2-A.
 Alpha  occ. eigenvalues --  -19.03541 -18.97259 -14.36696 -14.27478 -14.27392
 Alpha  occ. eigenvalues --  -14.25163 -14.24179 -14.20854 -14.18308 -10.15857
 Alpha  occ. eigenvalues --  -10.12353 -10.11290 -10.08825 -10.07923 -10.06095
 Alpha  occ. eigenvalues --  -10.06059 -10.05478 -10.05057 -10.04287  -1.03341
 Alpha  occ. eigenvalues --   -0.96362  -0.92686  -0.90037  -0.84495  -0.81535
 Alpha  occ. eigenvalues --   -0.79856  -0.70204  -0.69735  -0.67594  -0.65153
 Alpha  occ. eigenvalues --   -0.59229  -0.55201  -0.52408  -0.51330  -0.50319
 Alpha  occ. eigenvalues --   -0.46383  -0.42867  -0.41210  -0.40521  -0.40221
 Alpha  occ. eigenvalues --   -0.39731  -0.38523  -0.36624  -0.35048  -0.34269
 Alpha  occ. eigenvalues --   -0.33630  -0.33552  -0.32438  -0.32213  -0.31490
 Alpha  occ. eigenvalues --   -0.29570  -0.28119  -0.27591  -0.27187  -0.26617
 Alpha  occ. eigenvalues --   -0.25881  -0.23731  -0.22232  -0.20298  -0.19455
 Alpha  occ. eigenvalues --   -0.17156  -0.15635  -0.14515  -0.14011  -0.13489
 Alpha  occ. eigenvalues --   -0.12324  -0.09261   0.00488
 Alpha virt. eigenvalues --    0.06070   0.07721   0.08572   0.09079   0.09511
 Alpha virt. eigenvalues --    0.10157   0.10289   0.11302   0.11829   0.12252
 Alpha virt. eigenvalues --    0.12343   0.12925   0.13887   0.14316   0.14749

  Beta  occ. eigenvalues --  -19.03535 -18.97214 -14.36660 -14.27427 -14.27422
  Beta  occ. eigenvalues --  -14.25140 -14.24051 -14.20699 -14.18444 -10.15825
  Beta  occ. eigenvalues --  -10.12280 -10.11174 -10.08522 -10.07640 -10.06189
  Beta  occ. eigenvalues --  -10.06068 -10.05499 -10.04893 -10.03802  -1.03272
  Beta  occ. eigenvalues --   -0.96313  -0.92567  -0.89945  -0.84283  -0.81366
  Beta  occ. eigenvalues --   -0.79693  -0.70056  -0.69197  -0.67368  -0.64732
  Beta  occ. eigenvalues --   -0.59127  -0.54723  -0.51952  -0.51201  -0.50083
  Beta  occ. eigenvalues --   -0.46197  -0.42721  -0.41025  -0.40348  -0.40025
  Beta  occ. eigenvalues --   -0.39669  -0.38321  -0.36459  -0.34934  -0.34112
  Beta  occ. eigenvalues --   -0.33440  -0.33048  -0.32306  -0.31977  -0.31101
  Beta  occ. eigenvalues --   -0.29324  -0.27925  -0.27325  -0.26924  -0.26338
  Beta  occ. eigenvalues --   -0.25533  -0.23535  -0.21742  -0.20021  -0.18013
  Beta  occ. eigenvalues --   -0.16822  -0.15480  -0.14447  -0.14007  -0.12747
  Beta  occ. eigenvalues --   -0.11431  -0.08563
  Beta virt. eigenvalues --    0.05987   0.06446   0.07717   0.09067   0.09127
  Beta virt. eigenvalues --    0.09591   0.10204   0.10725   0.11829   0.12078
  Beta virt. eigenvalues --    0.12376   0.12678   0.13085   0.14055   0.14716

 Mulliken charges and spin densities:
               1          2
     1  C   -0.739897  -0.018905
     2  C   -1.073116   0.187136
     3  N   -0.013627  -0.077260
     4  C   -0.173579   0.211276
     5  C   -0.565279  -0.023375
     6  C   -1.230658   0.086076
     7  C    2.459495  -0.058550
     8  C    0.285454   0.408089
     9  C    0.215703   0.103814
    10  C   -0.196029  -0.004679
    11  O   -0.410000   0.018704
    12  N   -0.141363   0.050555
    13  C   -0.537637   0.018568
    14  N   -0.251820   0.074719
    15  N   -0.588575  -0.026027
    16  N    0.832535   0.015786
    17  N   -0.114947   0.031708
    18  N   -0.303719   0.002626
    19  O   -0.149327   0.011627
    20  H    0.135866   0.018747
    21  H    0.142357   0.012605
    22  H    0.161404   0.000804
    23  H    0.150221  -0.015837
    24  H    0.105110  -0.000365
    25  H    0.158252  -0.024275
    26  H    0.294455  -0.003106
    27  H    0.299473  -0.000543
    28  H    0.249248   0.000083
 Sum of Mulliken charges =  -1.00000   1.00000

 Dipole moment (field-independent basis, Debye):
    X=              1.8931    Y=             -1.4484    Z=             -0.0523  Tot=              2.3842
 Quadrupole moment (field-independent basis, Debye-Ang):
   XX=           -156.0839   YY=           -141.2367   ZZ=           -119.9506
   XY=             -5.6449   XZ=             -5.3527   YZ=              3.2229

 Summary of Natural Population Analysis:

                                       Natural Population
                Natural  -----------------------------------------------
    Atom  No    Charge         Core      Valence    Rydberg      Total
 -----------------------------------------------------------------------
      C    1   -0.30598      0.99964     2.30182    0.00452     3.30598
      C    2    0.18999      0.99954     1.79799    0.01248     2.81001
      N    3   -0.28312      0.99969     2.77168    0.01175     3.78312
      C    4    0.08528      0.99960     1.90074    0.01438     2.91472
      C    5   -0.16072      0.99953     2.15329    0.00790     3.16072
      C    6    0.13705      0.99948     1.85394    0.00953     2.86295
      C    7   -0.09514      0.99945     2.08595    0.00974     3.09514
      C    8    0.05721      0.99952     1.93604    0.00723     2.94279
      C    9   -0.08531      0.99942     2.07373    0.01215     3.08531
      C   10    0.34086      0.99962     1.63915    0.02037     2.65914
      O   11   -0.35275      0.99987     3.34616    0.00672     4.35275
      N   12   -0.27199      0.99963     2.76286    0.00949     3.77199
      C   13    0.22711      0.99956     1.75395    0.01937     2.77289
      N   14   -0.19097      0.99961     2.67563    0.01573     3.69097
      N   15   -0.10617      0.99969     2.58889    0.01759     3.60617
      N   16    0.11595      0.99972     2.36843    0.01591     3.38405
      N   17   -0.05900      0.99982     2.54544    0.01375     3.55900
      N   18   -0.15290      0.99962     2.64044    0.01283     3.65290
      O   19   -0.29801      0.99990     3.29051    0.00760     4.29801
      H   20    0.10448      0.00000     0.39468    0.00084     0.39552
      H   21    0.10638      0.00000     0.39273    0.00089     0.39362
      H   22    0.10569      0.00000     0.39327    0.00105     0.39431
      H   23    0.07847      0.00000     0.42026    0.00127     0.42153
      H   24    0.09592      0.00000     0.40293    0.00115     0.40408
      H   25    0.10255      0.00000     0.39636    0.00109     0.39745
      H   26    0.19215      0.00000     0.30597    0.00188     0.30785
      H   27    0.17710      0.00000     0.32078    0.00212     0.32290
      H   28    0.24589      0.00000     0.25109    0.00302     0.25411
 =======================================================================
   * Total *    0.00000     18.99293    47.76472    0.24236    67.00000

 Normal termination of Gaussian 16 at Mon Dec 14 19:35:58 2020.
