 Gaussian 16, Revision A.03,

 -----------------------------------------------------------
 # opt freq B3LYP/6-31G(d) empiricaldispersion=gd3bj scf=xqc
 -----------------------------------------------------------

 -------------------------------
 CID_116951202_JID_9455_neutraal
 -------------------------------
 Symbolic Z-matrix:
 Charge =  0 Multiplicity = 1

 SCF Done:  E(RB3LYP) =  -859.700951436     A.U. after   15 cycles
 SCF Done:  E(RB3LYP) =  -859.713384343     A.U. after   12 cycles
 SCF Done:  E(RB3LYP) =  -859.714499793     A.U. after   12 cycles
 SCF Done:  E(RB3LYP) =  -859.714627135     A.U. after   12 cycles
 SCF Done:  E(RB3LYP) =  -859.715441021     A.U. after   12 cycles
 SCF Done:  E(RB3LYP) =  -859.715734792     A.U. after   12 cycles
 SCF Done:  E(RB3LYP) =  -859.715824736     A.U. after   11 cycles
 SCF Done:  E(RB3LYP) =  -859.715921665     A.U. after   12 cycles
 SCF Done:  E(RB3LYP) =  -859.716010504     A.U. after   12 cycles
 SCF Done:  E(RB3LYP) =  -859.715845092     A.U. after   14 cycles
 SCF Done:  E(RB3LYP) =  -859.726454676     A.U. after   10 cycles
 SCF Done:  E(RB3LYP) =  -859.726459652     A.U. after    9 cycles
 SCF Done:  E(RB3LYP) =  -859.726460420     A.U. after    8 cycles
 SCF Done:  E(RB3LYP) =  -859.726460585     A.U. after    7 cycles
 SCF Done:  E(RB3LYP) =  -859.726460619     A.U. after    6 cycles
 Optimization completed.
    -- Stationary point found.
 Normal termination of Gaussian 16 at Sun Dec 13 13:06:04 2020.

 --------------------------------------------------------------------
 #N Geom=AllCheck Guess=TCheck SCRF=Check GenChk RB3LYP/6-31G(d) Freq
 --------------------------------------------------------------------

 Structure from the checkpoint file:  "JID_9455.chk"
 -------------------------------
 CID_116951202_JID_9455_neutraal
 -------------------------------
 Charge =  0 Multiplicity = 1

 SCF Done:  E(RB3LYP) =  -859.726460619     A.U. after    1 cycles

  Exact polarizability: 227.456 -19.072 129.612  -5.687   2.870 152.725
 Approx polarizability: 303.190 -42.199 181.472 -14.396   7.874 267.357

                      1                      2                      3
                      A                      A                      A
 Frequencies --     35.3466                45.4818                60.8645
 Red. masses --      5.8024                 4.2220                 3.2406
 Frc consts  --      0.0043                 0.0051                 0.0071
 IR Inten    --      0.9421                 1.0346                 0.1500

                      4                      5                      6
                      A                      A                      A
 Frequencies --     99.2245               104.3599               121.5277
 Red. masses --      3.4748                 3.1681                 6.8616
 Frc consts  --      0.0202                 0.0203                 0.0597
 IR Inten    --      0.9889                 1.1831                 0.0490

                      7                      8                      9
                      A                      A                      A
 Frequencies --    167.2442               188.8177               207.1570
 Red. masses --      2.6935                 6.1807                 1.4729
 Frc consts  --      0.0444                 0.1298                 0.0372
 IR Inten    --      0.0037                 0.1022                 0.0863

                     10                     11                     12
                      A                      A                      A
 Frequencies --    226.1232               248.2082               278.4289
 Red. masses --      2.4914                 2.2088                 3.4640
 Frc consts  --      0.0751                 0.0802                 0.1582
 IR Inten    --      0.1891                 0.6736                 0.2585

                     13                     14                     15
                      A                      A                      A
 Frequencies --    284.3959               304.8651               339.0536
 Red. masses --      3.8237                 3.8802                 4.9184
 Frc consts  --      0.1822                 0.2125                 0.3331
 IR Inten    --      1.1489                 5.4186                 7.7182

                     16                     17                     18
                      A                      A                      A
 Frequencies --    349.7225               368.4145               424.1004
 Red. masses --      2.4746                 2.8547                 1.9382
 Frc consts  --      0.1783                 0.2283                 0.2054
 IR Inten    --      8.1001                10.8990                32.6306

                     19                     20                     21
                      A                      A                      A
 Frequencies --    444.4966               453.8778               457.4605
 Red. masses --      3.4922                 3.2511                 1.7809
 Frc consts  --      0.4065                 0.3946                 0.2196
 IR Inten    --      0.8013                 1.2405                71.9160

                     22                     23                     24
                      A                      A                      A
 Frequencies --    490.6870               536.3297               552.1838
 Red. masses --      3.4171                 3.6777                 2.0408
 Frc consts  --      0.4847                 0.6233                 0.3666
 IR Inten    --      1.5024                15.4263                10.0939

                     25                     26                     27
                      A                      A                      A
 Frequencies --    588.9670               624.0606               641.1347
 Red. masses --      4.8390                 4.7416                 5.0241
 Frc consts  --      0.9890                 1.0880                 1.2168
 IR Inten    --     13.0173                10.9438                 5.4505

                     28                     29                     30
                      A                      A                      A
 Frequencies --    706.4856               719.4504               735.9460
 Red. masses --      3.6385                 8.0012                 4.7227
 Frc consts  --      1.0700                 2.4401                 1.5071
 IR Inten    --      3.9866                14.4848                 1.3143

                     31                     32                     33
                      A                      A                      A
 Frequencies --    745.1230               786.9143               804.8363
 Red. masses --     10.6772                 2.2627                 2.0321
 Frc consts  --      3.4927                 0.8255                 0.7756
 IR Inten    --     13.0875                43.6557                14.7614

                     34                     35                     36
                      A                      A                      A
 Frequencies --    818.9561               828.7832               855.8017
 Red. masses --      1.8554                 1.7739                 1.7978
 Frc consts  --      0.7332                 0.7179                 0.7758
 IR Inten    --      5.5708                24.7375                21.5088

                     37                     38                     39
                      A                      A                      A
 Frequencies --    870.4346               886.4195               901.6767
 Red. masses --      2.2241                 4.0378                 1.5949
 Frc consts  --      0.9929                 1.8693                 0.7640
 IR Inten    --      1.6622                 2.7744                36.2483

                     40                     41                     42
                      A                      A                      A
 Frequencies --    922.8794               932.5742               934.8627
 Red. masses --      1.2967                 1.8840                 1.8966
 Frc consts  --      0.6507                 0.9654                 0.9766
 IR Inten    --     10.2820                19.5775                24.3387

                     43                     44                     45
                      A                      A                      A
 Frequencies --    940.6560               948.1513               974.9054
 Red. masses --      2.9197                 1.6499                 2.5652
 Frc consts  --      1.5221                 0.8739                 1.4365
 IR Inten    --     67.6998                 5.0044                24.0601

                     46                     47                     48
                      A                      A                      A
 Frequencies --    996.5656              1020.7350              1075.5742
 Red. masses --      1.9772                 2.0015                 2.1746
 Frc consts  --      1.1570                 1.2286                 1.4822
 IR Inten    --     22.4989                 1.8811                 9.5010

                     49                     50                     51
                      A                      A                      A
 Frequencies --   1076.0327              1108.9984              1111.4315
 Red. masses --      1.7482                 3.2612                 1.8756
 Frc consts  --      1.1926                 2.3631                 1.3650
 IR Inten    --      2.6416                15.5042                12.9588

                     52                     53                     54
                      A                      A                      A
 Frequencies --   1138.5537              1148.5911              1152.0888
 Red. masses --      2.2880                 2.0090                 2.3270
 Frc consts  --      1.7474                 1.5616                 1.8198
 IR Inten    --     24.8903                 1.2970                12.4223

                     55                     56                     57
                      A                      A                      A
 Frequencies --   1165.6418              1177.8375              1185.8200
 Red. masses --      1.4038                 1.8013                 1.5798
 Frc consts  --      1.1238                 1.4723                 1.3088
 IR Inten    --     13.8471                49.3400                 8.4112

                     58                     59                     60
                      A                      A                      A
 Frequencies --   1190.9046              1222.0219              1243.8417
 Red. masses --      1.6685                 1.7391                 1.5636
 Frc consts  --      1.3943                 1.5302                 1.4253
 IR Inten    --     16.8493                 6.3880                 9.4847

                     61                     62                     63
                      A                      A                      A
 Frequencies --   1276.3755              1288.9205              1298.6069
 Red. masses --      1.4524                 1.8343                 1.3143
 Frc consts  --      1.3941                 1.7954                 1.3058
 IR Inten    --     15.9835                21.9408                 2.7639

                     64                     65                     66
                      A                      A                      A
 Frequencies --   1307.8436              1309.4897              1327.8375
 Red. masses --      2.8836                 1.5147                 2.4676
 Frc consts  --      2.9060                 1.5303                 2.5634
 IR Inten    --     29.4754                25.0251                82.1870

                     67                     68                     69
                      A                      A                      A
 Frequencies --   1336.9811              1360.3615              1368.2554
 Red. masses --      1.5830                 1.3357                 1.3505
 Frc consts  --      1.6672                 1.4564                 1.4896
 IR Inten    --     26.6584                12.3289                29.6552

                     70                     71                     72
                      A                      A                      A
 Frequencies --   1385.0782              1392.4246              1402.3069
 Red. masses --      1.3817                 1.4617                 1.4632
 Frc consts  --      1.5617                 1.6697                 1.6952
 IR Inten    --     31.7149                 4.9198                 5.1803

                     73                     74                     75
                      A                      A                      A
 Frequencies --   1411.9842              1443.1496              1450.9277
 Red. masses --      1.5236                 1.5165                 3.1593
 Frc consts  --      1.7897                 1.8609                 3.9186
 IR Inten    --     24.2422                16.6642                71.9964

                     76                     77                     78
                      A                      A                      A
 Frequencies --   1482.4892              1497.1051              1504.0489
 Red. masses --      1.3165                 2.1118                 1.3130
 Frc consts  --      1.7047                 2.7888                 1.7500
 IR Inten    --      6.3136                20.7710                12.4594

                     79                     80                     81
                      A                      A                      A
 Frequencies --   1509.7532              1515.2611              1517.0128
 Red. masses --      1.1982                 1.2328                 1.0904
 Frc consts  --      1.6091                 1.6678                 1.4785
 IR Inten    --     55.3623                29.5649                 4.7880

                     82                     83                     84
                      A                      A                      A
 Frequencies --   1523.0576              1526.7680              1537.0381
 Red. masses --      1.1381                 1.1226                 1.1084
 Frc consts  --      1.5555                 1.5417                 1.5428
 IR Inten    --     16.4512                 8.6810                 1.1890

                     85                     86                     87
                      A                      A                      A
 Frequencies --   1541.0338              1549.0478              1673.7785
 Red. masses --      2.5219                 1.1160                 6.9749
 Frc consts  --      3.5285                 1.5778                11.5128
 IR Inten    --     64.4690                20.1831                14.6773

                     88                     89                     90
                      A                      A                      A
 Frequencies --   1686.5609              1915.2813              2866.8960
 Red. masses --      7.8973                11.6768                 1.0801
 Frc consts  --     13.2353                25.2371                 5.2302
 IR Inten    --      3.5045               966.9737                68.3102

                     91                     92                     93
                      A                      A                      A
 Frequencies --   2928.0426              2933.0024              2950.9034
 Red. masses --      1.0797                 1.0757                 1.0615
 Frc consts  --      5.4540                 5.4521                 5.4461
 IR Inten    --     22.6643               122.1832               107.7266

                     94                     95                     96
                      A                      A                      A
 Frequencies --   3024.5732              3046.4976              3068.4163
 Red. masses --      1.0676                 1.0613                 1.0671
 Frc consts  --      5.7541                 5.8037                 5.9196
 IR Inten    --     31.5056                20.5242                15.2349

                     97                     98                     99
                      A                      A                      A
 Frequencies --   3079.3899              3082.8749              3083.6430
 Red. masses --      1.0880                 1.0854                 1.0731
 Frc consts  --      6.0788                 6.0778                 6.0122
 IR Inten    --     71.8566                46.6714                32.5416

                    100                    101                    102
                      A                      A                      A
 Frequencies --   3092.1813              3116.1539              3127.5433
 Red. masses --      1.1047                 1.1044                 1.1037
 Frc consts  --      6.2231                 6.3188                 6.3608
 IR Inten    --     48.4023                30.9651                34.7659

                    103                    104                    105
                      A                      A                      A
 Frequencies --   3184.7681              3213.3412              3245.1883
 Red. masses --      1.0882                 1.0937                 1.0915
 Frc consts  --      6.5033                 6.6534                 6.7725
 IR Inten    --     10.7460                11.9445                 1.7448

                    106                    107                    108
                      A                      A                      A
 Frequencies --   3469.6791              3490.4397              3680.7516
 Red. masses --      1.0739                 1.0739                 1.0801
 Frc consts  --      7.6171                 7.7089                 8.6220
 IR Inten    --      2.7058                22.8828                83.2941

 - Thermochemistry -
 -------------------
 Temperature   298.150 Kelvin.  Pressure   1.00000 Atm.
 Atom     1 has atomic number  6 and mass  12.00000

 Molecular mass:   261.14773 amu.
 Principal axes and moments of inertia in atomic units:
                           1         2         3
     Eigenvalues --  2391.185559730.87424**********
           X            0.99992   0.01051   0.00670
           Y           -0.01030   0.99951  -0.02957
           Z           -0.00701   0.02950   0.99954
 This molecule is an asymmetric top.
 Rotational symmetry number  1.
 Warning -- assumption of classical behavior for rotation
           may cause significant error
 Rotational temperatures (Kelvin)      0.03622     0.00890     0.00840
 Rotational constants (GHZ):           0.75475     0.18547     0.17507
 Zero-point vibrational energy     855300.6 (Joules/Mol)
                                  204.42175 (Kcal/Mol)
 Warning -- explicit consideration of  25 degrees of freedom as
           vibrations may cause significant error
 Vibrational temperatures:     50.86    65.44    87.57   142.76   150.15
          (Kelvin)            174.85   240.63   271.67   298.05   325.34
                              357.12   400.60   409.18   438.63   487.82
                              503.17   530.07   610.19   639.53   653.03
                              658.18   705.99   771.66   794.47   847.39
                              897.88   922.45  1016.48  1035.13  1058.86
                             1072.07  1132.19  1157.98  1178.30  1192.43
                             1231.31  1252.36  1275.36  1297.31  1327.82
                             1341.77  1345.06  1353.39  1364.18  1402.67
                             1433.84  1468.61  1547.51  1548.17  1595.60
                             1599.10  1638.12  1652.57  1657.60  1677.10
                             1694.65  1706.13  1713.45  1758.22  1789.61
                             1836.42  1854.47  1868.41  1881.70  1884.06
                             1910.46  1923.62  1957.26  1968.61  1992.82
                             2003.39  2017.61  2031.53  2076.37  2087.56
                             2132.97  2154.00  2163.99  2172.20  2180.12
                             2182.64  2191.34  2196.68  2211.45  2217.20
                             2228.73  2408.19  2426.58  2755.66  4124.82
                             4212.80  4219.94  4245.69  4351.69  4383.23
                             4414.77  4430.56  4435.57  4436.67  4448.96
                             4483.45  4499.84  4582.17  4623.28  4669.10
                             4992.09  5021.96  5295.78

 Zero-point correction=                           0.325767 (Hartree/Particle)
 Thermal correction to Energy=                    0.342306
 Thermal correction to Enthalpy=                  0.343250
 Thermal correction to Gibbs Free Energy=         0.281270
 Sum of electronic and zero-point Energies=           -859.400694
 Sum of electronic and thermal Energies=              -859.384155
 Sum of electronic and thermal Enthalpies=            -859.383210
 Sum of electronic and thermal Free Energies=         -859.445190

                     E (Thermal)             CV                S
                      KCal/Mol        Cal/Mol-Kelvin    Cal/Mol-Kelvin
 Total                  214.800             65.727            130.448
 Electronic               0.000              0.000              0.000
 Translational            0.889              2.981             42.579
 Rotational               0.889              2.981             33.839
 Vibrational            213.023             59.766             54.030
 Vibration     1          0.594              1.982              5.504
 Vibration     2          0.595              1.979              5.005
 Vibration     3          0.597              1.973              4.429
 Vibration     4          0.604              1.950              3.469
 Vibration     5          0.605              1.946              3.371
 Vibration     6          0.609              1.931              3.076
 Vibration     7          0.624              1.883              2.466
 Vibration     8          0.633              1.855              2.239
 Vibration     9          0.641              1.830              2.069
 Vibration    10          0.650              1.801              1.910
 Vibration    11          0.662              1.766              1.743
 Vibration    12          0.679              1.713              1.543
 Vibration    13          0.683              1.703              1.507
 Vibration    14          0.696              1.664              1.390
 Vibration    15          0.719              1.597              1.217
 Vibration    16          0.727              1.576              1.167
 Vibration    17          0.741              1.537              1.086
 Vibration    18          0.786              1.418              0.878
 Vibration    19          0.804              1.373              0.813
 Vibration    20          0.812              1.352              0.784
 Vibration    21          0.816              1.344              0.774
 Vibration    22          0.846              1.271              0.682
 Vibration    23          0.891              1.170              0.573
 Vibration    24          0.908              1.135              0.540
 Vibration    25          0.946              1.055              0.469

 Optimization completed.
    -- Stationary point found.
 Normal termination of Gaussian 16 at Sun Dec 13 13:27:11 2020.

 ----------------------------------------------------------------------
 # B3LYP/6-311++G(d,p) empiricaldispersion=gd3bj scf=xqc pop=npa geom=c
 heck
 ----------------------------------------------------------------------

 ---------------------------------------
 CID_116951202_JID_9455_Energie_neutraal
 ---------------------------------------
 Structure from the checkpoint file:  "JID_9455.chk"
 Charge =  0 Multiplicity = 1

 SCF Done:  E(RB3LYP) =  -859.966762219     A.U. after   16 cycles
 Normal termination of Gaussian 16 at Sun Dec 13 13:37:16 2020.

 ----------------------------------------------------------------------
 # B3LYP/6-311++G(d,p) empiricaldispersion=gd3bj scf=xqc pop=npa geom=c
 heck
 ----------------------------------------------------------------------

 -------------------------------------
 CID_116951202_JID_9455_Energie_kation
 -------------------------------------
 Structure from the checkpoint file:  "JID_9455.chk"
 Charge =  1 Multiplicity = 2

 SCF Done:  E(UB3LYP) =  -859.681567395     A.U. after   26 cycles
 Normal termination of Gaussian 16 at Sun Dec 13 14:01:07 2020.
 Gaussian 16:  ES64L-G16RevA.03 25-Dec-2016

 ----------------------------------------------------------------------
 # B3LYP/6-311++G(d,p) empiricaldispersion=gd3bj scf=xqc pop=npa geom=c
 heck
 ----------------------------------------------------------------------

 ------------------------------------
 CID_116951202_JID_9455_Energie_anion
 ------------------------------------
 Structure from the checkpoint file:  "JID_9455.chk"
 Charge = -1 Multiplicity = 2

                         Standard orientation:
 ---------------------------------------------------------------------
 Center     Atomic      Atomic             Coordinates (Angstroms)
 Number     Number       Type             X           Y           Z
 ---------------------------------------------------------------------
      1          6           0       -0.979995    3.120129   -1.090359
      2          7           0       -1.464396    1.749752   -1.002380
      3          6           0       -1.249312    1.137208    0.300898
      4          6           0       -2.208552   -0.068544    0.464129
      5          6           0       -1.982175   -1.174576   -0.573795
      6          6           0       -3.034389   -2.282212   -0.443437
      7          6           0       -4.448099   -1.693642   -0.505570
      8          6           0       -4.603735   -0.597104    0.547161
      9          7           0       -3.583741    0.436502    0.345627
     10          6           0        0.199613    0.728975    0.507357
     11          6           0        1.006497    0.407209   -0.597906
     12          6           0        2.295972   -0.004465   -0.336515
     13          6           0        2.809965   -0.110400    0.960605
     14          6           0        2.026886    0.206805    2.060358
     15          6           0        0.716337    0.631287    1.805465
     16          7           0        4.122699   -0.546225    0.797678
     17          6           0        4.421338   -0.707957   -0.544874
     18          8           0        5.447297   -1.068015   -1.059055
     19          8           0        3.268635   -0.365140   -1.247382
     20          1           0        0.111804    3.133072   -1.005191
     21          1           0       -1.382519    3.786254   -0.303875
     22          1           0       -1.245902    3.538028   -2.066278
     23          1           0       -2.466359    1.711882   -1.183441
     24          1           0       -1.504764    1.841879    1.121938
     25          1           0       -2.020700   -0.497795    1.467293
     26          1           0       -0.975152   -1.584776   -0.448246
     27          1           0       -2.029336   -0.729767   -1.573681
     28          1           0       -2.892125   -3.033859   -1.228877
     29          1           0       -2.902204   -2.800676    0.517643
     30          1           0       -4.624713   -1.258623   -1.497538
     31          1           0       -5.204259   -2.471432   -0.344904
     32          1           0       -5.589189   -0.123701    0.472000
     33          1           0       -4.534502   -1.056484    1.552702
     34          1           0       -3.718781    1.176673    1.033762
     35          1           0        0.612855    0.492819   -1.603325
     36          1           0        2.409973    0.139741    3.073451
     37          1           0        0.079061    0.897220    2.644874
     38          1           0        4.805330   -0.731684    1.515610
 ---------------------------------------------------------------------

 SCF Done:  E(UB3LYP) =  -859.960510019     A.U. after   33 cycles
 SCF Done:  E(UB3LYP) =  -859.960510019     a.u. after    1 cycles

 The electronic state is 2-A.
 Alpha  occ. eigenvalues --  -19.10550 -19.02503 -14.28384 -14.21233 -14.20775
 Alpha  occ. eigenvalues --  -10.24712 -10.15289 -10.13920 -10.11572 -10.11174
 Alpha  occ. eigenvalues --  -10.10498 -10.10104 -10.09731 -10.09540 -10.09310
 Alpha  occ. eigenvalues --  -10.08924 -10.08247 -10.08171 -10.07404  -1.05336
 Alpha  occ. eigenvalues --   -0.95952  -0.87337  -0.84282  -0.81129  -0.77303
 Alpha  occ. eigenvalues --   -0.70301  -0.69312  -0.67246  -0.66244  -0.60952
 Alpha  occ. eigenvalues --   -0.57403  -0.56427  -0.55196  -0.54569  -0.53443
 Alpha  occ. eigenvalues --   -0.49981  -0.47023  -0.46152  -0.44341  -0.42431
 Alpha  occ. eigenvalues --   -0.41109  -0.39978  -0.39513  -0.37985  -0.37220
 Alpha  occ. eigenvalues --   -0.36616  -0.35929  -0.35184  -0.34966  -0.33550
 Alpha  occ. eigenvalues --   -0.33003  -0.32391  -0.31848  -0.30970  -0.30446
 Alpha  occ. eigenvalues --   -0.29194  -0.28543  -0.28239  -0.27872  -0.26503
 Alpha  occ. eigenvalues --   -0.25966  -0.24803  -0.23889  -0.22844  -0.22061
 Alpha  occ. eigenvalues --   -0.21508  -0.16678  -0.15356  -0.14107  -0.13459
 Alpha  occ. eigenvalues --    0.03571
 Alpha virt. eigenvalues --    0.05114   0.06277   0.06606   0.06847   0.07432
 Alpha virt. eigenvalues --    0.07985   0.08335   0.08496   0.09184   0.09777
 Alpha virt. eigenvalues --    0.09978   0.10664   0.11191   0.11529   0.11651

  Beta  occ. eigenvalues --  -19.10542 -19.02500 -14.28341 -14.21209 -14.20772
  Beta  occ. eigenvalues --  -10.24708 -10.15288 -10.13915 -10.11559 -10.11166
  Beta  occ. eigenvalues --  -10.10475 -10.10094 -10.09703 -10.09535 -10.09302
  Beta  occ. eigenvalues --  -10.08912 -10.08242 -10.08166 -10.07403  -1.05319
  Beta  occ. eigenvalues --   -0.95944  -0.87285  -0.84258  -0.81106  -0.77278
  Beta  occ. eigenvalues --   -0.70281  -0.69285  -0.67215  -0.66218  -0.60924
  Beta  occ. eigenvalues --   -0.57334  -0.56397  -0.55164  -0.54537  -0.53416
  Beta  occ. eigenvalues --   -0.49944  -0.46977  -0.46106  -0.44311  -0.42385
  Beta  occ. eigenvalues --   -0.41086  -0.39944  -0.39485  -0.37948  -0.37195
  Beta  occ. eigenvalues --   -0.36578  -0.35905  -0.35156  -0.34944  -0.33525
  Beta  occ. eigenvalues --   -0.32978  -0.32361  -0.31822  -0.30954  -0.30424
  Beta  occ. eigenvalues --   -0.29178  -0.28520  -0.28209  -0.27844  -0.26480
  Beta  occ. eigenvalues --   -0.25942  -0.24789  -0.23862  -0.22822  -0.22035
  Beta  occ. eigenvalues --   -0.21496  -0.16646  -0.15321  -0.14074  -0.13430
  Beta virt. eigenvalues --    0.05753   0.06451   0.06670   0.06894   0.07135
  Beta virt. eigenvalues --    0.07839   0.08076   0.08605   0.08965   0.09354
  Beta virt. eigenvalues --    0.09879   0.10401   0.10808   0.11254   0.11510

 Mulliken charges and spin densities:
               1          2
     1  C   -0.088005  -0.258876
     2  N   -0.250681   0.048575
     3  C    0.506782  -0.376031
     4  C   -0.335146  -0.751069
     5  C   -0.623731   0.338651
     6  C    0.100099  -0.455449
     7  C   -0.562323   0.179003
     8  C    0.785299  -1.024830
     9  N   -0.129760   0.127889
    10  C    1.316818  -0.542229
    11  C   -1.061262   0.286030
    12  C   -0.728285   0.265744
    13  C    2.910046  -2.073665
    14  C   -0.518959  -0.024976
    15  C   -0.915897   0.753668
    16  N   -0.261799  -0.062706
    17  C    0.534193  -0.054295
    18  O   -0.392646   0.006515
    19  O   -0.121956  -0.019567
    20  H    0.107259   0.039353
    21  H   -0.054414   0.182939
    22  H    0.093755   0.036251
    23  H    0.287544   0.011493
    24  H   -0.036688   0.258069
    25  H    0.267633  -0.068991
    26  H    0.138744   0.019490
    27  H    0.133057   0.015253
    28  H    0.088178   0.067938
    29  H    0.047631   0.085064
    30  H    0.159926  -0.039907
    31  H   -0.027290   0.193392
    32  H   -0.293356   0.461419
    33  H   -0.167463   0.285451
    34  H   -0.223110   0.470313
    35  H    0.163097   0.052838
    36  H   -1.065138   1.272130
    37  H   -0.554980   0.714265
    38  H   -0.227172   0.580859
 Sum of Mulliken charges =  -1.00000   1.00000

 Dipole moment (field-independent basis, Debye):
    X=             -3.3292    Y=             -0.3773    Z=             -5.6840  Tot=              6.5980
 Quadrupole moment (field-independent basis, Debye-Ang):
   XX=           -229.5204   YY=           -146.3458   ZZ=           -165.2189
   XY=             11.4868   XZ=              4.1560   YZ=             -5.4823

 Summary of Natural Population Analysis:

                                       Natural Population
                Natural  -----------------------------------------------
    Atom  No    Charge         Core      Valence    Rydberg      Total
 -----------------------------------------------------------------------
      C    1   -0.17754      0.99966     2.17152    0.00635     3.17754
      N    2   -0.34708      0.99973     2.83753    0.00981     3.84708
      C    3   -0.01525      0.99953     1.99942    0.01629     3.01525
      C    4   -0.00431      0.99956     1.99148    0.01327     3.00431
      C    5   -0.19809      0.99960     2.19079    0.00770     3.19809
      C    6   -0.18791      0.99963     2.18135    0.00692     3.18791
      C    7   -0.19450      0.99963     2.18639    0.00848     3.19450
      C    8   -0.08480      0.99962     2.07298    0.01220     3.08480
      N    9   -0.35107      0.99972     2.83889    0.01246     3.85107
      C   10   -0.01848      0.99950     2.00765    0.01133     3.01848
      C   11   -0.12003      0.99945     2.11139    0.00919     3.12003
      C   12    0.14166      0.99933     1.84579    0.01322     2.85834
      C   13    0.05492      0.99944     1.93409    0.01155     2.94508
      C   14   -0.10771      0.99953     2.09822    0.00996     3.10771
      C   15   -0.09581      0.99951     2.08652    0.00978     3.09581
      N   16   -0.30483      0.99964     2.79656    0.00863     3.80483
      C   17    0.45146      0.99971     1.52234    0.02649     2.54854
      O   18   -0.30781      0.99986     3.30197    0.00597     4.30781
      O   19   -0.25577      0.99985     3.24972    0.00620     4.25577
      H   20    0.09384      0.00000     0.40512    0.00105     0.40616
      H   21    0.08029      0.00000     0.41831    0.00140     0.41971
      H   22    0.09179      0.00000     0.40749    0.00073     0.40821
      H   23    0.18600      0.00000     0.31129    0.00271     0.31400
      H   24    0.08698      0.00000     0.41015    0.00287     0.41302
      H   25    0.08633      0.00000     0.41142    0.00225     0.41367
      H   26    0.10560      0.00000     0.39345    0.00094     0.39440
      H   27    0.10164      0.00000     0.39689    0.00148     0.39836
      H   28    0.09674      0.00000     0.40238    0.00088     0.40326
      H   29    0.09398      0.00000     0.40469    0.00133     0.40602
      H   30    0.09506      0.00000     0.40377    0.00116     0.40494
      H   31    0.09801      0.00000     0.40117    0.00082     0.40199
      H   32    0.09618      0.00000     0.40265    0.00118     0.40382
      H   33    0.07890      0.00000     0.41935    0.00175     0.42110
      H   34    0.18006      0.00000     0.31571    0.00423     0.31994
      H   35    0.11951      0.00000     0.37904    0.00145     0.38049
      H   36    0.11148      0.00000     0.38490    0.00362     0.38852
      H   37    0.10587      0.00000     0.39258    0.00155     0.39413
      H   38    0.21468      0.00000     0.27855    0.00677     0.28532
 =======================================================================
   * Total *   -0.00000     18.99253    50.76350    0.24397    70.00000

 Normal termination of Gaussian 16 at Sun Dec 13 14:31:14 2020.
