 Gaussian 16, Revision A.03,

 -----------------------------------------------------------
 # opt freq B3LYP/6-31G(d) empiricaldispersion=gd3bj scf=xqc
 -----------------------------------------------------------

 -------------------------------
 CID_115102885_JID_5176_neutraal
 -------------------------------
 Symbolic Z-matrix:
 Charge =  0 Multiplicity = 1

 SCF Done:  E(RB3LYP) =  -781.680550663     A.U. after   14 cycles
 SCF Done:  E(RB3LYP) =  -781.686838556     A.U. after   12 cycles
 SCF Done:  E(RB3LYP) =  -781.687483684     A.U. after   12 cycles
 SCF Done:  E(RB3LYP) =  -781.687629075     A.U. after   12 cycles
 SCF Done:  E(RB3LYP) =  -781.687797563     A.U. after   13 cycles
 SCF Done:  E(RB3LYP) =  -781.688240837     A.U. after   12 cycles
 SCF Done:  E(RB3LYP) =  -781.688971283     A.U. after   12 cycles
 SCF Done:  E(RB3LYP) =  -781.687122551     A.U. after   15 cycles
 SCF Done:  E(RB3LYP) =  -781.689878280     A.U. after   13 cycles
 SCF Done:  E(RB3LYP) =  -781.690100223     A.U. after   12 cycles
 SCF Done:  E(RB3LYP) =  -781.693306024     A.U. after    8 cycles
 SCF Done:  E(RB3LYP) =  -781.693306527     A.U. after    8 cycles
 SCF Done:  E(RB3LYP) =  -781.693306905     A.U. after    8 cycles
 SCF Done:  E(RB3LYP) =  -781.693307075     A.U. after    8 cycles
 SCF Done:  E(RB3LYP) =  -781.693307121     A.U. after    7 cycles
 Optimization completed.
    -- Stationary point found.
 Normal termination of Gaussian 16 at Thu Dec 10 15:13:39 2020.

 --------------------------------------------------------------------
 #N Geom=AllCheck Guess=TCheck SCRF=Check GenChk RB3LYP/6-31G(d) Freq
 --------------------------------------------------------------------

 Structure from the checkpoint file:  "JID_5176.chk"
 -------------------------------
 CID_115102885_JID_5176_neutraal
 -------------------------------
 Charge =  0 Multiplicity = 1

 SCF Done:  E(RB3LYP) =  -781.693307121     A.U. after    1 cycles

  Exact polarizability: 123.063  -3.230 119.712   1.988  -5.413  82.510
 Approx polarizability: 156.625  -2.682 183.909   1.097  -8.659 126.118

                      1                      2                      3
                      A                      A                      A
 Frequencies --     24.3378                32.6931                46.8833
 Red. masses --      9.4151                 3.3088                 3.1161
 Frc consts  --      0.0033                 0.0021                 0.0040
 IR Inten    --      0.8352                 1.9148                 1.1823

                      4                      5                      6
                      A                      A                      A
 Frequencies --     71.7517                85.4047               129.0349
 Red. masses --      4.1403                 6.2968                 4.0725
 Frc consts  --      0.0126                 0.0271                 0.0400
 IR Inten    --      2.4525                 2.2520                 1.5773

                      7                      8                      9
                      A                      A                      A
 Frequencies --    189.6968               203.6620               218.0173
 Red. masses --      3.1224                 3.2772                 3.4938
 Frc consts  --      0.0662                 0.0801                 0.0978
 IR Inten    --      7.4245                 2.6718                 6.5689

                     10                     11                     12
                      A                      A                      A
 Frequencies --    249.2752               287.2413               322.3620
 Red. masses --      4.1829                 4.1521                 7.7396
 Frc consts  --      0.1531                 0.2018                 0.4739
 IR Inten    --      2.8087                14.9657                 3.9560

                     13                     14                     15
                      A                      A                      A
 Frequencies --    409.1507               435.7133               450.9781
 Red. masses --      4.0017                 3.1491                 3.1923
 Frc consts  --      0.3947                 0.3522                 0.3825
 IR Inten    --      0.9808                 4.7354                19.0618

                     16                     17                     18
                      A                      A                      A
 Frequencies --    489.5198               552.9450               573.3462
 Red. masses --      3.8055                 5.2244                 3.4591
 Frc consts  --      0.5373                 0.9411                 0.6700
 IR Inten    --      1.1927                 2.7180                17.3021

                     19                     20                     21
                      A                      A                      A
 Frequencies --    597.2128               637.7621               663.6064
 Red. masses --      3.2115                 1.6415                 3.2416
 Frc consts  --      0.6749                 0.3934                 0.8411
 IR Inten    --     44.1976                69.3815                24.4005

                     22                     23                     24
                      A                      A                      A
 Frequencies --    705.8531               731.5718               752.5021
 Red. masses --      4.4931                 3.4494                 3.8576
 Frc consts  --      1.3189                 1.0877                 1.2870
 IR Inten    --     23.9532                36.6647                21.9129

                     25                     26                     27
                      A                      A                      A
 Frequencies --    785.9157               841.9376               884.8407
 Red. masses --      2.7558                 1.7835                 3.3751
 Frc consts  --      1.0029                 0.7449                 1.5569
 IR Inten    --      8.9309                 1.2536                 2.3182

                     28                     29                     30
                      A                      A                      A
 Frequencies --    920.5659               934.1760               950.7500
 Red. masses --      2.6911                 2.2671                 3.4347
 Frc consts  --      1.3436                 1.1657                 1.8293
 IR Inten    --     12.8011                 9.3762                23.0181

                     31                     32                     33
                      A                      A                      A
 Frequencies --    975.5774               987.4406              1028.6137
 Red. masses --      2.8708                 2.5410                 2.4001
 Frc consts  --      1.6098                 1.4597                 1.4962
 IR Inten    --      0.6450                15.1591                 2.9361

                     34                     35                     36
                      A                      A                      A
 Frequencies --   1063.3461              1078.2019              1092.6277
 Red. masses --      2.5338                 3.0950                 2.3988
 Frc consts  --      1.6880                 2.1199                 1.6873
 IR Inten    --     38.3278                46.8071                 3.5790

                     37                     38                     39
                      A                      A                      A
 Frequencies --   1106.0993              1118.0193              1139.5929
 Red. masses --      2.4523                 3.0476                 3.1521
 Frc consts  --      1.7677                 2.2444                 2.4118
 IR Inten    --     25.6471                80.3076                40.9879

                     40                     41                     42
                      A                      A                      A
 Frequencies --   1176.2721              1197.2197              1211.3043
 Red. masses --      5.4037                 1.9733                 1.5326
 Frc consts  --      4.4051                 1.6664                 1.3249
 IR Inten    --     93.1714               231.0754                 6.5505

                     43                     44                     45
                      A                      A                      A
 Frequencies --   1246.4799              1266.7175              1268.2286
 Red. masses --      1.2013                 1.4214                 1.4940
 Frc consts  --      1.0997                 1.3438                 1.4158
 IR Inten    --     12.3420                24.6648                12.6827

                     46                     47                     48
                      A                      A                      A
 Frequencies --   1277.1755              1289.8748              1298.5021
 Red. masses --      1.1910                 1.2848                 1.3504
 Frc consts  --      1.1446                 1.2594                 1.3415
 IR Inten    --      7.9890                 7.8226                89.3870

                     49                     50                     51
                      A                      A                      A
 Frequencies --   1308.6987              1332.8829              1356.2885
 Red. masses --      1.6003                 1.3884                 1.5344
 Frc consts  --      1.6149                 1.4532                 1.6630
 IR Inten    --      7.6420                 6.6461                37.2208

                     52                     53                     54
                      A                      A                      A
 Frequencies --   1365.1759              1381.9718              1398.6337
 Red. masses --      1.2721                 1.5267                 1.3710
 Frc consts  --      1.3968                 1.7179                 1.5801
 IR Inten    --      1.7740                86.2039                10.5746

                     55                     56                     57
                      A                      A                      A
 Frequencies --   1414.6024              1416.4826              1447.3177
 Red. masses --      1.5147                 1.4345                 2.3894
 Frc consts  --      1.7859                 1.6958                 2.9489
 IR Inten    --     19.0922                 8.2240                35.7940

                     58                     59                     60
                      A                      A                      A
 Frequencies --   1492.3705              1502.4839              1523.7631
 Red. masses --      1.6231                 1.3007                 1.0978
 Frc consts  --      2.1298                 1.7300                 1.5018
 IR Inten    --     46.5241                11.9649                 7.0610

                     61                     62                     63
                      A                      A                      A
 Frequencies --   1528.9221              1547.3986              1551.4743
 Red. masses --      1.1021                 1.1230                 1.1003
 Frc consts  --      1.5180                 1.5843                 1.5604
 IR Inten    --      1.3257                13.5691                 0.4366

                     64                     65                     66
                      A                      A                      A
 Frequencies --   1765.7286              1846.1848              2968.3294
 Red. masses --     11.5442                10.4392                 1.0810
 Frc consts  --     21.2061                20.9638                 5.6117
 IR Inten    --    317.0789               237.8623                26.6322

                     67                     68                     69
                      A                      A                      A
 Frequencies --   2994.3153              3007.9739              3013.7615
 Red. masses --      1.0721                 1.0720                 1.0725
 Frc consts  --      5.6634                 5.7147                 5.7394
 IR Inten    --     60.6690                37.5021                90.6737

                     70                     71                     72
                      A                      A                      A
 Frequencies --   3054.1596              3094.8337              3119.3751
 Red. masses --      1.0698                 1.0615                 1.0955
 Frc consts  --      5.8792                 5.9904                 6.2806
 IR Inten    --     25.4706                19.4996                17.3477

                     73                     74                     75
                      A                      A                      A
 Frequencies --   3131.0265              3139.9835              3144.8510
 Red. masses --      1.0939                 1.1046                 1.0918
 Frc consts  --      6.3184                 6.4165                 6.3621
 IR Inten    --     18.0140                26.9913                 9.3608

                     76                     77                     78
                      A                      A                      A
 Frequencies --   3147.4476              3163.5051              3681.6962
 Red. masses --      1.0951                 1.0866                 1.0640
 Frc consts  --      6.3920                 6.4070                 8.4972
 IR Inten    --      4.3580                13.1687                59.2637

 - Thermochemistry -
 -------------------
 Temperature   298.150 Kelvin.  Pressure   1.00000 Atm.
 Atom     1 has atomic number  6 and mass  12.00000

 Molecular mass:   215.07937 amu.
 Principal axes and moments of inertia in atomic units:
                           1         2         3
     Eigenvalues --  2105.383764024.382335610.37377
           X            0.99969  -0.02399   0.00737
           Y            0.02406   0.99966  -0.01011
           Z           -0.00713   0.01028   0.99992
 This molecule is an asymmetric top.
 Rotational symmetry number  1.
 Warning -- assumption of classical behavior for rotation
           may cause significant error
 Rotational temperatures (Kelvin)      0.04114     0.02152     0.01544
 Rotational constants (GHZ):           0.85720     0.44845     0.32168
 Zero-point vibrational energy     603166.9 (Joules/Mol)
                                  144.16036 (Kcal/Mol)
 Warning -- explicit consideration of  19 degrees of freedom as
           vibrations may cause significant error
 Vibrational temperatures:     35.02    47.04    67.45   103.23   122.88
          (Kelvin)            185.65   272.93   293.02   313.68   358.65
                              413.28   463.81   588.68   626.89   648.86
                              704.31   795.56   824.92   859.26   917.60
                              954.78  1015.57  1052.57  1082.68  1130.76
                             1211.36  1273.09  1324.49  1344.07  1367.92
                             1403.64  1420.71  1479.95  1529.92  1551.29
                             1572.05  1591.43  1608.58  1639.62  1692.39
                             1722.53  1742.80  1793.41  1822.52  1824.70
                             1837.57  1855.84  1868.25  1882.93  1917.72
                             1951.40  1964.18  1988.35  2012.32  2035.30
                             2038.00  2082.37  2147.19  2161.74  2192.36
                             2199.78  2226.36  2232.23  2540.49  2656.25
                             4270.76  4308.15  4327.80  4336.13  4394.25
                             4452.78  4488.08  4504.85  4517.74  4524.74
                             4528.48  4551.58  5297.14

 Zero-point correction=                           0.229734 (Hartree/Particle)
 Thermal correction to Energy=                    0.243395
 Thermal correction to Enthalpy=                  0.244339
 Thermal correction to Gibbs Free Energy=         0.186770
 Sum of electronic and zero-point Energies=           -781.463573
 Sum of electronic and thermal Energies=              -781.449913
 Sum of electronic and thermal Enthalpies=            -781.448968
 Sum of electronic and thermal Free Energies=         -781.506537

                     E (Thermal)             CV                S
                      KCal/Mol        Cal/Mol-Kelvin    Cal/Mol-Kelvin
 Total                  152.732             50.318            121.163
 Electronic               0.000              0.000              0.000
 Translational            0.889              2.981             42.001
 Rotational               0.889              2.981             32.230
 Vibrational            150.955             44.356             46.932
 Vibration     1          0.593              1.985              6.244
 Vibration     2          0.594              1.983              5.659
 Vibration     3          0.595              1.979              4.945
 Vibration     4          0.598              1.967              4.105
 Vibration     5          0.601              1.959              3.763
 Vibration     6          0.612              1.924              2.960
 Vibration     7          0.633              1.854              2.231
 Vibration     8          0.639              1.835              2.100
 Vibration     9          0.646              1.814              1.975
 Vibration    10          0.662              1.764              1.736
 Vibration    11          0.684              1.697              1.490
 Vibration    12          0.707              1.631              1.298
 Vibration    13          0.774              1.450              0.930
 Vibration    14          0.796              1.392              0.840
 Vibration    15          0.810              1.359              0.793
 Vibration    16          0.845              1.273              0.685
 Vibration    17          0.908              1.133              0.538
 Vibration    18          0.930              1.089              0.498
 Vibration    19          0.955              1.038              0.454

 Optimization completed.
    -- Stationary point found.
 Normal termination of Gaussian 16 at Thu Dec 10 15:23:48 2020.

 ----------------------------------------------------------------------
 # B3LYP/6-311++G(d,p) empiricaldispersion=gd3bj scf=xqc pop=npa geom=c
 heck
 ----------------------------------------------------------------------

 ---------------------------------------
 CID_115102885_JID_5176_Energie_neutraal
 ---------------------------------------
 Structure from the checkpoint file:  "JID_5176.chk"
 Charge =  0 Multiplicity = 1

 SCF Done:  E(RB3LYP) =  -781.930029882     A.U. after   14 cycles
 Normal termination of Gaussian 16 at Thu Dec 10 15:27:42 2020.

 ----------------------------------------------------------------------
 # B3LYP/6-311++G(d,p) empiricaldispersion=gd3bj scf=xqc pop=npa geom=c
 heck
 ----------------------------------------------------------------------

 -------------------------------------
 CID_115102885_JID_5176_Energie_kation
 -------------------------------------
 Structure from the checkpoint file:  "JID_5176.chk"
 Charge =  1 Multiplicity = 2

 SCF Done:  E(UB3LYP) =  -781.609544740     A.U. after   27 cycles
 Normal termination of Gaussian 16 at Thu Dec 10 15:38:09 2020.
 Gaussian 16:  ES64L-G16RevA.03 25-Dec-2016

 ----------------------------------------------------------------------
 # B3LYP/6-311++G(d,p) empiricaldispersion=gd3bj scf=xqc pop=npa geom=c
 heck
 ----------------------------------------------------------------------

 ------------------------------------
 CID_115102885_JID_5176_Energie_anion
 ------------------------------------
 Structure from the checkpoint file:  "JID_5176.chk"
 Charge = -1 Multiplicity = 2

                         Standard orientation:
 ---------------------------------------------------------------------
 Center     Atomic      Atomic             Coordinates (Angstroms)
 Number     Number       Type             X           Y           Z
 ---------------------------------------------------------------------
      1          6           0        2.592145   -0.339990    1.185497
      2          6           0        2.953503   -1.709366    0.557487
      3          8           0        2.422055   -1.701644   -0.768671
      4          6           0        2.495394   -0.352121   -1.213070
      5          6           0        2.064818    0.500435   -0.008150
      6          7           0        0.616201    0.718814    0.031559
      7          6           0       -0.270651   -0.438156    0.178613
      8          6           0       -1.670059   -0.079355   -0.291834
      9          8           0       -2.131051    1.064508    0.400420
     10          6           0       -1.362674    2.202620    0.045126
     11          6           0        0.152287    2.005315    0.008404
     12          8           0        0.872830    2.993700   -0.091949
     13          6           0       -2.636744   -1.229808   -0.047948
     14          8           0       -2.294101   -2.364814    0.197914
     15          8           0       -3.919829   -0.848016   -0.179926
     16          1           0        1.835532   -0.428186    1.968687
     17          1           0        3.468194    0.137592    1.632032
     18          1           0        4.044846   -1.845891    0.520636
     19          1           0        2.514274   -2.562617    1.080015
     20          1           0        1.842715   -0.238578   -2.081915
     21          1           0        3.527039   -0.094148   -1.504735
     22          1           0        2.502329    1.497075   -0.039793
     23          1           0       -0.323583   -0.760819    1.225858
     24          1           0        0.129647   -1.271548   -0.401033
     25          1           0       -1.660222    0.115528   -1.379820
     26          1           0       -1.581496    2.979496    0.780218
     27          1           0       -1.662331    2.580310   -0.945950
     28          1           0       -4.457693   -1.647230   -0.022167
 ---------------------------------------------------------------------

 SCF Done:  E(UB3LYP) =  -781.921323618     A.U. after   33 cycles
 SCF Done:  E(UB3LYP) =  -781.921323618     a.u. after    1 cycles

 The electronic state is 2-A.
 Alpha  occ. eigenvalues --  -19.07278 -19.04898 -19.03698 -19.01959 -18.99672
 Alpha  occ. eigenvalues --  -14.25758 -10.20759 -10.18157 -10.15113 -10.13920
 Alpha  occ. eigenvalues --  -10.12734 -10.12673 -10.12219 -10.11779 -10.08635
 Alpha  occ. eigenvalues --   -1.01729  -0.97311  -0.95703  -0.94444  -0.92712
 Alpha  occ. eigenvalues --   -0.85096  -0.70318  -0.69191  -0.65562  -0.61395
 Alpha  occ. eigenvalues --   -0.59298  -0.53705  -0.51581  -0.50530  -0.45741
 Alpha  occ. eigenvalues --   -0.44547  -0.43294  -0.40901  -0.40292  -0.39516
 Alpha  occ. eigenvalues --   -0.38341  -0.37207  -0.36595  -0.36224  -0.34983
 Alpha  occ. eigenvalues --   -0.33874  -0.32700  -0.31608  -0.31365  -0.30100
 Alpha  occ. eigenvalues --   -0.28520  -0.28017  -0.26808  -0.26076  -0.25203
 Alpha  occ. eigenvalues --   -0.24068  -0.23137  -0.20299  -0.18964  -0.18407
 Alpha  occ. eigenvalues --   -0.15742  -0.15047   0.04104
 Alpha virt. eigenvalues --    0.05627   0.07059   0.07838   0.08288   0.08565
 Alpha virt. eigenvalues --    0.09201   0.09459   0.09713   0.11064   0.11696
 Alpha virt. eigenvalues --    0.12279   0.12721   0.13124   0.13718   0.14274

  Beta  occ. eigenvalues --  -19.07220 -19.04879 -19.03695 -19.01889 -18.99658
  Beta  occ. eigenvalues --  -14.25762 -10.20665 -10.18143 -10.15090 -10.13903
  Beta  occ. eigenvalues --  -10.12712 -10.12645 -10.12217 -10.11766 -10.08615
  Beta  occ. eigenvalues --   -1.01589  -0.97280  -0.95693  -0.94418  -0.92584
  Beta  occ. eigenvalues --   -0.85088  -0.70264  -0.69137  -0.65519  -0.61351
  Beta  occ. eigenvalues --   -0.59166  -0.53631  -0.51517  -0.50429  -0.45677
  Beta  occ. eigenvalues --   -0.44484  -0.43233  -0.40836  -0.40258  -0.39421
  Beta  occ. eigenvalues --   -0.38266  -0.37162  -0.36501  -0.36173  -0.34921
  Beta  occ. eigenvalues --   -0.33733  -0.32593  -0.31582  -0.31322  -0.30018
  Beta  occ. eigenvalues --   -0.28485  -0.27974  -0.26761  -0.26046  -0.25169
  Beta  occ. eigenvalues --   -0.24042  -0.22883  -0.20249  -0.18882  -0.18373
  Beta  occ. eigenvalues --   -0.15714  -0.15024
  Beta virt. eigenvalues --    0.06446   0.07118   0.07990   0.08396   0.08692
  Beta virt. eigenvalues --    0.09051   0.09449   0.09879   0.10013   0.11262
  Beta virt. eigenvalues --    0.11882   0.12594   0.12856   0.13222   0.13752

 Mulliken charges and spin densities:
               1          2
     1  C    0.651361  -0.850884
     2  C    0.434665  -0.760750
     3  O   -0.078636   0.007485
     4  C    0.741218  -1.238861
     5  C   -1.846335   1.809152
     6  N    0.343506  -0.111241
     7  C   -0.563458  -0.003141
     8  C    1.152706  -1.372366
     9  O   -0.057416   0.011503
    10  C   -0.027409  -0.260395
    11  C    0.439199  -0.308872
    12  O   -0.359813   0.013158
    13  C    0.137790  -0.232983
    14  O   -0.248797   0.008569
    15  O   -0.220506   0.069407
    16  H   -0.097783   0.253524
    17  H   -0.293821   0.495353
    18  H   -0.360688   0.510289
    19  H    0.083460   0.080078
    20  H   -0.087766   0.299575
    21  H   -0.247634   0.399620
    22  H   -0.039100   0.304075
    23  H    0.101815   0.146413
    24  H    0.335098  -0.088529
    25  H   -0.575753   0.799352
    26  H    0.100036   0.100890
    27  H    0.006080   0.199987
    28  H   -0.422018   0.719592
 Sum of Mulliken charges =  -1.00000   1.00000

 Dipole moment (field-independent basis, Debye):
    X=              0.8308    Y=              1.4532    Z=              1.4645  Tot=              2.2241
 Quadrupole moment (field-independent basis, Debye-Ang):
   XX=           -170.9219   YY=           -133.6360   ZZ=           -115.2659
   XY=             -9.1061   XZ=             -3.5613   YZ=             -0.0918

 Summary of Natural Population Analysis:

                                       Natural Population
                Natural  -----------------------------------------------
    Atom  No    Charge         Core      Valence    Rydberg      Total
 -----------------------------------------------------------------------
      C    1   -0.21234      0.99963     2.20503    0.00768     3.21234
      C    2   -0.01419      0.99961     2.00217    0.01242     3.01419
      O    3   -0.29984      0.99990     3.29117    0.00877     4.29984
      C    4   -0.01736      0.99957     2.00509    0.01270     3.01736
      C    5   -0.02323      0.99957     2.00992    0.01374     3.02323
      N    6   -0.25255      0.99962     2.74169    0.01124     3.75255
      C    7   -0.09911      0.99958     2.08851    0.01102     3.09911
      C    8    0.01772      0.99951     1.96720    0.01557     2.98228
      O    9   -0.28911      0.99988     3.27980    0.00943     4.28911
      C   10   -0.04597      0.99955     2.03477    0.01166     3.04597
      C   11    0.33496      0.99964     1.64421    0.02120     2.66504
      O   12   -0.32963      0.99988     3.32397    0.00579     4.32963
      C   13    0.41284      0.99971     1.56187    0.02558     2.58716
      O   14   -0.30051      0.99987     3.29464    0.00600     4.30051
      O   15   -0.33415      0.99987     3.32720    0.00708     4.33415
      H   16    0.10560      0.00000     0.39329    0.00111     0.39440
      H   17    0.10804      0.00000     0.39052    0.00145     0.39196
      H   18    0.08188      0.00000     0.41627    0.00185     0.41812
      H   19    0.09164      0.00000     0.40726    0.00110     0.40836
      H   20    0.09846      0.00000     0.40015    0.00139     0.40154
      H   21    0.08466      0.00000     0.41378    0.00156     0.41534
      H   22    0.12354      0.00000     0.37507    0.00139     0.37646
      H   23    0.09982      0.00000     0.39882    0.00136     0.40018
      H   24    0.11892      0.00000     0.37905    0.00203     0.38108
      H   25    0.09906      0.00000     0.39755    0.00338     0.40094
      H   26    0.10322      0.00000     0.39553    0.00124     0.39678
      H   27    0.09427      0.00000     0.40406    0.00167     0.40573
      H   28    0.24336      0.00000     0.24163    0.01502     0.25664
 =======================================================================
   * Total *    0.00000     14.99539    41.79019    0.21442    57.00000

 Normal termination of Gaussian 16 at Thu Dec 10 15:50:19 2020.
