 Gaussian 16, Revision A.03,

 -----------------------------------------------------------
 # opt freq B3LYP/6-31G(d) empiricaldispersion=gd3bj scf=xqc
 -----------------------------------------------------------

 ------------------------------
 CID_28707625_JID_4743_neutraal
 ------------------------------
 Symbolic Z-matrix:
 Charge =  0 Multiplicity = 1

 SCF Done:  E(RB3LYP) =  -617.225279659     A.U. after   14 cycles
 SCF Done:  E(RB3LYP) =  -617.228520475     A.U. after   12 cycles
 SCF Done:  E(RB3LYP) =  -617.228257886     A.U. after   12 cycles
 SCF Done:  E(RB3LYP) =  -617.229124131     A.U. after   12 cycles
 SCF Done:  E(RB3LYP) =  -617.229619040     A.U. after   12 cycles
 SCF Done:  E(RB3LYP) =  -617.229635475     A.U. after   12 cycles
 SCF Done:  E(RB3LYP) =  -617.229783746     A.U. after   11 cycles
 SCF Done:  E(RB3LYP) =  -617.229854723     A.U. after   10 cycles
 SCF Done:  E(RB3LYP) =  -617.229872299     A.U. after   10 cycles
 SCF Done:  E(RB3LYP) =  -617.229880632     A.U. after    9 cycles
 SCF Done:  E(RB3LYP) =  -617.229882331     A.U. after    8 cycles
 SCF Done:  E(RB3LYP) =  -617.229883040     A.U. after    8 cycles
 SCF Done:  E(RB3LYP) =  -617.229883078     A.U. after    7 cycles
 Optimization completed.
    -- Stationary point found.
 Normal termination of Gaussian 16 at Thu Dec 10 10:34:06 2020.

 --------------------------------------------------------------------
 #N Geom=AllCheck Guess=TCheck SCRF=Check GenChk RB3LYP/6-31G(d) Freq
 --------------------------------------------------------------------

 Structure from the checkpoint file:  "JID_4743.chk"
 ------------------------------
 CID_28707625_JID_4743_neutraal
 ------------------------------
 Charge =  0 Multiplicity = 1

 SCF Done:  E(RB3LYP) =  -617.229883078     A.U. after    1 cycles

  Exact polarizability: 149.338  -0.924 124.516  -5.308  -0.933 113.428
 Approx polarizability: 188.722   0.978 174.815 -12.579 -10.649 173.680

                      1                      2                      3
                      A                      A                      A
 Frequencies --     42.8360                58.7479                76.0972
 Red. masses --      3.8693                 3.3478                 3.5323
 Frc consts  --      0.0042                 0.0068                 0.0121
 IR Inten    --      1.7532                 0.1699                 0.4924

                      4                      5                      6
                      A                      A                      A
 Frequencies --     81.5750                92.5735               128.6707
 Red. masses --      2.7973                 4.7156                 2.8693
 Frc consts  --      0.0110                 0.0238                 0.0280
 IR Inten    --      0.5442                 1.5253                 1.6070

                      7                      8                      9
                      A                      A                      A
 Frequencies --    152.1823               186.0519               226.9493
 Red. masses --      3.0274                 2.7327                 1.3787
 Frc consts  --      0.0413                 0.0557                 0.0418
 IR Inten    --      1.3494                 1.3840                 0.4456

                     10                     11                     12
                      A                      A                      A
 Frequencies --    239.3937               261.2949               272.8217
 Red. masses --      2.0592                 2.2779                 1.7396
 Frc consts  --      0.0695                 0.0916                 0.0763
 IR Inten    --      5.9373                 3.8992                11.9155

                     13                     14                     15
                      A                      A                      A
 Frequencies --    307.4683               312.2103               367.0507
 Red. masses --      2.0610                 1.5016                 1.6955
 Frc consts  --      0.1148                 0.0862                 0.1346
 IR Inten    --     20.9669                62.8189                 0.9622

                     16                     17                     18
                      A                      A                      A
 Frequencies --    383.6796               434.3279               445.6334
 Red. masses --      3.0867                 3.0147                 2.3226
 Frc consts  --      0.2677                 0.3351                 0.2718
 IR Inten    --      6.6734                 1.9343                 1.5171

                     19                     20                     21
                      A                      A                      A
 Frequencies --    456.0034               498.2934               518.7827
 Red. masses --      3.1143                 2.6921                 2.1475
 Frc consts  --      0.3815                 0.3938                 0.3405
 IR Inten    --      4.6402                 8.8459                 6.3738

                     22                     23                     24
                      A                      A                      A
 Frequencies --    553.9303               650.7472               734.1534
 Red. masses --      2.2474                 2.8624                 5.0535
 Frc consts  --      0.4063                 0.7142                 1.6048
 IR Inten    --      4.1068                 8.0091                 7.6283

                     25                     26                     27
                      A                      A                      A
 Frequencies --    778.2260               794.7998               798.5745
 Red. masses --      1.9931                 1.3888                 1.5255
 Frc consts  --      0.7112                 0.5169                 0.5732
 IR Inten    --      2.1577                 3.9067                 1.6908

                     28                     29                     30
                      A                      A                      A
 Frequencies --    818.4615               861.6865               877.3519
 Red. masses --      3.2869                 2.2035                 2.0707
 Frc consts  --      1.2973                 0.9640                 0.9391
 IR Inten    --      1.5543                 7.2558                22.7630

                     31                     32                     33
                      A                      A                      A
 Frequencies --    885.3835               890.9309               903.9439
 Red. masses --      2.4152                 1.6540                 1.3826
 Frc consts  --      1.1155                 0.7735                 0.6656
 IR Inten    --      3.2203                 2.6633                69.4563

                     34                     35                     36
                      A                      A                      A
 Frequencies --    925.0412               936.9831               959.7570
 Red. masses --      1.9420                 2.0917                 1.3856
 Frc consts  --      0.9791                 1.0820                 0.7520
 IR Inten    --      6.1465                 0.7608                 3.9083

                     37                     38                     39
                      A                      A                      A
 Frequencies --   1024.0842              1044.5209              1056.2044
 Red. masses --      2.6526                 2.4226                 1.8427
 Frc consts  --      1.6391                 1.5573                 1.2112
 IR Inten    --      4.3329                11.0927                 0.5001

                     40                     41                     42
                      A                      A                      A
 Frequencies --   1065.1285              1079.9300              1110.5769
 Red. masses --      1.8191                 2.0426                 2.0057
 Frc consts  --      1.2160                 1.4035                 1.4575
 IR Inten    --     11.5475                28.7981                 3.8515

                     43                     44                     45
                      A                      A                      A
 Frequencies --   1119.4061              1124.9596              1147.1515
 Red. masses --      1.9115                 1.8197                 1.8406
 Frc consts  --      1.4112                 1.3568                 1.4271
 IR Inten    --     12.8230                30.4882                50.1674

                     46                     47                     48
                      A                      A                      A
 Frequencies --   1152.0637              1163.3056              1179.1644
 Red. masses --      1.3085                 1.4310                 1.5356
 Frc consts  --      1.0233                 1.1410                 1.2580
 IR Inten    --     12.3509                 1.5304                 1.0623

                     49                     50                     51
                      A                      A                      A
 Frequencies --   1192.1959              1240.9038              1272.1118
 Red. masses --      1.4157                 1.9616                 1.8534
 Frc consts  --      1.1856                 1.7796                 1.7672
 IR Inten    --      5.8423                80.6297                37.2134

                     52                     53                     54
                      A                      A                      A
 Frequencies --   1281.1099              1309.0563              1318.9459
 Red. masses --      1.3197                 1.2296                 1.2526
 Frc consts  --      1.2762                 1.2415                 1.2838
 IR Inten    --      9.9720                 3.1718                 0.9623

                     55                     56                     57
                      A                      A                      A
 Frequencies --   1342.3354              1348.3996              1359.3433
 Red. masses --      1.4137                 1.4434                 1.1772
 Frc consts  --      1.5009                 1.5462                 1.2816
 IR Inten    --     23.2721                14.2225                 3.4013

                     58                     59                     60
                      A                      A                      A
 Frequencies --   1372.8078              1388.3046              1399.3834
 Red. masses --      1.3137                 1.4720                 1.3092
 Frc consts  --      1.4587                 1.6716                 1.5105
 IR Inten    --      1.3351                 6.7151                17.6416

                     61                     62                     63
                      A                      A                      A
 Frequencies --   1404.7583              1406.3019              1412.0707
 Red. masses --      1.4146                 1.3944                 1.4194
 Frc consts  --      1.6447                 1.6248                 1.6675
 IR Inten    --      0.2787                 9.3636                 0.6221

                     64                     65                     66
                      A                      A                      A
 Frequencies --   1419.1643              1425.4498              1435.2713
 Red. masses --      1.2911                 1.4625                 1.2808
 Frc consts  --      1.5320                 1.7509                 1.5545
 IR Inten    --      6.9780                32.4111                14.9009

                     67                     68                     69
                      A                      A                      A
 Frequencies --   1446.3076              1479.1761              1507.0090
 Red. masses --      1.4463                 1.8200                 1.0832
 Frc consts  --      1.7825                 2.3461                 1.4495
 IR Inten    --      3.8753                97.2123                 0.6947

                     70                     71                     72
                      A                      A                      A
 Frequencies --   1510.1660              1514.8940              1517.5472
 Red. masses --      1.1318                 1.1166                 1.0966
 Frc consts  --      1.5207                 1.5098                 1.4880
 IR Inten    --     17.8679                10.5684                 3.7529

                     73                     74                     75
                      A                      A                      A
 Frequencies --   1520.0160              1523.3224              1529.6228
 Red. masses --      1.0511                 1.0914                 1.1290
 Frc consts  --      1.4308                 1.4922                 1.5563
 IR Inten    --      1.5568                12.1680                 9.9303

                     76                     77                     78
                      A                      A                      A
 Frequencies --   1535.2859              1536.0291              1536.9528
 Red. masses --      1.0872                 1.0820                 1.0741
 Frc consts  --      1.5098                 1.5041                 1.4950
 IR Inten    --      5.7118                11.0020                 3.7964

                     79                     80                     81
                      A                      A                      A
 Frequencies --   1691.3822              1731.7053              2960.3902
 Red. masses --      1.1059                 8.0742                 1.0730
 Frc consts  --      1.8641                14.2659                 5.5407
 IR Inten    --     39.8840               227.4879                78.8571

                     82                     83                     84
                      A                      A                      A
 Frequencies --   3012.0557              3024.8395              3029.0889
 Red. masses --      1.0678                 1.0660                 1.0633
 Frc consts  --      5.7078                 5.7467                 5.7479
 IR Inten    --     31.0198                16.0710                43.2327

                     85                     86                     87
                      A                      A                      A
 Frequencies --   3042.2720              3048.0751              3051.0277
 Red. masses --      1.0635                 1.0709                 1.0501
 Frc consts  --      5.7992                 5.8622                 5.7593
 IR Inten    --     22.1709                70.2631                 1.6823

                     88                     89                     90
                      A                      A                      A
 Frequencies --   3053.5438              3068.0013              3070.0405
 Red. masses --      1.0595                 1.0984                 1.0937
 Frc consts  --      5.8203                 6.0915                 6.0737
 IR Inten    --     40.8439                76.7572                51.0842

                     91                     92                     93
                      A                      A                      A
 Frequencies --   3074.3343              3076.5945              3079.6174
 Red. masses --      1.0695                 1.0863                 1.0964
 Frc consts  --      5.9556                 6.0583                 6.1265
 IR Inten    --     29.5849                51.8726                31.7907

                     94                     95                     96
                      A                      A                      A
 Frequencies --   3086.3052              3093.8931              3111.7362
 Red. masses --      1.1038                 1.0852                 1.1016
 Frc consts  --      6.1946                 6.1202                 6.2847
 IR Inten    --     53.2153                 6.1375                27.7129

                     97                     98                     99
                      A                      A                      A
 Frequencies --   3130.9669              3140.8116              3152.3349
 Red. masses --      1.0940                 1.0968                 1.1026
 Frc consts  --      6.3187                 6.3748                 6.4555
 IR Inten    --     19.2833                16.9602                19.5518

                    100                    101                    102
                      A                      A                      A
 Frequencies --   3170.8503              3473.9322              3557.0030
 Red. masses --      1.0908                 1.0500                 1.0921
 Frc consts  --      6.4618                 7.4656                 8.1413
 IR Inten    --     15.1569                 0.5709                 0.0099

 - Thermochemistry -
 -------------------
 Temperature   298.150 Kelvin.  Pressure   1.00000 Atm.
 Atom     1 has atomic number  6 and mass  12.00000

 Molecular mass:   198.17321 amu.
 Principal axes and moments of inertia in atomic units:
                           1         2         3
     Eigenvalues --  1849.159163853.120064604.06959
           X            0.99997  -0.00785  -0.00005
           Y            0.00785   0.99972   0.02215
           Z           -0.00012  -0.02215   0.99975
 This molecule is an asymmetric top.
 Rotational symmetry number  1.
 Warning -- assumption of classical behavior for rotation
           may cause significant error
 Rotational temperatures (Kelvin)      0.04684     0.02248     0.01881
 Rotational constants (GHZ):           0.97598     0.46838     0.39199
 Zero-point vibrational energy     870846.4 (Joules/Mol)
                                  208.13729 (Kcal/Mol)
 Warning -- explicit consideration of  22 degrees of freedom as
           vibrations may cause significant error
 Vibrational temperatures:     61.63    84.53   109.49   117.37   133.19
          (Kelvin)            185.13   218.96   267.69   326.53   344.43
                              375.95   392.53   442.38   449.20   528.10
                              552.03   624.90   641.17   656.09   716.93
                              746.41   796.98   936.28  1056.28  1119.69
                             1143.54  1148.97  1177.58  1239.77  1262.31
                             1273.87  1281.85  1300.57  1330.93  1348.11
                             1380.88  1473.43  1502.83  1519.64  1532.48
                             1553.78  1597.87  1610.58  1618.57  1650.50
                             1657.56  1673.74  1696.55  1715.30  1785.38
                             1830.29  1843.23  1883.44  1897.67  1931.32
                             1940.05  1955.79  1975.16  1997.46  2013.40
                             2021.13  2023.35  2031.65  2041.86  2050.90
                             2065.04  2080.91  2128.20  2168.25  2172.79
                             2179.59  2183.41  2186.96  2191.72  2200.79
                             2208.93  2210.00  2211.33  2433.52  2491.54
                             4259.34  4333.68  4352.07  4358.18  4377.15
                             4385.50  4389.75  4393.37  4414.17  4417.10
                             4423.28  4426.53  4430.88  4440.50  4451.42
                             4477.09  4504.76  4518.93  4535.51  4562.15
                             4998.21  5117.73

 Zero-point correction=                           0.331688 (Hartree/Particle)
 Thermal correction to Energy=                    0.346755
 Thermal correction to Enthalpy=                  0.347699
 Thermal correction to Gibbs Free Energy=         0.289508
 Sum of electronic and zero-point Energies=           -616.898195
 Sum of electronic and thermal Energies=              -616.883128
 Sum of electronic and thermal Enthalpies=            -616.882184
 Sum of electronic and thermal Free Energies=         -616.940375

                     E (Thermal)             CV                S
                      KCal/Mol        Cal/Mol-Kelvin    Cal/Mol-Kelvin
 Total                  217.592             57.427            122.475
 Electronic               0.000              0.000              0.000
 Translational            0.889              2.981             41.757
 Rotational               0.889              2.981             31.862
 Vibrational            215.815             51.465             48.856
 Vibration     1          0.595              1.980              5.123
 Vibration     2          0.596              1.974              4.499
 Vibration     3          0.599              1.965              3.989
 Vibration     4          0.600              1.962              3.853
 Vibration     5          0.602              1.954              3.605
 Vibration     6          0.611              1.925              2.966
 Vibration     7          0.619              1.900              2.645
 Vibration     8          0.632              1.859              2.267
 Vibration     9          0.651              1.800              1.903
 Vibration    10          0.657              1.780              1.807
 Vibration    11          0.669              1.744              1.653
 Vibration    12          0.676              1.723              1.578
 Vibration    13          0.697              1.660              1.376
 Vibration    14          0.701              1.650              1.351
 Vibration    15          0.740              1.540              1.092
 Vibration    16          0.753              1.505              1.025
 Vibration    17          0.795              1.395              0.845
 Vibration    18          0.805              1.371              0.809
 Vibration    19          0.814              1.348              0.778
 Vibration    20          0.854              1.254              0.662
 Vibration    21          0.874              1.208              0.613
 Vibration    22          0.909              1.131              0.536

 Optimization completed.
    -- Stationary point found.
 Normal termination of Gaussian 16 at Thu Dec 10 10:45:29 2020.

 ----------------------------------------------------------------------
 # B3LYP/6-311++G(d,p) empiricaldispersion=gd3bj scf=xqc pop=npa geom=c
 heck
 ----------------------------------------------------------------------

 --------------------------------------
 CID_28707625_JID_4743_Energie_neutraal
 --------------------------------------
 Structure from the checkpoint file:  "JID_4743.chk"
 Charge =  0 Multiplicity = 1

 SCF Done:  E(RB3LYP) =  -617.409370440     A.U. after   14 cycles
 Normal termination of Gaussian 16 at Thu Dec 10 10:50:15 2020.

 ----------------------------------------------------------------------
 # B3LYP/6-311++G(d,p) empiricaldispersion=gd3bj scf=xqc pop=npa geom=c
 heck
 ----------------------------------------------------------------------

 ------------------------------------
 CID_28707625_JID_4743_Energie_kation
 ------------------------------------
 Structure from the checkpoint file:  "JID_4743.chk"
 Charge =  1 Multiplicity = 2

 SCF Done:  E(UB3LYP) =  -617.104740666     A.U. after   26 cycles
 Normal termination of Gaussian 16 at Thu Dec 10 11:05:15 2020.
 Gaussian 16:  ES64L-G16RevA.03 25-Dec-2016

 ----------------------------------------------------------------------
 # B3LYP/6-311++G(d,p) empiricaldispersion=gd3bj scf=xqc pop=npa geom=c
 heck
 ----------------------------------------------------------------------

 -----------------------------------
 CID_28707625_JID_4743_Energie_anion
 -----------------------------------
 Structure from the checkpoint file:  "JID_4743.chk"
 Charge = -1 Multiplicity = 2

                         Standard orientation:
 ---------------------------------------------------------------------
 Center     Atomic      Atomic             Coordinates (Angstroms)
 Number     Number       Type             X           Y           Z
 ---------------------------------------------------------------------
      1          6           0       -1.961081    2.810887    0.123084
      2          6           0       -2.199301    1.500752   -0.628438
      3          7           0       -1.412051    0.392931   -0.075947
      4          6           0       -2.048812   -0.396535    0.976261
      5          6           0       -2.974716   -1.483535    0.423220
      6          7           0       -2.203442   -2.439216   -0.372739
      7          6           0       -0.103063    0.282139   -0.494366
      8          8           0        0.336437    1.059904   -1.343165
      9          6           0        0.767324   -0.803778    0.139016
     10          6           0        1.869586   -1.292115   -0.825421
     11          6           0        3.024477   -0.300511   -1.029439
     12          6           0        3.595624    0.187674    0.307537
     13          6           0        2.490740    0.765982    1.200493
     14          6           0        1.394968   -0.276360    1.454354
     15          1           0       -2.205837    2.710240    1.187035
     16          1           0       -2.580885    3.613189   -0.293052
     17          1           0       -0.911083    3.101432    0.032112
     18          1           0       -3.255398    1.214092   -0.584334
     19          1           0       -1.922281    1.617322   -1.677381
     20          1           0       -1.290832   -0.859891    1.605924
     21          1           0       -2.624571    0.285257    1.614882
     22          1           0       -3.418321   -2.017867    1.272067
     23          1           0       -3.807444   -1.007983   -0.125706
     24          1           0       -2.808455   -3.188385   -0.702976
     25          1           0       -1.852319   -1.966948   -1.204712
     26          1           0        0.135194   -1.665454    0.369533
     27          1           0        2.269400   -2.225789   -0.404490
     28          1           0        1.421872   -1.549869   -1.792273
     29          1           0        2.655670    0.555131   -1.600378
     30          1           0        3.813154   -0.780843   -1.623051
     31          1           0        4.375963    0.939007    0.133544
     32          1           0        4.077639   -0.650728    0.833676
     33          1           0        2.053206    1.646120    0.712524
     34          1           0        2.907297    1.102181    2.158372
     35          1           0        0.619754    0.140107    2.109837
     36          1           0        1.830767   -1.133167    1.987166
 ---------------------------------------------------------------------

 SCF Done:  E(UB3LYP) =  -617.397368593     A.U. after   30 cycles

 The electronic state is 2-A.
 Alpha  occ. eigenvalues --  -18.98168 -14.23841 -14.19048 -10.16529 -10.10308
 Alpha  occ. eigenvalues --  -10.10014 -10.08929 -10.07789 -10.07432 -10.07016
 Alpha  occ. eigenvalues --  -10.06877 -10.06833 -10.06327 -10.06179  -0.93485
 Alpha  occ. eigenvalues --   -0.83462  -0.77809  -0.73738  -0.67016  -0.65161
 Alpha  occ. eigenvalues --   -0.64613  -0.62580  -0.55452  -0.52444  -0.51462
 Alpha  occ. eigenvalues --   -0.50982  -0.46582  -0.43072  -0.40717  -0.39053
 Alpha  occ. eigenvalues --   -0.38538  -0.37335  -0.36006  -0.35200  -0.34856
 Alpha  occ. eigenvalues --   -0.33823  -0.32822  -0.31472  -0.29485  -0.28820
 Alpha  occ. eigenvalues --   -0.28645  -0.28444  -0.28087  -0.27330  -0.26980
 Alpha  occ. eigenvalues --   -0.26255  -0.25231  -0.24735  -0.24448  -0.22934
 Alpha  occ. eigenvalues --   -0.20860  -0.20676  -0.15190  -0.14894  -0.13495
 Alpha  occ. eigenvalues --    0.04326
 Alpha virt. eigenvalues --    0.06301   0.06900   0.07501   0.08269   0.08522
 Alpha virt. eigenvalues --    0.08893   0.09724   0.10034   0.10915   0.11117
 Alpha virt. eigenvalues --    0.11399   0.11692   0.11986   0.12285   0.13051

  Beta  occ. eigenvalues --  -18.98163 -14.23843 -14.19007 -10.16526 -10.10286
  Beta  occ. eigenvalues --  -10.09995 -10.08886 -10.07787 -10.07418 -10.07009
  Beta  occ. eigenvalues --  -10.06869 -10.06826 -10.06305 -10.06177  -0.93478
  Beta  occ. eigenvalues --   -0.83448  -0.77744  -0.73724  -0.66991  -0.65128
  Beta  occ. eigenvalues --   -0.64597  -0.62527  -0.55415  -0.52359  -0.51432
  Beta  occ. eigenvalues --   -0.50945  -0.46555  -0.43033  -0.40649  -0.39031
  Beta  occ. eigenvalues --   -0.38507  -0.37298  -0.35951  -0.35173  -0.34841
  Beta  occ. eigenvalues --   -0.33798  -0.32796  -0.31448  -0.29463  -0.28796
  Beta  occ. eigenvalues --   -0.28601  -0.28397  -0.28065  -0.27300  -0.26924
  Beta  occ. eigenvalues --   -0.26230  -0.25208  -0.24712  -0.24428  -0.22921
  Beta  occ. eigenvalues --   -0.20844  -0.20660  -0.15153  -0.14886  -0.13463
  Beta virt. eigenvalues --    0.06299   0.07171   0.07569   0.07901   0.08644
  Beta virt. eigenvalues --    0.09048   0.09251   0.10052   0.10416   0.11287
  Beta virt. eigenvalues --    0.11354   0.11749   0.11827   0.12167   0.12366

 Mulliken charges and spin densities:
               1          2
     1  C    0.188125  -0.597337
     2  C    0.157555  -0.310747
     3  N    0.147132   0.043472
     4  C   -1.128873   0.982615
     5  C    2.751223  -3.269781
     6  N   -0.574941   0.191022
     7  C   -0.558564  -0.299357
     8  O   -0.286044   0.011120
     9  C    0.292818   0.438419
    10  C   -0.015341  -0.433170
    11  C   -0.472271   0.137392
    12  C    0.172202  -0.715539
    13  C   -0.243348   0.028066
    14  C   -0.190846  -0.206897
    15  H   -0.142158   0.272130
    16  H   -0.101171   0.240248
    17  H    0.084385   0.078300
    18  H   -0.146983   0.288562
    19  H    0.102952   0.075445
    20  H    0.067635   0.098699
    21  H   -0.365889   0.542771
    22  H   -0.815265   0.999682
    23  H   -0.373491   0.515325
    24  H   -0.220378   0.493281
    25  H    0.117516   0.111285
    26  H    0.372734  -0.067969
    27  H   -0.023138   0.176637
    28  H    0.063145   0.095834
    29  H    0.187175   0.009186
    30  H    0.075899   0.068231
    31  H    0.058549   0.088224
    32  H    0.065711   0.045898
    33  H    0.157812  -0.007175
    34  H   -0.102554   0.269550
    35  H   -0.128490   0.262495
    36  H   -0.172823   0.344085
 Sum of Mulliken charges =  -1.00000   1.00000

 Dipole moment (field-independent basis, Debye):
    X=              7.0628    Y=              2.6858    Z=             -1.6088  Tot=              7.7256
 Quadrupole moment (field-independent basis, Debye-Ang):
   XX=           -163.6864   YY=           -137.4948   ZZ=           -126.6623
   XY=            -11.3056   XZ=              4.3479   YZ=              1.5526

 Summary of Natural Population Analysis:

                                       Natural Population
                Natural  -----------------------------------------------
    Atom  No    Charge         Core      Valence    Rydberg      Total
 -----------------------------------------------------------------------
      C    1   -0.29105      0.99966     2.28644    0.00495     3.29105
      C    2   -0.08754      0.99961     2.07654    0.01139     3.08754
      N    3   -0.26091      0.99964     2.74864    0.01263     3.76091
      C    4   -0.08791      0.99959     2.07637    0.01196     3.08791
      C    5   -0.09114      0.99963     2.08016    0.01135     3.09114
      N    6   -0.42499      0.99977     2.91434    0.01088     3.92499
      C    7    0.35477      0.99961     1.62095    0.02467     2.64523
      O    8   -0.33876      0.99988     3.33378    0.00510     4.33876
      C    9   -0.15767      0.99954     2.14816    0.00997     3.15767
      C   10   -0.18413      0.99962     2.17443    0.01008     3.18413
      C   11   -0.19474      0.99962     2.18764    0.00748     3.19474
      C   12   -0.18741      0.99963     2.18087    0.00691     3.18741
      C   13   -0.19495      0.99963     2.18616    0.00917     3.19495
      C   14   -0.18544      0.99961     2.17666    0.00917     3.18544
      H   15    0.09760      0.00000     0.40131    0.00108     0.40240
      H   16    0.09773      0.00000     0.40149    0.00077     0.40227
      H   17    0.10368      0.00000     0.39526    0.00106     0.39632
      H   18    0.09628      0.00000     0.40213    0.00159     0.40372
      H   19    0.10663      0.00000     0.39220    0.00116     0.39337
      H   20    0.10249      0.00000     0.39539    0.00211     0.39751
      H   21    0.10089      0.00000     0.39695    0.00216     0.39911
      H   22    0.09575      0.00000     0.40125    0.00300     0.40425
      H   23    0.08073      0.00000     0.41588    0.00339     0.41927
      H   24    0.18106      0.00000     0.31579    0.00315     0.31894
      H   25    0.17264      0.00000     0.32499    0.00237     0.32736
      H   26    0.11994      0.00000     0.37733    0.00273     0.38006
      H   27    0.09411      0.00000     0.40485    0.00104     0.40589
      H   28    0.10253      0.00000     0.39649    0.00098     0.39747
      H   29    0.10992      0.00000     0.38876    0.00133     0.39008
      H   30    0.09189      0.00000     0.40717    0.00094     0.40811
      H   31    0.09515      0.00000     0.40392    0.00094     0.40485
      H   32    0.08906      0.00000     0.40966    0.00127     0.41094
      H   33    0.10012      0.00000     0.39853    0.00134     0.39988
      H   34    0.09628      0.00000     0.40281    0.00091     0.40372
      H   35    0.10113      0.00000     0.39762    0.00125     0.39887
      H   36    0.09627      0.00000     0.40249    0.00124     0.40373
 =======================================================================
   * Total *   -0.00000     13.99504    40.82343    0.18153    55.00000

 Normal termination of Gaussian 16 at Thu Dec 10 11:20:08 2020.
