 Gaussian 16, Revision A.03,

 -----------------------------------------------------------
 # opt freq B3LYP/6-31G(d) empiricaldispersion=gd3bj scf=xqc
 -----------------------------------------------------------

 -------------------------------
 CID_107751777_JID_4851_neutraal
 -------------------------------
 Symbolic Z-matrix:
 Charge =  0 Multiplicity = 1

 SCF Done:  E(RB3LYP) =  -945.209238917     A.U. after   13 cycles
 SCF Done:  E(RB3LYP) =  -945.213141094     A.U. after   11 cycles
 SCF Done:  E(RB3LYP) =  -945.213548412     A.U. after   11 cycles
 SCF Done:  E(RB3LYP) =  -945.214052705     A.U. after   13 cycles
 SCF Done:  E(RB3LYP) =  -945.214386652     A.U. after   10 cycles
 SCF Done:  E(RB3LYP) =  -945.214443432     A.U. after   10 cycles
 SCF Done:  E(RB3LYP) =  -945.214486980     A.U. after   11 cycles
 SCF Done:  E(RB3LYP) =  -945.214500338     A.U. after    9 cycles
 SCF Done:  E(RB3LYP) =  -945.214507095     A.U. after    9 cycles
 SCF Done:  E(RB3LYP) =  -945.214507551     A.U. after    9 cycles
 SCF Done:  E(RB3LYP) =  -945.214507330     A.U. after    9 cycles
 SCF Done:  E(RB3LYP) =  -945.214508186     A.U. after    8 cycles
 SCF Done:  E(RB3LYP) =  -945.214508320     A.U. after    7 cycles
 SCF Done:  E(RB3LYP) =  -945.214508336     A.U. after    6 cycles
 Optimization completed.
    -- Stationary point found.
 Normal termination of Gaussian 16 at Thu Dec 10 10:43:47 2020.

 --------------------------------------------------------------------
 #N Geom=AllCheck Guess=TCheck SCRF=Check GenChk RB3LYP/6-31G(d) Freq
 --------------------------------------------------------------------

 Structure from the checkpoint file:  "JID_4851.chk"
 -------------------------------
 CID_107751777_JID_4851_neutraal
 -------------------------------
 Charge =  0 Multiplicity = 1

 SCF Done:  E(RB3LYP) =  -945.214508336     A.U. after    1 cycles

  Exact polarizability: 179.864  -2.721 139.821   2.947   0.358 119.893
 Approx polarizability: 217.811  -3.154 196.559   4.613   1.507 192.584

                      1                      2                      3
                      A                      A                      A
 Frequencies --     20.8050                25.3207                49.2027
 Red. masses --      4.0374                 3.6009                 2.9834
 Frc consts  --      0.0010                 0.0014                 0.0043
 IR Inten    --      0.1031                 0.1480                 0.1002

                      4                      5                      6
                      A                      A                      A
 Frequencies --     62.8602                96.3936               113.6113
 Red. masses --      3.6789                 2.4010                 2.3085
 Frc consts  --      0.0086                 0.0131                 0.0176
 IR Inten    --      0.3269                 0.1495                 0.1984

                      7                      8                      9
                      A                      A                      A
 Frequencies --    119.2547               162.4045               195.8299
 Red. masses --      3.4403                 2.6345                 2.0765
 Frc consts  --      0.0288                 0.0409                 0.0469
 IR Inten    --      1.6964                 0.2762                 0.0415

                     10                     11                     12
                      A                      A                      A
 Frequencies --    215.8282               255.3404               265.4588
 Red. masses --      1.5499                 4.6473                 3.7697
 Frc consts  --      0.0425                 0.1785                 0.1565
 IR Inten    --      0.1581                 3.1873                 0.9746

                     13                     14                     15
                      A                      A                      A
 Frequencies --    289.6241               317.2710               332.8253
 Red. masses --      1.5515                 2.0560                 3.2163
 Frc consts  --      0.0767                 0.1219                 0.2099
 IR Inten    --      0.2064                 1.4272                 0.7384

                     16                     17                     18
                      A                      A                      A
 Frequencies --    344.8917               376.0147               403.8958
 Red. masses --      2.5260                 2.7699                 2.1451
 Frc consts  --      0.1770                 0.2307                 0.2062
 IR Inten    --      0.3270                 2.4556                 4.3773

                     19                     20                     21
                      A                      A                      A
 Frequencies --    409.0238               442.4340               458.2507
 Red. masses --      1.7662                 1.7949                 2.3828
 Frc consts  --      0.1741                 0.2070                 0.2948
 IR Inten    --     53.0734                40.8410                28.7606

                     22                     23                     24
                      A                      A                      A
 Frequencies --    518.1467               525.0658               548.6269
 Red. masses --      2.0969                 2.1890                 3.5765
 Frc consts  --      0.3317                 0.3556                 0.6343
 IR Inten    --      0.6029                 2.3370                 4.4948

                     25                     26                     27
                      A                      A                      A
 Frequencies --    677.6495               730.0735               756.1095
 Red. masses --      2.5395                 1.9841                 1.4343
 Frc consts  --      0.6871                 0.6231                 0.4831
 IR Inten    --      1.6666                 2.8254                15.2697

                     28                     29                     30
                      A                      A                      A
 Frequencies --    776.6451               782.5833               788.6490
 Red. masses --      1.8731                 1.7770                 2.2177
 Frc consts  --      0.6656                 0.6412                 0.8127
 IR Inten    --      1.7237                13.2034                 0.5972

                     31                     32                     33
                      A                      A                      A
 Frequencies --    860.7709               872.9343               890.5573
 Red. masses --      1.5271                 2.4640                 2.1365
 Frc consts  --      0.6666                 1.1062                 0.9983
 IR Inten    --      1.4722                 1.4517                 1.3515

                     34                     35                     36
                      A                      A                      A
 Frequencies --    894.5416               918.0108               961.8625
 Red. masses --      2.0390                 1.8596                 1.4842
 Frc consts  --      0.9613                 0.9234                 0.8090
 IR Inten    --      2.5785                 8.1214                 0.5304

                     37                     38                     39
                      A                      A                      A
 Frequencies --    965.9736               987.1104              1015.4208
 Red. masses --      2.0371                 1.7005                 2.1637
 Frc consts  --      1.1199                 0.9762                 1.3144
 IR Inten    --      3.3438                 0.6017                15.8237

                     40                     41                     42
                      A                      A                      A
 Frequencies --   1034.4177              1036.8479              1058.7745
 Red. masses --      1.7854                 1.8578                 1.9283
 Frc consts  --      1.1256                 1.1768                 1.2736
 IR Inten    --      1.0322                 1.0201                 4.0326

                     43                     44                     45
                      A                      A                      A
 Frequencies --   1090.2968              1095.1808              1101.7662
 Red. masses --      2.0857                 2.7966                 2.2802
 Frc consts  --      1.4608                 1.9763                 1.6308
 IR Inten    --      6.5275                19.2511                44.0807

                     46                     47                     48
                      A                      A                      A
 Frequencies --   1111.3307              1126.9872              1138.0668
 Red. masses --      1.2618                 2.2877                 2.0807
 Frc consts  --      0.9182                 1.7120                 1.5878
 IR Inten    --      0.8233                 0.6956                 0.7349

                     49                     50                     51
                      A                      A                      A
 Frequencies --   1146.5319              1189.2190              1202.5597
 Red. masses --      2.3478                 1.3202                 1.3215
 Frc consts  --      1.8184                 1.1001                 1.1260
 IR Inten    --      2.3407                 3.7828                 1.6921

                     52                     53                     54
                      A                      A                      A
 Frequencies --   1220.6893              1238.8076              1252.6737
 Red. masses --      1.2777                 1.3769                 1.2362
 Frc consts  --      1.1218                 1.2450                 1.1429
 IR Inten    --      1.0976                 6.9862                 4.7434

                     55                     56                     57
                      A                      A                      A
 Frequencies --   1269.9060              1297.1186              1299.2705
 Red. masses --      1.2831                 1.2205                 1.2285
 Frc consts  --      1.2192                 1.2098                 1.2219
 IR Inten    --     25.9764                 1.9261                 9.6023

                     58                     59                     60
                      A                      A                      A
 Frequencies --   1310.5393              1324.8260              1332.6154
 Red. masses --      1.1825                 1.1995                 1.2070
 Frc consts  --      1.1966                 1.2404                 1.2629
 IR Inten    --     47.3927                11.2565                 4.6505

                     61                     62                     63
                      A                      A                      A
 Frequencies --   1340.2821              1349.0969              1379.6025
 Red. masses --      1.1789                 1.1398                 1.2471
 Frc consts  --      1.2478                 1.2222                 1.3984
 IR Inten    --      7.0850                14.8688                 8.4805

                     64                     65                     66
                      A                      A                      A
 Frequencies --   1384.0329              1384.3026              1401.2731
 Red. masses --      1.4314                 1.3650                 1.3559
 Frc consts  --      1.6155                 1.5412                 1.5687
 IR Inten    --      7.6754                 1.0148                 1.6665

                     67                     68                     69
                      A                      A                      A
 Frequencies --   1410.5573              1411.8094              1416.0355
 Red. masses --      1.4296                 1.3991                 1.4174
 Frc consts  --      1.6759                 1.6430                 1.6745
 IR Inten    --      5.0956                 1.2797                 7.6296

                     70                     71                     72
                      A                      A                      A
 Frequencies --   1418.9779              1423.6586              1444.2340
 Red. masses --      1.3771                 1.4079                 1.2718
 Frc consts  --      1.6337                 1.6812                 1.5630
 IR Inten    --      2.1940                15.3881                 6.3231

                     73                     74                     75
                      A                      A                      A
 Frequencies --   1451.3587              1506.3822              1512.5505
 Red. masses --      1.5299                 1.0748                 1.0783
 Frc consts  --      1.8987                 1.4369                 1.4534
 IR Inten    --     55.9367                 4.8333                 6.7290

                     76                     77                     78
                      A                      A                      A
 Frequencies --   1514.3098              1516.8351              1521.3009
 Red. masses --      1.0802                 1.0890                 1.0907
 Frc consts  --      1.4594                 1.4763                 1.4873
 IR Inten    --      3.2533                 1.2925                 6.7927

                     79                     80                     81
                      A                      A                      A
 Frequencies --   1521.7384              1529.4523              1532.6488
 Red. masses --      1.0902                 1.0601                 1.0702
 Frc consts  --      1.4874                 1.4611                 1.4811
 IR Inten    --      3.4718                 4.8596                 5.9752

                     82                     83                     84
                      A                      A                      A
 Frequencies --   1535.1969              1538.2871              1543.2609
 Red. masses --      1.0550                 1.0920                 1.0817
 Frc consts  --      1.4650                 1.5225                 1.5178
 IR Inten    --     11.2472                 1.8611                 4.4260

                     85                     86                     87
                      A                      A                      A
 Frequencies --   2949.8367              3028.8204              3033.6243
 Red. masses --      1.0824                 1.0632                 1.0667
 Frc consts  --      5.5494                 5.7467                 5.7837
 IR Inten    --     41.4751                14.1101                13.6925

                     88                     89                     90
                      A                      A                      A
 Frequencies --   3035.2645              3037.7946              3039.9728
 Red. masses --      1.0659                 1.0631                 1.0584
 Frc consts  --      5.7858                 5.7801                 5.7629
 IR Inten    --     15.3593                32.1817                22.1869

                     91                     92                     93
                      A                      A                      A
 Frequencies --   3043.0018              3043.1723              3047.4410
 Red. masses --      1.0462                 1.0641                 1.0691
 Frc consts  --      5.7079                 5.8061                 5.8499
 IR Inten    --     20.5202                14.0028                 3.1493

                     94                     95                     96
                      A                      A                      A
 Frequencies --   3047.5930              3058.1443              3060.0962
 Red. masses --      1.0554                 1.0715                 1.0763
 Frc consts  --      5.7752                 5.9040                 5.9382
 IR Inten    --     30.3357                 9.3189                11.4762

                     97                     98                     99
                      A                      A                      A
 Frequencies --   3061.5333              3069.6064              3075.8155
 Red. masses --      1.0920                 1.0982                 1.0986
 Frc consts  --      6.0304                 6.0967                 6.1236
 IR Inten    --     28.7948                25.0856                28.6147

                    100                    101                    102
                      A                      A                      A
 Frequencies --   3076.0963              3079.4407              3088.6363
 Red. masses --      1.0970                 1.0989                 1.1005
 Frc consts  --      6.1159                 6.1398                 6.1857
 IR Inten    --     82.7085                54.1812                 4.6794

                    103                    104                    105
                      A                      A                      A
 Frequencies --   3089.4098              3091.9426              3106.4422
 Red. masses --      1.1005                 1.1022                 1.1060
 Frc consts  --      6.1886                 6.2084                 6.2880
 IR Inten    --     59.8878                97.5154                50.3951

                    106                    107                    108
                      A                      A                      A
 Frequencies --   3109.5699              3113.9094              3661.5905
 Red. masses --      1.1038                 1.1018                 1.0651
 Frc consts  --      6.2882                 6.2945                 8.4134
 IR Inten    --     49.9599                35.4940                65.8082

 - Thermochemistry -
 -------------------
 Temperature   298.150 Kelvin.  Pressure   1.00000 Atm.
 Atom     1 has atomic number  6 and mass  12.00000

 Molecular mass:   216.15479 amu.
 Principal axes and moments of inertia in atomic units:
                           1         2         3
     Eigenvalues --  1770.378976148.483097365.77412
           X            1.00000  -0.00156   0.00183
           Y            0.00156   1.00000  -0.00152
           Z           -0.00183   0.00152   1.00000
 This molecule is an asymmetric top.
 Rotational symmetry number  1.
 Warning -- assumption of classical behavior for rotation
           may cause significant error
 Rotational temperatures (Kelvin)      0.04892     0.01409     0.01176
 Rotational constants (GHZ):           1.01941     0.29353     0.24502
 Zero-point vibrational energy     917186.7 (Joules/Mol)
                                  219.21288 (Kcal/Mol)
 Warning -- explicit consideration of  24 degrees of freedom as
           vibrations may cause significant error
 Vibrational temperatures:     29.93    36.43    70.79    90.44   138.69
          (Kelvin)            163.46   171.58   233.66   281.76   310.53
                              367.38   381.94   416.70   456.48   478.86
                              496.22   541.00   581.12   588.49   636.56
                              659.32   745.50   755.45   789.35   974.99
                             1050.41  1087.87  1117.42  1125.96  1134.69
                             1238.46  1255.96  1281.31  1287.05  1320.81
                             1383.91  1389.82  1420.23  1460.96  1488.30
                             1491.79  1523.34  1568.69  1575.72  1585.20
                             1598.96  1621.48  1637.42  1649.60  1711.02
                             1730.22  1756.30  1782.37  1802.32  1827.11
                             1866.26  1869.36  1885.57  1906.13  1917.34
                             1928.37  1941.05  1984.94  1991.31  1991.70
                             2016.12  2029.48  2031.28  2037.36  2041.59
                             2048.33  2077.93  2088.18  2167.35  2176.22
                             2178.75  2182.39  2188.81  2189.44  2200.54
                             2205.14  2208.81  2213.25  2220.41  4244.16
                             4357.80  4364.71  4367.07  4370.71  4373.84
                             4378.20  4378.45  4384.59  4384.81  4399.99
                             4402.80  4404.86  4416.48  4425.41  4425.82
                             4430.63  4443.86  4444.97  4448.62  4469.48
                             4473.98  4480.22  5268.21

 Zero-point correction=                           0.349338 (Hartree/Particle)
 Thermal correction to Energy=                    0.365629
 Thermal correction to Enthalpy=                  0.366573
 Thermal correction to Gibbs Free Energy=         0.303818
 Sum of electronic and zero-point Energies=           -944.865170
 Sum of electronic and thermal Energies=              -944.848879
 Sum of electronic and thermal Enthalpies=            -944.847935
 Sum of electronic and thermal Free Energies=         -944.910690

                     E (Thermal)             CV                S
                      KCal/Mol        Cal/Mol-Kelvin    Cal/Mol-Kelvin
 Total                  229.436             61.405            132.078
 Electronic               0.000              0.000              0.000
 Translational            0.889              2.981             42.016
 Rotational               0.889              2.981             32.750
 Vibrational            227.658             55.444             57.313
 Vibration     1          0.593              1.986              6.556
 Vibration     2          0.593              1.985              6.166
 Vibration     3          0.595              1.978              4.849
 Vibration     4          0.597              1.972              4.365
 Vibration     5          0.603              1.952              3.526
 Vibration     6          0.607              1.938              3.206
 Vibration     7          0.609              1.933              3.112
 Vibration     8          0.623              1.889              2.522
 Vibration     9          0.636              1.846              2.172
 Vibration    10          0.645              1.817              1.994
 Vibration    11          0.666              1.754              1.693
 Vibration    12          0.671              1.736              1.626
 Vibration    13          0.686              1.693              1.476
 Vibration    14          0.704              1.641              1.324
 Vibration    15          0.715              1.610              1.246
 Vibration    16          0.723              1.586              1.189
 Vibration    17          0.747              1.521              1.055
 Vibration    18          0.769              1.462              0.948
 Vibration    19          0.773              1.451              0.930
 Vibration    20          0.802              1.378              0.819
 Vibration    21          0.816              1.343              0.771
 Vibration    22          0.873              1.210              0.614
 Vibration    23          0.880              1.195              0.598
 Vibration    24          0.904              1.143              0.547

 Optimization completed.
    -- Stationary point found.
 Normal termination of Gaussian 16 at Thu Dec 10 10:55:00 2020.

 ----------------------------------------------------------------------
 # B3LYP/6-311++G(d,p) empiricaldispersion=gd3bj scf=xqc pop=npa geom=c
 heck
 ----------------------------------------------------------------------

 ---------------------------------------
 CID_107751777_JID_4851_Energie_neutraal
 ---------------------------------------
 Structure from the checkpoint file:  "JID_4851.chk"
 Charge =  0 Multiplicity = 1

 SCF Done:  E(RB3LYP) =  -945.404063565     A.U. after   13 cycles
 Normal termination of Gaussian 16 at Thu Dec 10 11:00:07 2020.

 ----------------------------------------------------------------------
 # B3LYP/6-311++G(d,p) empiricaldispersion=gd3bj scf=xqc pop=npa geom=c
 heck
 ----------------------------------------------------------------------

 -------------------------------------
 CID_107751777_JID_4851_Energie_kation
 -------------------------------------
 Structure from the checkpoint file:  "JID_4851.chk"
 Charge =  1 Multiplicity = 2

 SCF Done:  E(UB3LYP) =  -945.097163497     A.U. after   20 cycles
 Normal termination of Gaussian 16 at Thu Dec 10 11:11:50 2020.
 Gaussian 16:  ES64L-G16RevA.03 25-Dec-2016

 ----------------------------------------------------------------------
 # B3LYP/6-311++G(d,p) empiricaldispersion=gd3bj scf=xqc pop=npa geom=c
 heck
 ----------------------------------------------------------------------

 ------------------------------------
 CID_107751777_JID_4851_Energie_anion
 ------------------------------------
 Structure from the checkpoint file:  "JID_4851.chk"
 Charge = -1 Multiplicity = 2

                         Standard orientation:
 ---------------------------------------------------------------------
 Center     Atomic      Atomic             Coordinates (Angstroms)
 Number     Number       Type             X           Y           Z
 ---------------------------------------------------------------------
      1          6           0        4.434274    1.751892    0.265687
      2          6           0        3.759631    0.888703   -0.804598
      3          6           0        3.781231   -0.616400   -0.502953
      4          6           0        3.104343   -1.025875    0.815026
      5          6           0        1.662561   -0.540310    0.982377
      6         16           0        0.574735   -1.176725   -0.353388
      7          6           0       -0.981497   -0.255294    0.081060
      8          6           0       -0.964688    1.134916   -0.575589
      9          6           0       -1.769283    2.233935    0.137191
     10          6           0       -3.191575    1.858114    0.593746
     11          6           0       -3.918178    0.834984   -0.293307
     12          6           0       -3.552202   -0.617016    0.038496
     13          6           0       -2.169768   -1.132211   -0.373751
     14          8           0       -2.102509   -2.438696    0.180663
     15          1           0        3.912913    1.691311    1.227993
     16          1           0        4.452799    2.806472   -0.030747
     17          1           0        5.470837    1.433689    0.432696
     18          1           0        2.722008    1.217713   -0.948339
     19          1           0        4.259155    1.053649   -1.767845
     20          1           0        3.302325   -1.147891   -1.333957
     21          1           0        4.823224   -0.963182   -0.472541
     22          1           0        3.128734   -2.118829    0.906246
     23          1           0        3.678290   -0.635021    1.665150
     24          1           0        1.259973   -0.873010    1.944573
     25          1           0        1.620242    0.554095    0.960468
     26          1           0       -0.997096   -0.182630    1.175650
     27          1           0       -1.314418    1.020105   -1.609672
     28          1           0        0.070792    1.482304   -0.657849
     29          1           0       -1.823190    3.088263   -0.550034
     30          1           0       -1.200962    2.585220    1.008495
     31          1           0       -3.785031    2.777941    0.662142
     32          1           0       -3.155997    1.450949    1.613138
     33          1           0       -3.745904    1.050796   -1.356874
     34          1           0       -4.998375    0.942482   -0.137301
     35          1           0       -4.277889   -1.298941   -0.419815
     36          1           0       -3.637979   -0.766104    1.123018
     37          1           0       -2.124392   -1.178568   -1.477413
     38          1           0       -1.184842   -2.746272    0.071414
 ---------------------------------------------------------------------

 SCF Done:  E(UB3LYP) =  -945.390732681     A.U. after   27 cycles

 The electronic state is 2-A.
 Alpha  occ. eigenvalues --  -88.74768 -19.02944 -10.13776 -10.11482 -10.10655
 Alpha  occ. eigenvalues --  -10.08176 -10.07914 -10.07711 -10.07672 -10.07299
 Alpha  occ. eigenvalues --  -10.07126 -10.07037 -10.06975 -10.05937  -7.83440
 Alpha  occ. eigenvalues --   -5.79808  -5.79473  -5.78828  -0.93626  -0.74565
 Alpha  occ. eigenvalues --   -0.72482  -0.69559  -0.66959  -0.66246  -0.61944
 Alpha  occ. eigenvalues --   -0.58102  -0.55740  -0.54526  -0.50940  -0.48019
 Alpha  occ. eigenvalues --   -0.46466  -0.45747  -0.42494  -0.39272  -0.38447
 Alpha  occ. eigenvalues --   -0.37388  -0.36907  -0.36206  -0.33243  -0.32895
 Alpha  occ. eigenvalues --   -0.32804  -0.31575  -0.31052  -0.30385  -0.29565
 Alpha  occ. eigenvalues --   -0.28825  -0.28149  -0.27034  -0.26195  -0.25700
 Alpha  occ. eigenvalues --   -0.24469  -0.23400  -0.23181  -0.23065  -0.22888
 Alpha  occ. eigenvalues --   -0.22368  -0.22227  -0.20866  -0.18746  -0.13952
 Alpha  occ. eigenvalues --    0.04207
 Alpha virt. eigenvalues --    0.05661   0.06852   0.07032   0.07886   0.08095
 Alpha virt. eigenvalues --    0.08318   0.09249   0.09564   0.10004   0.10192
 Alpha virt. eigenvalues --    0.10728   0.10806   0.11409   0.11557   0.12106

  Beta  occ. eigenvalues --  -88.74767 -19.02942 -10.13777 -10.11475 -10.10629
  Beta  occ. eigenvalues --  -10.08159 -10.07905 -10.07705 -10.07657 -10.07291
  Beta  occ. eigenvalues --  -10.07102 -10.07016 -10.06960 -10.05893  -7.83439
  Beta  occ. eigenvalues --   -5.79808  -5.79467  -5.78827  -0.93622  -0.74544
  Beta  occ. eigenvalues --   -0.72453  -0.69532  -0.66930  -0.66212  -0.61906
  Beta  occ. eigenvalues --   -0.58056  -0.55707  -0.54478  -0.50877  -0.47994
  Beta  occ. eigenvalues --   -0.46411  -0.45685  -0.42480  -0.39240  -0.38410
  Beta  occ. eigenvalues --   -0.37368  -0.36880  -0.36177  -0.33201  -0.32862
  Beta  occ. eigenvalues --   -0.32778  -0.31544  -0.31022  -0.30361  -0.29531
  Beta  occ. eigenvalues --   -0.28801  -0.28103  -0.27000  -0.26167  -0.25676
  Beta  occ. eigenvalues --   -0.24436  -0.23368  -0.23140  -0.23036  -0.22858
  Beta  occ. eigenvalues --   -0.22338  -0.22196  -0.20834  -0.18738  -0.13943
  Beta virt. eigenvalues --    0.06332   0.06493   0.07249   0.07497   0.08290
  Beta virt. eigenvalues --    0.08514   0.08577   0.09532   0.09877   0.10376
  Beta virt. eigenvalues --    0.10479   0.10920   0.11076   0.11599   0.11793

 Mulliken charges and spin densities:
               1          2
     1  C    1.172370  -1.788511
     2  C   -0.696831   0.489449
     3  C    0.143726  -0.202210
     4  C    0.070042  -0.570930
     5  C   -0.257158  -0.027445
     6  S    0.013571  -0.185672
     7  C    0.148505   0.281523
     8  C   -0.269433  -0.093136
     9  C    0.615495  -1.152384
    10  C   -0.189761  -0.118233
    11  C    0.049529  -0.276207
    12  C    0.107322  -0.283082
    13  C   -0.628754  -0.163910
    14  O   -0.157454   0.006678
    15  H   -0.469405   0.620124
    16  H   -0.291601   0.428150
    17  H   -0.185771   0.321339
    18  H    0.018997   0.153928
    19  H   -0.176209   0.327886
    20  H    0.062934   0.059689
    21  H   -0.156500   0.328488
    22  H    0.078014   0.068717
    23  H   -0.202761   0.380825
    24  H   -0.071249   0.304437
    25  H    0.349736  -0.223859
    26  H    0.162625   0.105440
    27  H    0.023720   0.122863
    28  H    0.369803  -0.214873
    29  H   -0.209997   0.361648
    30  H   -0.342289   0.508628
    31  H   -0.445161   0.635189
    32  H    0.104076   0.011709
    33  H    0.109677   0.003029
    34  H   -0.427466   0.614115
    35  H    0.148844   0.016607
    36  H    0.072248   0.103540
    37  H    0.133294   0.051755
    38  H    0.223270  -0.005304
 Sum of Mulliken charges =  -1.00000   1.00000

 Dipole moment (field-independent basis, Debye):
    X=             -1.9194    Y=             -5.4801    Z=             -2.8118  Tot=              6.4515
 Quadrupole moment (field-independent basis, Debye-Ang):
   XX=           -202.4250   YY=           -153.5463   ZZ=           -129.9201
   XY=             -2.2696   XZ=             -1.0672   YZ=             -2.0722

 Summary of Natural Population Analysis:

                                       Natural Population
                Natural  -----------------------------------------------
    Atom  No    Charge         Core      Valence    Rydberg      Total
 -----------------------------------------------------------------------
      C    1   -0.28794      0.99967     2.28307    0.00520     3.28794
      C    2   -0.19396      0.99964     2.18591    0.00841     3.19396
      C    3   -0.19116      0.99962     2.18237    0.00916     3.19116
      C    4   -0.19629      0.99962     2.18711    0.00957     3.19629
      C    5   -0.24564      0.99959     2.23574    0.01030     3.24564
      S    6    0.07195      4.99958     2.91290    0.01556     7.92805
      C    7   -0.16962      0.99954     2.15651    0.01357     3.16962
      C    8   -0.19994      0.99959     2.18931    0.01103     3.19994
      C    9   -0.18784      0.99962     2.17887    0.00935     3.18784
      C   10   -0.19200      0.99963     2.18377    0.00860     3.19200
      C   11   -0.19461      0.99962     2.18598    0.00901     3.19461
      C   12   -0.19412      0.99960     2.18357    0.01094     3.19412
      C   13    0.06574      0.99950     1.92219    0.01257     2.93426
      O   14   -0.37898      0.99989     3.37264    0.00645     4.37898
      H   15    0.09749      0.00000     0.40092    0.00160     0.40251
      H   16    0.10098      0.00000     0.39788    0.00114     0.39902
      H   17    0.09548      0.00000     0.40313    0.00139     0.40452
      H   18    0.09563      0.00000     0.40265    0.00172     0.40437
      H   19    0.09542      0.00000     0.40354    0.00104     0.40458
      H   20    0.09856      0.00000     0.40030    0.00114     0.40144
      H   21    0.09601      0.00000     0.40307    0.00093     0.40399
      H   22    0.09810      0.00000     0.40078    0.00111     0.40190
      H   23    0.10445      0.00000     0.39431    0.00124     0.39555
      H   24    0.10347      0.00000     0.39493    0.00160     0.39653
      H   25    0.10352      0.00000     0.39467    0.00181     0.39648
      H   26    0.10310      0.00000     0.39475    0.00215     0.39690
      H   27    0.09587      0.00000     0.40268    0.00144     0.40413
      H   28    0.10737      0.00000     0.39099    0.00164     0.39263
      H   29    0.09841      0.00000     0.40044    0.00114     0.40159
      H   30    0.09985      0.00000     0.39863    0.00151     0.40015
      H   31    0.10230      0.00000     0.39602    0.00168     0.39770
      H   32    0.09277      0.00000     0.40591    0.00133     0.40723
      H   33    0.09424      0.00000     0.40471    0.00105     0.40576
      H   34    0.10217      0.00000     0.39669    0.00115     0.39783
      H   35    0.10168      0.00000     0.39740    0.00092     0.39832
      H   36    0.09954      0.00000     0.39901    0.00145     0.40046
      H   37    0.07402      0.00000     0.42436    0.00163     0.42598
      H   38    0.23395      0.00000     0.26268    0.00337     0.26605
 =======================================================================
   * Total *    0.00000     17.99473    41.83040    0.17488    60.00000

 Normal termination of Gaussian 16 at Thu Dec 10 11:24:29 2020.
