 Gaussian 16, Revision A.03,

 -----------------------------------------------------------
 # opt freq B3LYP/6-31G(d) empiricaldispersion=gd3bj scf=xqc
 -----------------------------------------------------------

 -----------------------------
 CID_6492145_JID_8600_neutraal
 -----------------------------
 Symbolic Z-matrix:
 Charge =  0 Multiplicity = 1

 SCF Done:  E(RB3LYP) =  -820.538231147     A.U. after   15 cycles
 SCF Done:  E(RB3LYP) =  -820.547061876     A.U. after   13 cycles
 SCF Done:  E(RB3LYP) =  -820.545531037     A.U. after   13 cycles
 SCF Done:  E(RB3LYP) =  -820.550234135     A.U. after   12 cycles
 SCF Done:  E(RB3LYP) =  -820.553837733     A.U. after   12 cycles
 SCF Done:  E(RB3LYP) =  -820.556114977     A.U. after   15 cycles
 SCF Done:  E(RB3LYP) =  -820.559587325     A.U. after   13 cycles
 SCF Done:  E(RB3LYP) =  -820.563337463     A.U. after   13 cycles
 SCF Done:  E(RB3LYP) =  -820.565717441     A.U. after   15 cycles
 SCF Done:  E(RB3LYP) =  -820.567303250     A.U. after   12 cycles
 SCF Done:  E(RB3LYP) =  -820.567771599     A.U. after    9 cycles
 SCF Done:  E(RB3LYP) =  -820.567773274     A.U. after    8 cycles
 SCF Done:  E(RB3LYP) =  -820.567775153     A.U. after   10 cycles
 SCF Done:  E(RB3LYP) =  -820.567775481     A.U. after    8 cycles
 SCF Done:  E(RB3LYP) =  -820.567775550     A.U. after    7 cycles
 Optimization completed.
    -- Stationary point found.
 Normal termination of Gaussian 16 at Sun Dec 13 20:17:31 2020.

 --------------------------------------------------------------------
 #N Geom=AllCheck Guess=TCheck SCRF=Check GenChk RB3LYP/6-31G(d) Freq
 --------------------------------------------------------------------

 Structure from the checkpoint file:  "JID_8600.chk"
 -----------------------------
 CID_6492145_JID_8600_neutraal
 -----------------------------
 Charge =  0 Multiplicity = 1

 SCF Done:  E(RB3LYP) =  -820.567775550     A.U. after    1 cycles

  Exact polarizability: 180.630  13.597 173.680 -15.302  -2.394  95.160
 Approx polarizability: 271.553  33.392 280.519 -35.956  -2.316 170.017

                      1                      2                      3
                      A                      A                      A
 Frequencies --     30.5735                38.9318                58.2406
 Red. masses --      5.7369                 5.5937                 4.6810
 Frc consts  --      0.0032                 0.0050                 0.0094
 IR Inten    --      0.3499                 0.0478                 0.1855

                      4                      5                      6
                      A                      A                      A
 Frequencies --     78.3770               102.9924               137.0066
 Red. masses --      7.5215                 4.4572                 5.7232
 Frc consts  --      0.0272                 0.0279                 0.0633
 IR Inten    --      2.0524                 1.3992                 0.1623

                      7                      8                      9
                      A                      A                      A
 Frequencies --    192.5413               200.4451               231.1693
 Red. masses --      5.6832                 4.7767                 4.2508
 Frc consts  --      0.1241                 0.1131                 0.1338
 IR Inten    --      0.6899                 4.3152                 1.9849

                     10                     11                     12
                      A                      A                      A
 Frequencies --    262.2373               314.3166               337.6220
 Red. masses --      2.9279                 5.8706                 8.3345
 Frc consts  --      0.1186                 0.3417                 0.5597
 IR Inten    --     13.6750                 0.5846                 2.0836

                     13                     14                     15
                      A                      A                      A
 Frequencies --    389.4233               433.0706               439.3736
 Red. masses --      6.7016                 4.1382                 3.1981
 Frc consts  --      0.5988                 0.4573                 0.3638
 IR Inten    --      1.1997                 2.6684                 4.5978

                     16                     17                     18
                      A                      A                      A
 Frequencies --    525.2703               573.9528               585.4661
 Red. masses --      5.5065                 4.3165                 4.2557
 Frc consts  --      0.8951                 0.8378                 0.8595
 IR Inten    --     11.0677                 4.8860                 0.7247

                     19                     20                     21
                      A                      A                      A
 Frequencies --    609.2651               614.4730               635.6774
 Red. masses --      3.3135                 3.4568                 4.0809
 Frc consts  --      0.7247                 0.7690                 0.9716
 IR Inten    --     19.4073                12.6169                 3.0132

                     22                     23                     24
                      A                      A                      A
 Frequencies --    641.3064               683.1947               725.1158
 Red. masses --      4.9456                 2.4518                 4.2462
 Frc consts  --      1.1984                 0.6743                 1.3154
 IR Inten    --     11.0209                40.4208                25.7377

                     25                     26                     27
                      A                      A                      A
 Frequencies --    731.0977               736.7739               758.9699
 Red. masses --      3.1919                 1.3425                 2.7619
 Frc consts  --      1.0052                 0.4294                 0.9374
 IR Inten    --      2.7097                30.2220                15.6437

                     28                     29                     30
                      A                      A                      A
 Frequencies --    768.2747               778.6393               804.4496
 Red. masses --      1.3964                 3.8450                 5.0500
 Frc consts  --      0.4856                 1.3735                 1.9255
 IR Inten    --     65.5589                29.5745                13.1608

                     31                     32                     33
                      A                      A                      A
 Frequencies --    819.4785               850.7639               869.6684
 Red. masses --      1.2119                 1.7605                 1.2853
 Frc consts  --      0.4795                 0.7508                 0.5728
 IR Inten    --     23.5657                 5.3304                 0.7133

                     34                     35                     36
                      A                      A                      A
 Frequencies --    872.2925               877.4014               907.5701
 Red. masses --      4.7379                 1.4271                 6.1459
 Frc consts  --      2.1240                 0.6473                 2.9826
 IR Inten    --     14.6970                 0.7034                 6.2840

                     37                     38                     39
                      A                      A                      A
 Frequencies --    947.1402               968.3829               984.7799
 Red. masses --      1.3321                 3.2370                 1.2439
 Frc consts  --      0.7041                 1.7885                 0.7108
 IR Inten    --      3.6190                12.2385                 3.5024

                     40                     41                     42
                      A                      A                      A
 Frequencies --    987.0813              1037.2383              1046.2621
 Red. masses --      2.0972                 1.3662                 2.0677
 Frc consts  --      1.2039                 0.8660                 1.3336
 IR Inten    --     65.7066                18.1872                 3.5783

                     43                     44                     45
                      A                      A                      A
 Frequencies --   1057.7650              1113.0609              1132.3987
 Red. masses --      4.5505                 3.5417                 2.3912
 Frc consts  --      2.9998                 2.5853                 1.8066
 IR Inten    --      0.6385                 7.3228                15.2378

                     46                     47                     48
                      A                      A                      A
 Frequencies --   1152.1718              1164.9530              1176.7108
 Red. masses --      1.9288                 2.8210                 1.7103
 Frc consts  --      1.5086                 2.2557                 1.3953
 IR Inten    --     13.9118                96.1699                 7.9732

                     49                     50                     51
                      A                      A                      A
 Frequencies --   1192.0419              1198.8529              1236.3185
 Red. masses --      1.2200                 2.1362                 3.3951
 Frc consts  --      1.0214                 1.8089                 3.0575
 IR Inten    --      5.4980                38.2492                56.7935

                     52                     53                     54
                      A                      A                      A
 Frequencies --   1258.5272              1267.0418              1291.3316
 Red. masses --      1.6200                 1.4744                 2.4766
 Frc consts  --      1.5118                 1.3946                 2.4333
 IR Inten    --      8.6500                16.0805                34.9142

                     55                     56                     57
                      A                      A                      A
 Frequencies --   1302.1158              1355.4931              1383.7625
 Red. masses --      1.8392                 2.0372                 1.7428
 Frc consts  --      1.8373                 2.2053                 1.9662
 IR Inten    --      6.0569                53.8417                48.1669

                     58                     59                     60
                      A                      A                      A
 Frequencies --   1398.6083              1408.4203              1447.7179
 Red. masses --      6.2876                 3.5264                 2.3796
 Frc consts  --      7.2464                 4.1214                 2.9385
 IR Inten    --      1.5725                82.0508                11.7744

                     61                     62                     63
                      A                      A                      A
 Frequencies --   1495.8498              1497.4789              1523.9049
 Red. masses --      1.7656                 2.3068                 1.7027
 Frc consts  --      2.3277                 3.0477                 2.3298
 IR Inten    --     48.5494                56.8171                 4.4249

                     64                     65                     66
                      A                      A                      A
 Frequencies --   1527.6849              1557.8422              1611.9336
 Red. masses --      1.4862                 4.5394                 6.2287
 Frc consts  --      2.0436                 6.4908                 9.5355
 IR Inten    --      9.1400                13.5770               135.9521

                     67                     68                     69
                      A                      A                      A
 Frequencies --   1639.3587              1652.6348              1675.7067
 Red. masses --      6.2932                 6.2207                 7.0262
 Frc consts  --      9.9648                10.0102                11.6243
 IR Inten    --      0.7444                 3.1418                 2.0733

                     70                     71                     72
                      A                      A                      A
 Frequencies --   1766.9464              3017.3960              3116.0526
 Red. masses --      8.0688                 1.0736                 1.0878
 Frc consts  --     14.8425                 5.7592                 6.2234
 IR Inten    --    370.3929                38.4744                 3.4706

                     73                     74                     75
                      A                      A                      A
 Frequencies --   3194.5112              3209.2502              3226.4125
 Red. masses --      1.0866                 1.0913                 1.0933
 Frc consts  --      6.5332                 6.6220                 6.7054
 IR Inten    --      4.9738                15.2422                 2.9191

                     76                     77                     78
                      A                      A                      A
 Frequencies --   3228.8476              3268.9467              3283.3207
 Red. masses --      1.0951                 1.0908                 1.0975
 Frc consts  --      6.7266                 6.8678                 6.9710
 IR Inten    --      9.5755                 5.0389                 0.7857

                     79                     80                     81
                      A                      A                      A
 Frequencies --   3305.8038              3306.8743              3571.7455
 Red. masses --      1.1049                 1.0988                 1.0751
 Frc consts  --      7.1142                 7.0794                 8.0808
 IR Inten    --      1.1861                 1.5553                24.9973

 - Thermochemistry -
 -------------------
 Temperature   298.150 Kelvin.  Pressure   1.00000 Atm.
 Atom     1 has atomic number  6 and mass  12.00000

 Molecular mass:   241.07389 amu.
 Principal axes and moments of inertia in atomic units:
                           1         2         3
     Eigenvalues --  2791.845225942.399258035.45137
           X            0.99997  -0.00612  -0.00482
           Y            0.00607   0.99992  -0.01089
           Z            0.00488   0.01086   0.99993
 This molecule is an asymmetric top.
 Rotational symmetry number  1.
 Warning -- assumption of classical behavior for rotation
           may cause significant error
 Rotational temperatures (Kelvin)      0.03102     0.01458     0.01078
 Rotational constants (GHZ):           0.64643     0.30371     0.22460
 Zero-point vibrational energy     590967.8 (Joules/Mol)
                                  141.24469 (Kcal/Mol)
 Warning -- explicit consideration of  20 degrees of freedom as
           vibrations may cause significant error
 Vibrational temperatures:     43.99    56.01    83.80   112.77   148.18
          (Kelvin)            197.12   277.02   288.40   332.60   377.30
                              452.23   485.76   560.29   623.09   632.16
                              755.75   825.79   842.36   876.60   884.09
                              914.60   922.70   982.96  1043.28  1051.89
                             1060.05  1091.99  1105.38  1120.29  1157.42
                             1179.05  1224.06  1251.26  1255.03  1262.38
                             1305.79  1362.72  1393.29  1416.88  1420.19
                             1492.35  1505.34  1521.89  1601.45  1629.27
                             1657.72  1676.11  1693.02  1715.08  1724.88
                             1778.79  1810.74  1822.99  1857.94  1873.45
                             1950.25  1990.93  2012.29  2026.40  2082.94
                             2152.19  2154.54  2192.56  2198.00  2241.39
                             2319.21  2358.67  2377.77  2410.97  2542.24
                             4341.36  4483.30  4596.19  4617.40  4642.09
                             4645.59  4703.29  4723.97  4756.31  4757.85
                             5138.95

 Zero-point correction=                           0.225088 (Hartree/Particle)
 Thermal correction to Energy=                    0.239208
 Thermal correction to Enthalpy=                  0.240152
 Thermal correction to Gibbs Free Energy=         0.182176
 Sum of electronic and zero-point Energies=           -820.342688
 Sum of electronic and thermal Energies=              -820.328567
 Sum of electronic and thermal Enthalpies=            -820.327623
 Sum of electronic and thermal Free Energies=         -820.385599

                     E (Thermal)             CV                S
                      KCal/Mol        Cal/Mol-Kelvin    Cal/Mol-Kelvin
 Total                  150.105             55.116            122.021
 Electronic               0.000              0.000              0.000
 Translational            0.889              2.981             42.341
 Rotational               0.889              2.981             33.255
 Vibrational            148.328             49.154             46.425
 Vibration     1          0.594              1.984              5.792
 Vibration     2          0.594              1.981              5.313
 Vibration     3          0.596              1.974              4.516
 Vibration     4          0.600              1.964              3.931
 Vibration     5          0.605              1.947              3.397
 Vibration     6          0.614              1.916              2.845
 Vibration     7          0.635              1.850              2.203
 Vibration     8          0.638              1.839              2.129
 Vibration     9          0.653              1.793              1.870
 Vibration    10          0.670              1.742              1.647
 Vibration    11          0.702              1.646              1.340
 Vibration    12          0.718              1.600              1.223
 Vibration    13          0.757              1.493              1.002
 Vibration    14          0.794              1.398              0.849
 Vibration    15          0.799              1.384              0.829
 Vibration    16          0.880              1.194              0.598
 Vibration    17          0.930              1.088              0.497
 Vibration    18          0.942              1.063              0.475
 Vibration    19          0.968              1.012              0.434
 Vibration    20          0.974              1.001              0.425

 Optimization completed.
    -- Stationary point found.
 Normal termination of Gaussian 16 at Sun Dec 13 20:28:41 2020.

 ----------------------------------------------------------------------
 # B3LYP/6-311++G(d,p) empiricaldispersion=gd3bj scf=xqc pop=npa geom=c
 heck
 ----------------------------------------------------------------------

 -------------------------------------
 CID_6492145_JID_8600_Energie_neutraal
 -------------------------------------
 Structure from the checkpoint file:  "JID_8600.chk"
 Charge =  0 Multiplicity = 1

 SCF Done:  E(RB3LYP) =  -820.791287642     A.U. after   16 cycles
 Normal termination of Gaussian 16 at Sun Dec 13 20:34:03 2020.

 ----------------------------------------------------------------------
 # B3LYP/6-311++G(d,p) empiricaldispersion=gd3bj scf=xqc pop=npa geom=c
 heck
 ----------------------------------------------------------------------

 -----------------------------------
 CID_6492145_JID_8600_Energie_kation
 -----------------------------------
 Structure from the checkpoint file:  "JID_8600.chk"
 Charge =  1 Multiplicity = 2

 SCF Done:  E(UB3LYP) =  -820.494900096     A.U. after   28 cycles
 Normal termination of Gaussian 16 at Sun Dec 13 20:47:41 2020.
 Gaussian 16:  ES64L-G16RevA.03 25-Dec-2016

 ----------------------------------------------------------------------
 # B3LYP/6-311++G(d,p) empiricaldispersion=gd3bj scf=xqc pop=npa geom=c
 heck
 ----------------------------------------------------------------------

 ----------------------------------
 CID_6492145_JID_8600_Energie_anion
 ----------------------------------
 Structure from the checkpoint file:  "JID_8600.chk"
 Charge = -1 Multiplicity = 2

                         Standard orientation:
 ---------------------------------------------------------------------
 Center     Atomic      Atomic             Coordinates (Angstroms)
 Number     Number       Type             X           Y           Z
 ---------------------------------------------------------------------
      1          6           0        0.998518   -2.569714    0.584185
      2          6           0        2.298851   -2.932752    0.190371
      3          6           0        3.224678   -1.971388   -0.212189
      4          6           0        2.786667   -0.654830   -0.208257
      5          6           0        1.488342   -0.257751    0.164493
      6          6           0        0.579792   -1.242160    0.581555
      7          6           0        1.480154    1.190799    0.031912
      8          6           0        2.736583    1.529535   -0.373409
      9          8           0        3.542178    0.444445   -0.545262
     10          6           0        0.456419    2.222856    0.329470
     11          8           0        0.773456    3.323353    0.768939
     12          7           0       -0.871035    1.899613    0.131736
     13          6           0       -1.396351    0.988447   -0.874271
     14          6           0       -2.538217    0.195982   -0.323902
     15          6           0       -3.018206   -0.013279    0.935172
     16          6           0       -4.143952   -0.896406    0.796883
     17          6           0       -4.262906   -1.154558   -0.532400
     18          8           0       -3.291200   -0.492562   -1.233349
     19          1           0        0.305132   -3.343005    0.901168
     20          1           0        2.590282   -3.978519    0.205688
     21          1           0        4.235932   -2.227531   -0.508636
     22          1           0       -0.423972   -0.980247    0.896954
     23          1           0        3.180953    2.491262   -0.578455
     24          1           0       -1.473055    2.682383    0.364467
     25          1           0       -1.729303    1.538129   -1.767324
     26          1           0       -0.591153    0.326189   -1.203380
     27          1           0       -2.618681    0.411085    1.844597
     28          1           0       -4.775054   -1.278750    1.586586
     29          1           0       -4.941539   -1.748872   -1.124117
 ---------------------------------------------------------------------

 SCF Done:  E(UB3LYP) =  -820.788455010     A.U. after   33 cycles
 SCF Done:  E(UB3LYP) =  -820.788455010     a.u. after    1 cycles

 The electronic state is 2-A.
 Alpha  occ. eigenvalues --  -19.09702 -19.06345 -18.96848 -14.22798 -10.15486
 Alpha  occ. eigenvalues --  -10.13481 -10.12791 -10.12411 -10.11130 -10.09058
 Alpha  occ. eigenvalues --  -10.08107 -10.07688 -10.06476 -10.05798 -10.05735
 Alpha  occ. eigenvalues --  -10.05671 -10.05206 -10.05038  -1.02103  -0.99060
 Alpha  occ. eigenvalues --   -0.92173  -0.81881  -0.74071  -0.70940  -0.68637
 Alpha  occ. eigenvalues --   -0.67850  -0.63321  -0.61596  -0.59509  -0.53197
 Alpha  occ. eigenvalues --   -0.51546  -0.51158  -0.48094  -0.46534  -0.44726
 Alpha  occ. eigenvalues --   -0.44168  -0.41053  -0.39072  -0.37935  -0.36929
 Alpha  occ. eigenvalues --   -0.36412  -0.35576  -0.34347  -0.33715  -0.32739
 Alpha  occ. eigenvalues --   -0.32135  -0.30821  -0.30720  -0.30197  -0.29073
 Alpha  occ. eigenvalues --   -0.28618  -0.27983  -0.26719  -0.25123  -0.24058
 Alpha  occ. eigenvalues --   -0.22856  -0.19228  -0.17903  -0.16059  -0.14461
 Alpha  occ. eigenvalues --   -0.13458  -0.12970  -0.11164   0.04431
 Alpha virt. eigenvalues --    0.05772   0.07682   0.08067   0.08310   0.08914
 Alpha virt. eigenvalues --    0.09598   0.09759   0.10268   0.10512   0.11178
 Alpha virt. eigenvalues --    0.11404   0.12012   0.13350   0.13559   0.14094

  Beta  occ. eigenvalues --  -19.09689 -19.06222 -18.96776 -14.22786 -10.15371
  Beta  occ. eigenvalues --  -10.13479 -10.12766 -10.12407 -10.11181 -10.08565
  Beta  occ. eigenvalues --  -10.08099 -10.07676 -10.06464 -10.05716 -10.05672
  Beta  occ. eigenvalues --  -10.05623 -10.05229 -10.04872  -1.02079  -0.98776
  Beta  occ. eigenvalues --   -0.92020  -0.81817  -0.73919  -0.70914  -0.68417
  Beta  occ. eigenvalues --   -0.67758  -0.63131  -0.61214  -0.59449  -0.52904
  Beta  occ. eigenvalues --   -0.51217  -0.51121  -0.47900  -0.46494  -0.44596
  Beta  occ. eigenvalues --   -0.44107  -0.40934  -0.39038  -0.37683  -0.36791
  Beta  occ. eigenvalues --   -0.36269  -0.35480  -0.33874  -0.33398  -0.32623
  Beta  occ. eigenvalues --   -0.32060  -0.30761  -0.30628  -0.30105  -0.28921
  Beta  occ. eigenvalues --   -0.28472  -0.27772  -0.26551  -0.25012  -0.23417
  Beta  occ. eigenvalues --   -0.22760  -0.19178  -0.17253  -0.15860  -0.14310
  Beta  occ. eigenvalues --   -0.13340  -0.12466  -0.09832
  Beta virt. eigenvalues --    0.06732   0.08012   0.08249   0.08404   0.08740
  Beta virt. eigenvalues --    0.09300   0.09581   0.10216   0.10457   0.10995
  Beta virt. eigenvalues --    0.11225   0.11577   0.11926   0.13246   0.13466

 Mulliken charges and spin densities:
               1          2
     1  C   -0.268297  -0.038519
     2  C   -0.176174  -0.028251
     3  C   -0.741462   0.156101
     4  C    0.022238  -0.080903
     5  C    1.587785  -0.075989
     6  C   -1.020462   0.271302
     7  C    0.011832  -0.048796
     8  C   -0.132604   0.378586
     9  O   -0.078525   0.009187
    10  C   -0.201010   0.096415
    11  O   -0.366154   0.025392
    12  N   -0.171068   0.004591
    13  C    0.334017  -0.957201
    14  C    0.193950  -0.698820
    15  C   -1.003706   1.613760
    16  C    1.033766  -1.681699
    17  C   -0.094958   0.214934
    18  O   -0.022122   0.030769
    19  H    0.098071   0.052611
    20  H    0.118170  -0.001231
    21  H    0.141397  -0.006532
    22  H    0.127400  -0.042927
    23  H    0.195595  -0.030264
    24  H    0.287984   0.007479
    25  H    0.172432   0.016295
    26  H    0.197658  -0.001773
    27  H    0.056845   0.152202
    28  H   -0.475113   0.643360
    29  H   -0.827484   1.019923
 Sum of Mulliken charges =  -1.00000   1.00000

 Dipole moment (field-independent basis, Debye):
    X=              1.8367    Y=              0.0525    Z=             -1.3042  Tot=              2.2533
 Quadrupole moment (field-independent basis, Debye-Ang):
   XX=           -176.8168   YY=           -143.1055   ZZ=           -121.8823
   XY=            -19.0978   XZ=             -3.5766   YZ=             -6.2554

 Summary of Natural Population Analysis:

                                       Natural Population
                Natural  -----------------------------------------------
    Atom  No    Charge         Core      Valence    Rydberg      Total
 -----------------------------------------------------------------------
      C    1   -0.11558      0.99958     2.10617    0.00982     3.11558
      C    2   -0.10006      0.99959     2.09129    0.00918     3.10006
      C    3   -0.10339      0.99952     2.09536    0.00851     3.10339
      C    4    0.14319      0.99935     1.84525    0.01221     2.85681
      C    5   -0.04988      0.99946     2.04089    0.00953     3.04988
      C    6   -0.07889      0.99954     2.07146    0.00789     3.07889
      C    7   -0.13896      0.99943     2.12803    0.01150     3.13896
      C    8    0.20400      0.99946     1.78218    0.01436     2.79600
      O    9   -0.23257      0.99986     3.22504    0.00766     4.23257
      C   10    0.35554      0.99962     1.62447    0.02037     2.64446
      O   11   -0.32141      0.99988     3.31610    0.00543     4.32141
      N   12   -0.32064      0.99968     2.81202    0.00895     3.82064
      C   13   -0.11149      0.99957     2.10150    0.01042     3.11149
      C   14    0.14958      0.99947     1.83526    0.01569     2.85042
      C   15   -0.15460      0.99949     2.14641    0.00871     3.15460
      C   16   -0.15041      0.99957     2.14139    0.00944     3.15041
      C   17    0.05751      0.99951     1.92799    0.01499     2.94249
      O   18   -0.23700      0.99986     3.22904    0.00810     4.23700
      H   19    0.09684      0.00000     0.40226    0.00090     0.40316
      H   20    0.09255      0.00000     0.40651    0.00094     0.40745
      H   21    0.09932      0.00000     0.39972    0.00096     0.40068
      H   22    0.10242      0.00000     0.39530    0.00229     0.39758
      H   23    0.08929      0.00000     0.40993    0.00079     0.41071
      H   24    0.18754      0.00000     0.30983    0.00262     0.31246
      H   25    0.09603      0.00000     0.40288    0.00108     0.40397
      H   26    0.12023      0.00000     0.37855    0.00122     0.37977
      H   27    0.11428      0.00000     0.38456    0.00116     0.38572
      H   28    0.10954      0.00000     0.38924    0.00122     0.39046
      H   29    0.09702      0.00000     0.40099    0.00199     0.40298
 =======================================================================
   * Total *   -0.00000     17.99244    44.79962    0.20794    63.00000

 Normal termination of Gaussian 16 at Sun Dec 13 21:03:12 2020.
