 Gaussian 16, Revision A.03,

 -----------------------------------------------------------
 # opt freq B3LYP/6-31G(d) empiricaldispersion=gd3bj scf=xqc
 -----------------------------------------------------------

 -------------------------------
 CID_152092351_JID_8242_neutraal
 -------------------------------
 Symbolic Z-matrix:
 Charge =  0 Multiplicity = 1

 SCF Done:  E(RB3LYP) =  -743.657544609     A.U. after   15 cycles
 SCF Done:  E(RB3LYP) =  -743.660862116     A.U. after   14 cycles
 SCF Done:  E(RB3LYP) =  -743.661962778     A.U. after   13 cycles
 SCF Done:  E(RB3LYP) =  -743.662645003     A.U. after   12 cycles
 SCF Done:  E(RB3LYP) =  -743.662963160     A.U. after   13 cycles
 SCF Done:  E(RB3LYP) =  -743.663080304     A.U. after   15 cycles
 SCF Done:  E(RB3LYP) =  -743.663388198     A.U. after   12 cycles
 SCF Done:  E(RB3LYP) =  -743.663509634     A.U. after   13 cycles
 SCF Done:  E(RB3LYP) =  -743.663710214     A.U. after   13 cycles
 SCF Done:  E(RB3LYP) =  -743.663790943     A.U. after   13 cycles
 SCF Done:  E(RB3LYP) =  -743.670735749     A.U. after    8 cycles
 SCF Done:  E(RB3LYP) =  -743.670735792     A.U. after    8 cycles
 SCF Done:  E(RB3LYP) =  -743.670735833     A.U. after    8 cycles
 SCF Done:  E(RB3LYP) =  -743.670735861     A.U. after    8 cycles
 SCF Done:  E(RB3LYP) =  -743.670735872     A.U. after    8 cycles
 Optimization completed.
    -- Stationary point found.
 Normal termination of Gaussian 16 at Fri Dec 11 19:54:37 2020.

 --------------------------------------------------------------------
 #N Geom=AllCheck Guess=TCheck SCRF=Check GenChk RB3LYP/6-31G(d) Freq
 --------------------------------------------------------------------

 Structure from the checkpoint file:  "JID_8242.chk"
 -------------------------------
 CID_152092351_JID_8242_neutraal
 -------------------------------
 Charge =  0 Multiplicity = 1

 SCF Done:  E(RB3LYP) =  -743.670735872     A.U. after    1 cycles

  Exact polarizability: 262.626  -9.719 163.611  20.695  -9.465 128.556
 Approx polarizability: 350.620  -8.030 304.410  43.864 -36.059 233.975

                      1                      2                      3
                      A                      A                      A
 Frequencies --     14.5280                20.9203                30.0188
 Red. masses --      4.1172                 4.0764                 5.0330
 Frc consts  --      0.0005                 0.0011                 0.0027
 IR Inten    --      0.1105                 0.0452                 0.1028

                      4                      5                      6
                      A                      A                      A
 Frequencies --     40.5344                69.1579               112.7764
 Red. masses --      3.0722                 5.5998                 5.3876
 Frc consts  --      0.0030                 0.0158                 0.0404
 IR Inten    --      0.0027                 0.0222                 0.3110

                      7                      8                      9
                      A                      A                      A
 Frequencies --    139.4564               163.6232               193.4840
 Red. masses --      5.5565                 4.5701                 4.1548
 Frc consts  --      0.0637                 0.0721                 0.0916
 IR Inten    --      0.7373                 0.9067                 0.1849

                     10                     11                     12
                      A                      A                      A
 Frequencies --    267.6073               302.7033               318.6737
 Red. masses --      4.1077                 3.5278                 4.7432
 Frc consts  --      0.1733                 0.1905                 0.2838
 IR Inten    --      1.3138                 0.1779                 0.3697

                     13                     14                     15
                      A                      A                      A
 Frequencies --    346.8952               401.4698               413.2328
 Red. masses --      2.5684                 4.9728                 2.9567
 Frc consts  --      0.1821                 0.4722                 0.2975
 IR Inten    --      1.4777                 2.0430                 0.6817

                     16                     17                     18
                      A                      A                      A
 Frequencies --    420.7007               449.3622               452.0681
 Red. masses --      3.1088                 4.0952                 4.0818
 Frc consts  --      0.3242                 0.4872                 0.4915
 IR Inten    --      0.3911                 1.0428                 1.9631

                     19                     20                     21
                      A                      A                      A
 Frequencies --    497.9334               521.6311               539.5706
 Red. masses --      2.9486                 3.0813                11.7310
 Frc consts  --      0.4307                 0.4940                 2.0123
 IR Inten    --      8.3263                 4.8123                12.5278

                     22                     23                     24
                      A                      A                      A
 Frequencies --    574.5931               645.5614               654.5216
 Red. masses --      3.2646                 3.9484                 6.7742
 Frc consts  --      0.6350                 0.9695                 1.7098
 IR Inten    --      5.7578                 4.4496                 1.0409

                     25                     26                     27
                      A                      A                      A
 Frequencies --    657.6278               672.1242               716.4987
 Red. masses --      3.9322                 3.0522                 4.0249
 Frc consts  --      1.0020                 0.8124                 1.2174
 IR Inten    --      0.3857                 1.2894                 2.9781

                     28                     29                     30
                      A                      A                      A
 Frequencies --    741.0806               772.8426               796.9763
 Red. masses --      2.5806                 3.6569                 3.6698
 Frc consts  --      0.8350                 1.2869                 1.3734
 IR Inten    --      5.9455                 4.9919                17.2862

                     31                     32                     33
                      A                      A                      A
 Frequencies --    837.2382               841.5343               844.0588
 Red. masses --      1.9217                 2.0800                 1.3220
 Frc consts  --      0.7937                 0.8679                 0.5549
 IR Inten    --     27.0370                14.8263                11.5628

                     34                     35                     36
                      A                      A                      A
 Frequencies --    852.2786               863.4483               876.0949
 Red. masses --      1.3706                 5.0519                 2.2642
 Frc consts  --      0.5866                 2.2191                 1.0239
 IR Inten    --     10.1498                 0.8740                11.2917

                     37                     38                     39
                      A                      A                      A
 Frequencies --    919.9997               943.6057               959.1196
 Red. masses --      1.3799                 1.5885                 1.3471
 Frc consts  --      0.6882                 0.8333                 0.7301
 IR Inten    --     35.2229                 5.0599                 0.4642

                     40                     41                     42
                      A                      A                      A
 Frequencies --    961.5696               967.5147               973.2043
 Red. masses --      1.3313                 1.3341                 1.4803
 Frc consts  --      0.7253                 0.7358                 0.8260
 IR Inten    --      0.1679                 0.4695                 0.5182

                     43                     44                     45
                      A                      A                      A
 Frequencies --   1036.4472              1039.9155              1040.3293
 Red. masses --      1.1207                 2.8673                 2.9091
 Frc consts  --      0.7093                 1.8269                 1.8551
 IR Inten    --     12.6464                 7.0949                 3.2905

                     46                     47                     48
                      A                      A                      A
 Frequencies --   1061.4600              1144.2159              1153.6771
 Red. masses --      1.5144                 1.3561                 1.3782
 Frc consts  --      1.0053                 1.0461                 1.0807
 IR Inten    --      3.9512                 7.9901                 8.9668

                     49                     50                     51
                      A                      A                      A
 Frequencies --   1168.9504              1212.0529              1218.5095
 Red. masses --      4.3244                 1.1680                 1.3201
 Frc consts  --      3.4815                 1.0110                 1.1549
 IR Inten    --     22.9074                 4.6844                 1.1684

                     52                     53                     54
                      A                      A                      A
 Frequencies --   1221.0497              1231.5938              1240.5262
 Red. masses --      1.2157                 2.7885                 2.1373
 Frc consts  --      1.0679                 2.4921                 1.9379
 IR Inten    --      1.3819                 1.9122                 6.2640

                     55                     56                     57
                      A                      A                      A
 Frequencies --   1246.0990              1320.4333              1336.2911
 Red. masses --      2.2656                 2.3249                 1.7275
 Frc consts  --      2.0727                 2.3883                 1.8175
 IR Inten    --      3.7437                 5.9417                 2.1524

                     58                     59                     60
                      A                      A                      A
 Frequencies --   1348.1744              1370.4791              1371.6233
 Red. masses --      1.8735                 2.4763                 1.5815
 Frc consts  --      2.0064                 2.7403                 1.7530
 IR Inten    --     11.6866                39.2508                 4.5548

                     61                     62                     63
                      A                      A                      A
 Frequencies --   1375.2140              1382.8083              1460.1166
 Red. masses --      4.3129                 2.1007                 2.2128
 Frc consts  --      4.8057                 2.3667                 2.7795
 IR Inten    --    137.5003                 9.9614                10.1782

                     64                     65                     66
                      A                      A                      A
 Frequencies --   1470.2913              1484.2061              1509.1113
 Red. masses --      2.8247                 1.3928                 1.1103
 Frc consts  --      3.5978                 1.8077                 1.4899
 IR Inten    --      1.9827                 0.5721                 5.3547

                     67                     68                     69
                      A                      A                      A
 Frequencies --   1558.4600              1565.7510              1623.9439
 Red. masses --      2.4277                 2.4359                 5.8143
 Frc consts  --      3.4740                 3.5185                 9.0341
 IR Inten    --    121.0224                11.7323                 0.7401

                     70                     71                     72
                      A                      A                      A
 Frequencies --   1634.1457              1670.2230              1675.0150
 Red. masses --      6.4962                 5.7519                 5.7364
 Frc consts  --     10.2210                 9.4539                 9.4827
 IR Inten    --      9.5916                13.6676                 9.7034

                     73                     74                     75
                      A                      A                      A
 Frequencies --   1716.3340              2264.8243              3035.7343
 Red. masses --      4.2401                13.9802                 1.0595
 Frc consts  --      7.3592                42.2506                 5.7530
 IR Inten    --     10.7353               821.4936                31.5974

                     76                     77                     78
                      A                      A                      A
 Frequencies --   3069.3131              3151.4466              3172.6426
 Red. masses --      1.1030                 1.0852                 1.0650
 Frc consts  --      6.1224                 6.3502                 6.3159
 IR Inten    --     13.1584                17.0467                 3.6781

                     79                     80                     81
                      A                      A                      A
 Frequencies --   3177.4420              3178.5126              3186.4973
 Red. masses --      1.0869                 1.0869                 1.0889
 Frc consts  --      6.4656                 6.4698                 6.5145
 IR Inten    --     30.5886                 0.5684                17.6603

                     82                     83                     84
                      A                      A                      A
 Frequencies --   3188.9099              3195.9561              3204.0600
 Red. masses --      1.0872                 1.0941                 1.0944
 Frc consts  --      6.5141                 6.5840                 6.6198
 IR Inten    --      5.7261                21.0882                 5.9874

                     85                     86                     87
                      A                      A                      A
 Frequencies --   3205.2134              3219.6450              3250.3255
 Red. masses --      1.0921                 1.0933                 1.1156
 Frc consts  --      6.6105                 6.6774                 6.9441
 IR Inten    --     14.0753                 7.6950                16.5023

 - Thermochemistry -
 -------------------
 Temperature   298.150 Kelvin.  Pressure   1.00000 Atm.
 Atom     1 has atomic number  6 and mass  12.00000

 Molecular mass:   235.11095 amu.
 Principal axes and moments of inertia in atomic units:
                           1         2         3
     Eigenvalues --  1919.76580********************
           X            0.99989  -0.01464   0.00218
           Y            0.01464   0.99989   0.00258
           Z           -0.00222  -0.00255   0.99999
 This molecule is an asymmetric top.
 Rotational symmetry number  1.
 Warning -- assumption of classical behavior for rotation
           may cause significant error
 Rotational temperatures (Kelvin)      0.04512     0.00794     0.00729
 Rotational constants (GHZ):           0.94008     0.16553     0.15180
 Zero-point vibrational energy     647035.0 (Joules/Mol)
                                  154.64509 (Kcal/Mol)
 Warning -- explicit consideration of  22 degrees of freedom as
           vibrations may cause significant error
 Vibrational temperatures:     20.90    30.10    43.19    58.32    99.50
          (Kelvin)            162.26   200.65   235.42   278.38   385.03
                              435.52   458.50   499.10   577.63   594.55
                              605.29   646.53   650.43   716.42   750.51
                              776.32   826.71   928.82   941.71   946.18
                              967.04  1030.88  1066.25  1111.95  1146.67
                             1204.60  1210.78  1214.41  1226.24  1242.31
                             1260.51  1323.67  1357.64  1379.96  1383.48
                             1392.04  1400.22  1491.22  1496.21  1496.80
                             1527.20  1646.27  1659.88  1681.86  1743.87
                             1753.16  1756.82  1771.99  1784.84  1792.86
                             1899.81  1922.62  1939.72  1971.81  1973.46
                             1978.63  1989.55  2100.78  2115.42  2135.44
                             2171.27  2242.28  2252.77  2336.49  2351.17
                             2403.08  2409.97  2469.42  3258.58  4367.74
                             4416.06  4534.23  4564.73  4571.63  4573.17
                             4584.66  4588.13  4598.27  4609.93  4611.59
                             4632.35  4676.49

 Zero-point correction=                           0.246443 (Hartree/Particle)
 Thermal correction to Energy=                    0.261965
 Thermal correction to Enthalpy=                  0.262909
 Thermal correction to Gibbs Free Energy=         0.199635
 Sum of electronic and zero-point Energies=           -743.424293
 Sum of electronic and thermal Energies=              -743.408771
 Sum of electronic and thermal Enthalpies=            -743.407827
 Sum of electronic and thermal Free Energies=         -743.471101

                     E (Thermal)             CV                S
                      KCal/Mol        Cal/Mol-Kelvin    Cal/Mol-Kelvin
 Total                  164.386             59.051            133.173
 Electronic               0.000              0.000              0.000
 Translational            0.889              2.981             42.266
 Rotational               0.889              2.981             33.875
 Vibrational            162.608             53.090             57.031
 Vibration     1          0.593              1.986              7.269
 Vibration     2          0.593              1.986              6.545
 Vibration     3          0.594              1.984              5.828
 Vibration     4          0.594              1.981              5.233
 Vibration     5          0.598              1.969              4.177
 Vibration     6          0.607              1.939              3.221
 Vibration     7          0.615              1.914              2.811
 Vibration     8          0.623              1.887              2.507
 Vibration     9          0.635              1.849              2.194
 Vibration    10          0.673              1.733              1.612
 Vibration    11          0.694              1.669              1.402
 Vibration    12          0.705              1.638              1.317
 Vibration    13          0.725              1.582              1.180
 Vibration    14          0.767              1.467              0.957
 Vibration    15          0.777              1.442              0.915
 Vibration    16          0.783              1.425              0.890
 Vibration    17          0.808              1.362              0.798
 Vibration    18          0.811              1.356              0.790
 Vibration    19          0.853              1.255              0.663
 Vibration    20          0.877              1.202              0.606
 Vibration    21          0.895              1.163              0.566
 Vibration    22          0.931              1.086              0.495

                           ! Non-Optimized Parameters !
 Normal termination of Gaussian 16 at Fri Dec 11 20:04:39 2020.

 ----------------------------------------------------------------------
 # B3LYP/6-311++G(d,p) empiricaldispersion=gd3bj scf=xqc pop=npa geom=c
 heck
 ----------------------------------------------------------------------

 ---------------------------------------
 CID_152092351_JID_8242_Energie_neutraal
 ---------------------------------------
 Structure from the checkpoint file:  "JID_8242.chk"
 Charge =  0 Multiplicity = 1

 SCF Done:  E(RB3LYP) =  -743.860857884     A.U. after   17 cycles
 Normal termination of Gaussian 16 at Fri Dec 11 20:09:17 2020.

 ----------------------------------------------------------------------
 # B3LYP/6-311++G(d,p) empiricaldispersion=gd3bj scf=xqc pop=npa geom=c
 heck
 ----------------------------------------------------------------------

 -------------------------------------
 CID_152092351_JID_8242_Energie_kation
 -------------------------------------
 Structure from the checkpoint file:  "JID_8242.chk"
 Charge =  1 Multiplicity = 2

 SCF Done:  E(UB3LYP) =  -743.581851115     A.U. after   27 cycles
 Normal termination of Gaussian 16 at Fri Dec 11 20:19:27 2020.
 Gaussian 16:  ES64L-G16RevA.03 25-Dec-2016

 ----------------------------------------------------------------------
 # B3LYP/6-311++G(d,p) empiricaldispersion=gd3bj scf=xqc pop=npa geom=c
 heck
 ----------------------------------------------------------------------

 ------------------------------------
 CID_152092351_JID_8242_Energie_anion
 ------------------------------------
 Structure from the checkpoint file:  "JID_8242.chk"
 Charge = -1 Multiplicity = 2

                         Standard orientation:
 ---------------------------------------------------------------------
 Center     Atomic      Atomic             Coordinates (Angstroms)
 Number     Number       Type             X           Y           Z
 ---------------------------------------------------------------------
      1          6           0       -5.965419    1.724406   -0.145163
      2          6           0       -4.939220    1.392799    0.647507
      3          6           0       -3.799973    0.525406    0.316875
      4          6           0       -2.821460    0.280685    1.295850
      5          6           0       -1.722893   -0.530099    1.034418
      6          6           0       -1.561525   -1.134329   -0.217832
      7          6           0       -2.530557   -0.890961   -1.198076
      8          6           0       -3.629569   -0.078120   -0.939328
      9          6           0       -0.364311   -2.019749   -0.498954
     10          6           0        0.965600   -1.335384   -0.249166
     11          6           0        1.244464   -0.089129   -0.826279
     12          6           0        2.462743    0.546597   -0.618058
     13          6           0        3.434066   -0.062259    0.188492
     14          6           0        3.171096   -1.301303    0.776752
     15          6           0        1.945449   -1.924633    0.555589
     16          7           0        4.705426    0.508408    0.464084
     17          7           0        4.970141    1.606301   -0.039155
     18          7           0        5.338203    2.609975   -0.439712
     19          1           0       -6.061199    1.363972   -1.165650
     20          1           0       -6.756025    2.378001    0.209448
     21          1           0       -4.920197    1.796487    1.659683
     22          1           0       -2.928915    0.739293    2.275921
     23          1           0       -0.973568   -0.690836    1.805160
     24          1           0       -2.421215   -1.346683   -2.179422
     25          1           0       -4.360000    0.090579   -1.724671
     26          1           0       -0.418393   -2.923943    0.120991
     27          1           0       -0.412958   -2.363199   -1.540574
     28          1           0        0.488875    0.394630   -1.439109
     29          1           0        2.657902    1.512474   -1.075464
     30          1           0        3.929707   -1.758797    1.403012
     31          1           0        1.748648   -2.888332    1.018383
 ---------------------------------------------------------------------

 SCF Done:  E(UB3LYP) =  -743.867835491     A.U. after   33 cycles
 SCF Done:  E(UB3LYP) =  -743.867835642     a.u. after    2 cycles

 The electronic state is 2-A.
 Alpha  occ. eigenvalues --  -14.34752 -14.25673 -14.24933 -10.11442 -10.07552
 Alpha  occ. eigenvalues --  -10.07422 -10.07406 -10.07312 -10.07266 -10.07220
 Alpha  occ. eigenvalues --  -10.05679 -10.05494 -10.05396 -10.05232 -10.05037
 Alpha  occ. eigenvalues --  -10.05024 -10.04894 -10.03603  -1.02189  -0.87032
 Alpha  occ. eigenvalues --   -0.76197  -0.74217  -0.69241  -0.66286  -0.65052
 Alpha  occ. eigenvalues --   -0.62919  -0.62297  -0.57835  -0.52708  -0.51471
 Alpha  occ. eigenvalues --   -0.49327  -0.47985  -0.45838  -0.43995  -0.40497
 Alpha  occ. eigenvalues --   -0.39456  -0.38856  -0.36835  -0.36146  -0.35817
 Alpha  occ. eigenvalues --   -0.34660  -0.33685  -0.32854  -0.32578  -0.31349
 Alpha  occ. eigenvalues --   -0.30642  -0.30161  -0.28643  -0.27687  -0.26154
 Alpha  occ. eigenvalues --   -0.25489  -0.24962  -0.24531  -0.22366  -0.21951
 Alpha  occ. eigenvalues --   -0.19965  -0.19544  -0.18082  -0.15922  -0.14104
 Alpha  occ. eigenvalues --   -0.11557  -0.10495   0.03861
 Alpha virt. eigenvalues --    0.05461   0.07322   0.07402   0.07983   0.08165
 Alpha virt. eigenvalues --    0.08790   0.09346   0.09518   0.10202   0.10319
 Alpha virt. eigenvalues --    0.10753   0.11859   0.12177   0.12540   0.13312

  Beta  occ. eigenvalues --  -14.34415 -14.25296 -14.24981 -10.11348 -10.07515
  Beta  occ. eigenvalues --  -10.07413 -10.07387 -10.07314 -10.07272 -10.07236
  Beta  occ. eigenvalues --  -10.05727 -10.05383 -10.05296 -10.05101 -10.05007
  Beta  occ. eigenvalues --  -10.04959 -10.04782 -10.03380  -1.01592  -0.86769
  Beta  occ. eigenvalues --   -0.76108  -0.74002  -0.69014  -0.66007  -0.65015
  Beta  occ. eigenvalues --   -0.62758  -0.62030  -0.57598  -0.52537  -0.51321
  Beta  occ. eigenvalues --   -0.49229  -0.47676  -0.45727  -0.43745  -0.39737
  Beta  occ. eigenvalues --   -0.39048  -0.38735  -0.36602  -0.35911  -0.35370
  Beta  occ. eigenvalues --   -0.34365  -0.33400  -0.32565  -0.32390  -0.31191
  Beta  occ. eigenvalues --   -0.30529  -0.30103  -0.28446  -0.27516  -0.26008
  Beta  occ. eigenvalues --   -0.25298  -0.24711  -0.24262  -0.22222  -0.21878
  Beta  occ. eigenvalues --   -0.19403  -0.19178  -0.17195  -0.15848  -0.13661
  Beta  occ. eigenvalues --   -0.11158  -0.09565
  Beta virt. eigenvalues --    0.07052   0.07580   0.07830   0.08076   0.08142
  Beta virt. eigenvalues --    0.08641   0.08843   0.09482   0.09511   0.10197
  Beta virt. eigenvalues --    0.10453   0.10815   0.11789   0.12159   0.12456

 Mulliken charges and spin densities:
               1          2
     1  C   -0.527073   0.265916
     2  C   -0.392015  -0.039869
     3  C    1.566123   0.074690
     4  C   -0.216471   0.055941
     5  C   -0.675016   0.098024
     6  C    1.099020   0.113444
     7  C   -0.516321  -0.037059
     8  C   -1.239916   0.097251
     9  C   -0.866324  -0.183545
    10  C    1.144660   0.034900
    11  C   -0.399483   0.052121
    12  C   -0.140651   0.116205
    13  C   -0.988807  -0.200423
    14  C    0.036373  -0.086554
    15  C   -0.130467  -0.025987
    16  N    0.093475   0.176974
    17  N    0.145908  -0.034329
    18  N   -0.331377   0.160895
    19  H    0.091789  -0.011930
    20  H    0.121193  -0.009678
    21  H    0.085439  -0.006838
    22  H    0.117279   0.004492
    23  H    0.145902   0.000207
    24  H    0.119781   0.021605
    25  H    0.050499  -0.009413
    26  H    0.057528   0.093570
    27  H    0.124611   0.013596
    28  H    0.182871   0.001497
    29  H    0.177249  -0.002955
    30  H    0.022104   0.164352
    31  H    0.042117   0.102899
 Sum of Mulliken charges =  -1.00000   1.00000

 Dipole moment (field-independent basis, Debye):
    X=              0.0201    Y=             -3.0828    Z=             -0.3693  Tot=              3.1049
 Quadrupole moment (field-independent basis, Debye-Ang):
   XX=           -218.3733   YY=           -131.0594   ZZ=           -112.2276
   XY=             -7.5304   XZ=              0.8208   YZ=              2.9728

 Summary of Natural Population Analysis:

                                       Natural Population
                Natural  -----------------------------------------------
    Atom  No    Charge         Core      Valence    Rydberg      Total
 -----------------------------------------------------------------------
      C    1   -0.15326      0.99960     2.14627    0.00739     3.15326
      C    2   -0.08799      0.99956     2.07938    0.00905     3.08799
      C    3   -0.02426      0.99950     2.01467    0.01009     3.02426
      C    4   -0.08588      0.99954     2.07856    0.00777     3.08588
      C    5   -0.09875      0.99952     2.09149    0.00774     3.09875
      C    6    0.01159      0.99950     1.97842    0.01049     2.98841
      C    7   -0.11347      0.99952     2.10609    0.00786     3.11347
      C    8   -0.06952      0.99953     2.06202    0.00796     3.06952
      C    9   -0.20322      0.99958     2.19409    0.00955     3.20322
      C   10   -0.01788      0.99951     2.00778    0.01060     3.01788
      C   11   -0.09007      0.99952     2.08307    0.00747     3.09007
      C   12   -0.11953      0.99952     2.11286    0.00715     3.11953
      C   13    0.07188      0.99943     1.91576    0.01294     2.92812
      C   14   -0.11047      0.99952     2.10155    0.00940     3.11047
      C   15   -0.09752      0.99952     2.08825    0.00975     3.09752
      N   16   -0.19552      0.99965     2.68228    0.01359     3.69552
      N   17    0.14452      0.99971     2.33914    0.01664     3.35548
      N   18   -0.00297      0.99982     2.49058    0.01257     3.50297
      H   19    0.08310      0.00000     0.41593    0.00097     0.41690
      H   20    0.08449      0.00000     0.41450    0.00101     0.41551
      H   21    0.08570      0.00000     0.41283    0.00147     0.41430
      H   22    0.09203      0.00000     0.40664    0.00132     0.40797
      H   23    0.09717      0.00000     0.40169    0.00114     0.40283
      H   24    0.09204      0.00000     0.40675    0.00120     0.40796
      H   25    0.09341      0.00000     0.40517    0.00143     0.40659
      H   26    0.10401      0.00000     0.39473    0.00125     0.39599
      H   27    0.10190      0.00000     0.39701    0.00109     0.39810
      H   28    0.10405      0.00000     0.39484    0.00111     0.39595
      H   29    0.10319      0.00000     0.39560    0.00122     0.39681
      H   30    0.10370      0.00000     0.39477    0.00153     0.39630
      H   31    0.09750      0.00000     0.40148    0.00101     0.40250
 =======================================================================
   * Total *   -0.00000     17.99204    43.81419    0.19377    62.00000

 Normal termination of Gaussian 16 at Fri Dec 11 20:43:28 2020.
