 Gaussian 16, Revision A.03,

 -----------------------------------------------------------
 # opt freq B3LYP/6-31G(d) empiricaldispersion=gd3bj scf=xqc
 -----------------------------------------------------------

 ------------------------------
 CID_57355051_JID_2910_neutraal
 ------------------------------
 Symbolic Z-matrix:
 Charge =  0 Multiplicity = 1

 SCF Done:  E(RB3LYP) =  -512.267294637     A.U. after   26 cycles
 SCF Done:  E(RB3LYP) =  -512.288059842     A.U. after   17 cycles
 SCF Done:  E(RB3LYP) =  -512.317133401     A.U. after   17 cycles
 SCF Done:  E(RB3LYP) =  -512.349649328     A.U. after   16 cycles
 SCF Done:  E(RB3LYP) =  -512.379285859     A.U. after   15 cycles
 SCF Done:  E(RB3LYP) =  -512.408674119     A.U. after   14 cycles
 SCF Done:  E(RB3LYP) =  -512.435142811     A.U. after   15 cycles
 SCF Done:  E(RB3LYP) =  -512.442044653     A.U. after   14 cycles
 SCF Done:  E(RB3LYP) =  -512.444866411     A.U. after   14 cycles
 SCF Done:  E(RB3LYP) =  -512.446385849     A.U. after   13 cycles
 SCF Done:  E(RB3LYP) =  -512.458189582     A.U. after   13 cycles
 SCF Done:  E(RB3LYP) =  -512.458388576     A.U. after   12 cycles
 SCF Done:  E(RB3LYP) =  -512.458411981     A.U. after   11 cycles
 SCF Done:  E(RB3LYP) =  -512.458418149     A.U. after    9 cycles
 SCF Done:  E(RB3LYP) =  -512.458419993     A.U. after    9 cycles
 SCF Done:  E(RB3LYP) =  -512.458420364     A.U. after    8 cycles
 Optimization completed.
    -- Stationary point found.
 Normal termination of Gaussian 16 at Wed Dec  9 18:34:55 2020.

 --------------------------------------------------------------------
 #N Geom=AllCheck Guess=TCheck SCRF=Check GenChk RB3LYP/6-31G(d) Freq
 --------------------------------------------------------------------

 Structure from the checkpoint file:  "JID_2910.chk"
 ------------------------------
 CID_57355051_JID_2910_neutraal
 ------------------------------
 Charge =  0 Multiplicity = 1

 SCF Done:  E(RB3LYP) =  -512.458420364     A.U. after    1 cycles

  Exact polarizability: 106.933  -3.974 101.736   0.667   1.469  96.272
 Approx polarizability: 178.516 -20.863 181.018   3.702  11.846 189.298

                      1                      2                      3
                      A                      A                      A
 Frequencies --    113.4865               145.1822               233.1731
 Red. masses --      3.5942                 2.7164                 3.2639
 Frc consts  --      0.0273                 0.0337                 0.1046
 IR Inten    --      1.8594                 0.6143                 1.1122

                      4                      5                      6
                      A                      A                      A
 Frequencies --    254.0671               311.6526               342.0172
 Red. masses --      2.9742                 5.4664                 3.5779
 Frc consts  --      0.1131                 0.3128                 0.2466
 IR Inten    --      1.2128                 2.5248                 4.5431

                      7                      8                      9
                      A                      A                      A
 Frequencies --    351.4525               448.9243               463.8842
 Red. masses --      5.0075                 3.0396                 2.5015
 Frc consts  --      0.3644                 0.3609                 0.3172
 IR Inten    --      1.2783                 8.0189                 3.1205

                     10                     11                     12
                      A                      A                      A
 Frequencies --    488.6611               504.3891               578.2433
 Red. masses --      4.7622                 5.2193                 3.5821
 Frc consts  --      0.6700                 0.7823                 0.7057
 IR Inten    --      2.9658                23.1242                18.9073

                     13                     14                     15
                      A                      A                      A
 Frequencies --    619.6039               651.9807               707.9802
 Red. masses --      5.0550                 4.8455                 5.9979
 Frc consts  --      1.1434                 1.2135                 1.7713
 IR Inten    --     15.2908                 4.2980                 9.8634

                     16                     17                     18
                      A                      A                      A
 Frequencies --    750.8111               786.0294               797.9832
 Red. masses --      7.6740                 3.5534                 1.3636
 Frc consts  --      2.5488                 1.2935                 0.5116
 IR Inten    --     31.9422                21.0197                20.1829

                     19                     20                     21
                      A                      A                      A
 Frequencies --    811.3601               876.0592               898.2217
 Red. masses --      7.5360                 4.4740                 3.3565
 Frc consts  --      2.9229                 2.0231                 1.5955
 IR Inten    --     54.2843                15.1992                 6.3840

                     22                     23                     24
                      A                      A                      A
 Frequencies --    908.2427               936.7058               954.9930
 Red. masses --      4.7970                 2.0086                 2.3272
 Frc consts  --      2.3314                 1.0384                 1.2505
 IR Inten    --      0.1161                 2.0752                36.9261

                     25                     26                     27
                      A                      A                      A
 Frequencies --    979.0994              1044.8495              1063.3781
 Red. masses --      3.6677                 2.1270                 2.4592
 Frc consts  --      2.0716                 1.3681                 1.6384
 IR Inten    --      3.6529                14.0063                17.4247

                     28                     29                     30
                      A                      A                      A
 Frequencies --   1087.2376              1098.5790              1115.1287
 Red. masses --      1.7953                 2.0614                 1.5479
 Frc consts  --      1.2504                 1.4658                 1.1341
 IR Inten    --     27.8276                26.4989                21.6372

                     31                     32                     33
                      A                      A                      A
 Frequencies --   1146.9760              1178.0240              1194.6123
 Red. masses --      1.4712                 1.1993                 1.3943
 Frc consts  --      1.1403                 0.9806                 1.1723
 IR Inten    --     17.8239                 0.8013                 8.7233

                     34                     35                     36
                      A                      A                      A
 Frequencies --   1220.3517              1220.6008              1260.8979
 Red. masses --      1.4264                 1.5241                 4.1888
 Frc consts  --      1.2516                 1.3378                 3.9237
 IR Inten    --      0.7755                15.3536                29.0710

                     37                     38                     39
                      A                      A                      A
 Frequencies --   1286.5159              1304.4294              1360.0407
 Red. masses --      1.1383                 3.9255                 1.2436
 Frc consts  --      1.1101                 3.9354                 1.3553
 IR Inten    --      5.3833                 5.4256                 4.7549

                     40                     41                     42
                      A                      A                      A
 Frequencies --   1406.9905              1486.5466              1490.9440
 Red. masses --      1.1918                 1.0844                 1.1152
 Frc consts  --      1.3900                 1.4118                 1.4605
 IR Inten    --     12.0697                 2.2802                 2.0549

                     43                     44                     45
                      A                      A                      A
 Frequencies --   1497.2185              1517.0683              1571.6423
 Red. masses --      1.1859                 1.1437                 5.6385
 Frc consts  --      1.5663                 1.5508                 8.2058
 IR Inten    --      7.6450                 9.4147                16.9798

                     46                     47                     48
                      A                      A                      A
 Frequencies --   1617.2574              1672.7437              1686.5385
 Red. masses --      6.6653                 9.1960                 8.8517
 Frc consts  --     10.2713                15.1603                14.8343
 IR Inten    --     45.8387               206.0939               136.2446

                     49                     50                     51
                      A                      A                      A
 Frequencies --   3025.2985              3080.3240              3084.0302
 Red. masses --      1.0693                 1.0564                 1.0594
 Frc consts  --      5.7661                 5.9057                 5.9370
 IR Inten    --     52.4520                23.2836                39.5131

                     52                     53                     54
                      A                      A                      A
 Frequencies --   3105.9342              3124.5073              3129.7136
 Red. masses --      1.0931                 1.0594                 1.1087
 Frc consts  --      6.2127                 6.0938                 6.3987
 IR Inten    --     36.3805                27.5386                 2.3621

                     55                     56                     57
                      A                      A                      A
 Frequencies --   3131.4182              3142.2591              3221.7041
 Red. masses --      1.0887                 1.1068                 1.1098
 Frc consts  --      6.2896                 6.4389                 6.7867
 IR Inten    --     55.2286                22.2705                 4.3236

 - Thermochemistry -
 -------------------
 Temperature   298.150 Kelvin.  Pressure   1.00000 Atm.
 Atom     1 has atomic number  6 and mass  12.00000

 Molecular mass:   159.07965 amu.
 Principal axes and moments of inertia in atomic units:
                           1         2         3
     Eigenvalues --  1268.618141588.071751686.30636
           X            0.99843   0.05499  -0.01112
           Y           -0.05458   0.99793   0.03397
           Z            0.01296  -0.03331   0.99936
 This molecule is an asymmetric top.
 Rotational symmetry number  1.
 Warning -- assumption of classical behavior for rotation
           may cause significant error
 Rotational temperatures (Kelvin)      0.06827     0.05454     0.05136
 Rotational constants (GHZ):           1.42260     1.13644     1.07023
 Zero-point vibrational energy     439555.6 (Joules/Mol)
                                  105.05632 (Kcal/Mol)
 Warning -- explicit consideration of  13 degrees of freedom as
           vibrations may cause significant error
 Vibrational temperatures:    163.28   208.88   335.48   365.55   448.40
          (Kelvin)            492.09   505.66   645.90   667.43   703.07
                              725.70   831.96   891.47   938.05  1018.63
                             1080.25  1130.92  1148.12  1167.37  1260.45
                             1292.34  1306.76  1347.71  1374.02  1408.71
                             1503.31  1529.96  1564.29  1580.61  1604.42
                             1650.24  1694.91  1718.78  1755.81  1756.17
                             1814.15  1851.01  1876.78  1956.80  2024.35
                             2138.81  2145.14  2154.16  2182.72  2261.24
                             2326.87  2406.71  2426.55  4352.73  4431.90
                             4437.23  4468.75  4495.47  4502.96  4505.41
                             4521.01  4635.31

 Zero-point correction=                           0.167418 (Hartree/Particle)
 Thermal correction to Energy=                    0.176205
 Thermal correction to Enthalpy=                  0.177149
 Thermal correction to Gibbs Free Energy=         0.134017
 Sum of electronic and zero-point Energies=           -512.291002
 Sum of electronic and thermal Energies=              -512.282215
 Sum of electronic and thermal Enthalpies=            -512.281271
 Sum of electronic and thermal Free Energies=         -512.324403

                     E (Thermal)             CV                S
                      KCal/Mol        Cal/Mol-Kelvin    Cal/Mol-Kelvin
 Total                  110.570             36.407             90.780
 Electronic               0.000              0.000              0.000
 Translational            0.889              2.981             41.102
 Rotational               0.889              2.981             29.609
 Vibrational            108.793             30.445             20.069
 Vibration     1          0.607              1.938              3.208
 Vibration     2          0.617              1.908              2.734
 Vibration     3          0.654              1.790              1.854
 Vibration     4          0.665              1.756              1.702
 Vibration     5          0.700              1.651              1.354
 Vibration     6          0.721              1.591              1.203
 Vibration     7          0.728              1.572              1.160
 Vibration     8          0.808              1.363              0.799
 Vibration     9          0.821              1.330              0.755
 Vibration    10          0.845              1.275              0.687
 Vibration    11          0.860              1.240              0.647
 Vibration    12          0.935              1.078              0.489
 Vibration    13          0.980              0.991              0.417

 Optimization completed.
    -- Stationary point found.
 Normal termination of Gaussian 16 at Wed Dec  9 18:40:28 2020.

 ----------------------------------------------------------------------
 # B3LYP/6-311++G(d,p) empiricaldispersion=gd3bj scf=xqc pop=npa geom=c
 heck
 ----------------------------------------------------------------------

 --------------------------------------
 CID_57355051_JID_2910_Energie_neutraal
 --------------------------------------
 Structure from the checkpoint file:  "JID_2910.chk"
 Charge =  0 Multiplicity = 1

 SCF Done:  E(RB3LYP) =  -512.587324372     A.U. after   17 cycles
 Normal termination of Gaussian 16 at Wed Dec  9 18:42:23 2020.

 ----------------------------------------------------------------------
 # B3LYP/6-311++G(d,p) empiricaldispersion=gd3bj scf=xqc pop=npa geom=c
 heck
 ----------------------------------------------------------------------

 ------------------------------------
 CID_57355051_JID_2910_Energie_kation
 ------------------------------------
 Structure from the checkpoint file:  "JID_2910.chk"
 Charge =  1 Multiplicity = 2

 SCF Done:  E(UB3LYP) =  -512.282699670     A.U. after   28 cycles
 Normal termination of Gaussian 16 at Wed Dec  9 18:46:26 2020.
 Gaussian 16:  ES64L-G16RevA.03 25-Dec-2016

 ----------------------------------------------------------------------
 # B3LYP/6-311++G(d,p) empiricaldispersion=gd3bj scf=xqc pop=npa geom=c
 heck
 ----------------------------------------------------------------------

 -----------------------------------
 CID_57355051_JID_2910_Energie_anion
 -----------------------------------
 Structure from the checkpoint file:  "JID_2910.chk"
 Charge = -1 Multiplicity = 2

                         Standard orientation:
 ---------------------------------------------------------------------
 Center     Atomic      Atomic             Coordinates (Angstroms)
 Number     Number       Type             X           Y           Z
 ---------------------------------------------------------------------
      1          6           0       -2.186204   -0.721366   -0.740706
      2          6           0       -2.162958   -0.618554    0.836381
      3          6           0       -1.151297    0.502654    0.636918
      4          6           0        0.158904    1.108556    0.996531
      5          6           0        0.394994    2.134948   -0.148562
      6          6           0        0.192860    0.933057   -1.143788
      7          6           0       -1.135041    0.386146   -0.716448
      8          7           0        1.257112    0.265187   -1.380584
      9          7           0        1.180226    0.461669    1.419760
     10          6           0        1.226721   -0.937671    1.321375
     11          7           0        1.245092   -1.614744    0.233488
     12          6           0        1.198499   -1.189097   -1.174787
     13          1           0       -3.132674   -0.458727   -1.223339
     14          1           0       -1.842694   -1.685200   -1.125313
     15          1           0       -3.102218   -0.344979    1.326499
     16          1           0       -1.746191   -1.510251    1.313352
     17          1           0       -0.353618    2.925347   -0.220001
     18          1           0        1.420938    2.494431   -0.170131
     19          1           0        1.370337   -1.491885    2.251536
     20          1           0        2.077231   -1.636195   -1.647610
     21          1           0        0.313012   -1.669356   -1.615122
 ---------------------------------------------------------------------

 SCF Done:  E(UB3LYP) =  -512.598517665     A.U. after   31 cycles

 The electronic state is 2-A.
 Alpha  occ. eigenvalues --  -14.14082 -14.13180 -14.11940 -10.08222 -10.07799
 Alpha  occ. eigenvalues --  -10.06696 -10.06163 -10.05905 -10.05147 -10.03649
 Alpha  occ. eigenvalues --  -10.03429 -10.03198  -0.81278  -0.75319  -0.74452
 Alpha  occ. eigenvalues --   -0.71000  -0.61781  -0.56347  -0.53128  -0.52225
 Alpha  occ. eigenvalues --   -0.45198  -0.42822  -0.40552  -0.35908  -0.35221
 Alpha  occ. eigenvalues --   -0.34360  -0.31728  -0.29668  -0.28701  -0.26426
 Alpha  occ. eigenvalues --   -0.25508  -0.24754  -0.23056  -0.22414  -0.21291
 Alpha  occ. eigenvalues --   -0.19474  -0.16024  -0.13260  -0.12181  -0.09251
 Alpha  occ. eigenvalues --   -0.08677  -0.06322   0.04757
 Alpha virt. eigenvalues --    0.08465   0.09598   0.10512   0.10789   0.11139
 Alpha virt. eigenvalues --    0.12095   0.12647   0.13432   0.13999   0.14379
 Alpha virt. eigenvalues --    0.15294   0.15859   0.16559   0.17754   0.17823

  Beta  occ. eigenvalues --  -14.13981 -14.13029 -14.11572 -10.08177 -10.07785
  Beta  occ. eigenvalues --  -10.06455 -10.06180 -10.05863 -10.04564 -10.03728
  Beta  occ. eigenvalues --  -10.03466 -10.02943  -0.80833  -0.74937  -0.74028
  Beta  occ. eigenvalues --   -0.70623  -0.61396  -0.56091  -0.52936  -0.52111
  Beta  occ. eigenvalues --   -0.44762  -0.42474  -0.40252  -0.35569  -0.35019
  Beta  occ. eigenvalues --   -0.34094  -0.31526  -0.29274  -0.28351  -0.26279
  Beta  occ. eigenvalues --   -0.25271  -0.24456  -0.22828  -0.22094  -0.21012
  Beta  occ. eigenvalues --   -0.18578  -0.15802  -0.11989  -0.11121  -0.08484
  Beta  occ. eigenvalues --   -0.08178  -0.05809
  Beta virt. eigenvalues --    0.08386   0.09814   0.10442   0.11071   0.11225
  Beta virt. eigenvalues --    0.11976   0.12125   0.12593   0.13395   0.14071
  Beta virt. eigenvalues --    0.14452   0.15393   0.16157   0.16544   0.17715

 Mulliken charges and spin densities:
               1          2
     1  C   -0.165402  -0.164452
     2  C   -0.098875  -0.492117
     3  C    0.043185   0.060752
     4  C    0.058898   0.432372
     5  C   -0.720170  -0.030400
     6  C    0.117547   0.121841
     7  C   -0.141504   0.301344
     8  N   -0.103489   0.071255
     9  N   -0.096623   0.171123
    10  C   -0.197796   0.048795
    11  N   -0.101703   0.010216
    12  C   -0.326372  -0.033096
    13  H    0.028033   0.129777
    14  H    0.098307   0.016097
    15  H   -0.106584   0.248002
    16  H    0.112207   0.044660
    17  H    0.053186   0.053386
    18  H    0.168223  -0.011892
    19  H    0.101654   0.017206
    20  H    0.159910  -0.002719
    21  H    0.117368   0.007849
 Sum of Mulliken charges =  -1.00000   1.00000

 Dipole moment (field-independent basis, Debye):
    X=             -2.4009    Y=             -0.5517    Z=             -1.1643  Tot=              2.7248
 Quadrupole moment (field-independent basis, Debye-Ang):
   XX=            -96.5823   YY=            -87.8413   ZZ=            -87.4185
   XY=             -0.4913   XZ=              0.7880   YZ=             -0.4103

 Summary of Natural Population Analysis:

                                       Natural Population
                Natural  -----------------------------------------------
    Atom  No    Charge         Core      Valence    Rydberg      Total
 -----------------------------------------------------------------------
      C    1   -0.19598      0.99961     2.18605    0.01032     3.19598
      C    2   -0.19108      0.99960     2.18183    0.00965     3.19108
      C    3   -0.04360      0.99927     2.03146    0.01286     3.04360
      C    4    0.24619      0.99932     1.73519    0.01930     2.75381
      C    5   -0.21728      0.99958     2.20742    0.01029     3.21728
      C    6    0.17486      0.99939     1.80759    0.01816     2.82514
      C    7    0.01715      0.99924     1.97135    0.01226     2.98285
      N    8   -0.25177      0.99962     2.74073    0.01142     3.75177
      N    9   -0.23597      0.99953     2.72269    0.01375     3.73597
      C   10    0.14845      0.99960     1.83448    0.01747     2.85155
      N   11   -0.26900      0.99968     2.75542    0.01390     3.76900
      C   12   -0.01436      0.99961     2.00127    0.01348     3.01436
      H   13    0.09884      0.00000     0.39987    0.00129     0.40116
      H   14    0.10020      0.00000     0.39838    0.00142     0.39980
      H   15    0.09529      0.00000     0.40314    0.00158     0.40471
      H   16    0.10417      0.00000     0.39453    0.00131     0.39583
      H   17    0.09438      0.00000     0.40413    0.00149     0.40562
      H   18    0.10895      0.00000     0.38929    0.00176     0.39105
      H   19    0.06931      0.00000     0.42862    0.00207     0.43069
      H   20    0.08506      0.00000     0.41348    0.00146     0.41494
      H   21    0.07621      0.00000     0.42146    0.00233     0.42379
 =======================================================================
   * Total *   -0.00000     11.99404    29.82838    0.17758    42.00000

 Normal termination of Gaussian 16 at Wed Dec  9 18:50:48 2020.
