 Gaussian 16, Revision A.03,

 -----------------------------------------------------------
 # opt freq B3LYP/6-31G(d) empiricaldispersion=gd3bj scf=xqc
 -----------------------------------------------------------

 -------------------------------
 CID_103256438_JID_4937_neutraal
 -------------------------------
 Symbolic Z-matrix:
 Charge =  0 Multiplicity = 1

 SCF Done:  E(RB3LYP) =  -686.575800773     A.U. after   15 cycles
 SCF Done:  E(RB3LYP) =  -686.576283812     A.U. after   13 cycles
 SCF Done:  E(RB3LYP) =  -686.580014363     A.U. after   12 cycles
 SCF Done:  E(RB3LYP) =  -686.579812150     A.U. after   13 cycles
 SCF Done:  E(RB3LYP) =  -686.581054009     A.U. after   12 cycles
 SCF Done:  E(RB3LYP) =  -686.581857836     A.U. after   13 cycles
 SCF Done:  E(RB3LYP) =  -686.583177280     A.U. after   15 cycles
 SCF Done:  E(RB3LYP) =  -686.584682089     A.U. after   13 cycles
 SCF Done:  E(RB3LYP) =  -686.586893356     A.U. after   13 cycles
 SCF Done:  E(RB3LYP) =  -686.588351836     A.U. after   12 cycles
 SCF Done:  E(RB3LYP) =  -686.590043330     A.U. after   10 cycles
 SCF Done:  E(RB3LYP) =  -686.590050400     A.U. after   10 cycles
 SCF Done:  E(RB3LYP) =  -686.590051253     A.U. after    9 cycles
 SCF Done:  E(RB3LYP) =  -686.590051812     A.U. after    8 cycles
 SCF Done:  E(RB3LYP) =  -686.590051743     A.U. after    8 cycles
 Optimization completed.
    -- Stationary point found.
 Normal termination of Gaussian 16 at Thu Dec 10 10:58:46 2020.

 --------------------------------------------------------------------
 #N Geom=AllCheck Guess=TCheck SCRF=Check GenChk RB3LYP/6-31G(d) Freq
 --------------------------------------------------------------------

 Structure from the checkpoint file:  "JID_4937.chk"
 -------------------------------
 CID_103256438_JID_4937_neutraal
 -------------------------------
 Charge =  0 Multiplicity = 1

 SCF Done:  E(RB3LYP) =  -686.590051743     A.U. after    1 cycles

  Exact polarizability: 125.153  24.770 120.219  -6.595  -1.922 102.331
 Approx polarizability: 174.364  48.518 176.409 -15.976  -3.861 166.270

                      1                      2                      3
                      A                      A                      A
 Frequencies --     20.8471                39.4865                45.3074
 Red. masses --      5.8597                 5.7691                 8.0253
 Frc consts  --      0.0015                 0.0053                 0.0097
 IR Inten    --      0.2685                 3.5829                 0.3918

                      4                      5                      6
                      A                      A                      A
 Frequencies --     67.6484                97.0549               108.0169
 Red. masses --      3.5829                 4.2313                 3.7692
 Frc consts  --      0.0097                 0.0235                 0.0259
 IR Inten    --      0.0882                 1.0396                 0.2904

                      7                      8                      9
                      A                      A                      A
 Frequencies --    130.3127               164.7445               180.6738
 Red. masses --      5.0557                 3.7381                 2.9981
 Frc consts  --      0.0506                 0.0598                 0.0577
 IR Inten    --      0.6130                 5.1789                 3.8203

                     10                     11                     12
                      A                      A                      A
 Frequencies --    247.2288               263.7272               327.3646
 Red. masses --      3.8169                 2.1593                 2.6957
 Frc consts  --      0.1375                 0.0885                 0.1702
 IR Inten    --      9.5295                 4.6921                 2.7258

                     13                     14                     15
                      A                      A                      A
 Frequencies --    352.9548               389.9036               395.5958
 Red. masses --      2.8691                 4.1506                 4.4208
 Frc consts  --      0.2106                 0.3718                 0.4076
 IR Inten    --      1.1034                 3.2228                 4.1979

                     16                     17                     18
                      A                      A                      A
 Frequencies --    454.1128               518.7720               551.3462
 Red. masses --      3.4576                 1.7658                 3.2882
 Frc consts  --      0.4201                 0.2800                 0.5889
 IR Inten    --     18.1608                33.5568                13.2588

                     19                     20                     21
                      A                      A                      A
 Frequencies --    567.9921               571.6280               619.0782
 Red. masses --      1.1575                 2.7023                 2.8046
 Frc consts  --      0.2200                 0.5203                 0.6333
 IR Inten    --     77.9930                10.4364                35.9412

                     22                     23                     24
                      A                      A                      A
 Frequencies --    629.7644               662.3782               710.0000
 Red. masses --      2.6315                 2.4289                 1.3498
 Frc consts  --      0.6149                 0.6279                 0.4009
 IR Inten    --     36.0588                33.2790               173.8664

                     25                     26                     27
                      A                      A                      A
 Frequencies --    746.5333               764.3747               800.1689
 Red. masses --      3.5549                 1.9760                 1.2643
 Frc consts  --      1.1673                 0.6802                 0.4770
 IR Inten    --     25.6093                 8.8634                 3.5468

                     28                     29                     30
                      A                      A                      A
 Frequencies --    842.5823               846.8407               873.2927
 Red. masses --      1.9282                 1.5251                 2.2271
 Frc consts  --      0.8065                 0.6444                 1.0007
 IR Inten    --     68.5980                 5.5763                12.7084

                     31                     32                     33
                      A                      A                      A
 Frequencies --    889.4755               923.4330               960.3717
 Red. masses --      2.9109                 3.8189                 3.1725
 Frc consts  --      1.3569                 1.9187                 1.7240
 IR Inten    --      5.4097                25.7638                 1.5795

                     34                     35                     36
                      A                      A                      A
 Frequencies --    987.9366              1023.2770              1047.7903
 Red. masses --      2.0177                 1.1923                 2.1000
 Frc consts  --      1.1603                 0.7356                 1.3584
 IR Inten    --     13.4671                47.9747                15.6830

                     37                     38                     39
                      A                      A                      A
 Frequencies --   1054.8002              1076.7542              1103.7816
 Red. masses --      2.1024                 1.3082                 1.3628
 Frc consts  --      1.3782                 0.8936                 0.9783
 IR Inten    --      4.5281                 8.4567                 5.9077

                     40                     41                     42
                      A                      A                      A
 Frequencies --   1114.9844              1140.9744              1196.9324
 Red. masses --      2.9546                 1.1562                 1.6276
 Frc consts  --      2.1642                 0.8868                 1.3738
 IR Inten    --     64.4742                 1.0634               231.9451

                     43                     44                     45
                      A                      A                      A
 Frequencies --   1213.0033              1217.7755              1219.7368
 Red. masses --      1.3638                 1.9011                 1.5358
 Frc consts  --      1.1823                 1.6611                 1.3462
 IR Inten    --      3.8599                15.8240                54.7643

                     46                     47                     48
                      A                      A                      A
 Frequencies --   1252.4516              1259.9850              1295.0588
 Red. masses --      1.6875                 1.4312                 1.5954
 Frc consts  --      1.5596                 1.3387                 1.5766
 IR Inten    --     12.4017                17.0172               109.1014

                     49                     50                     51
                      A                      A                      A
 Frequencies --   1327.7467              1343.0738              1358.8824
 Red. masses --      1.9090                 1.6814                 1.3908
 Frc consts  --      1.9829                 1.7869                 1.5131
 IR Inten    --     98.7830                23.1595                29.6753

                     52                     53                     54
                      A                      A                      A
 Frequencies --   1391.5508              1405.1558              1415.9985
 Red. masses --      2.3740                 1.3629                 1.3306
 Frc consts  --      2.7085                 1.5854                 1.5719
 IR Inten    --     79.2682                39.5020                 7.6765

                     55                     56                     57
                      A                      A                      A
 Frequencies --   1442.1898              1475.9678              1488.8261
 Red. masses --      1.8528                 2.3118                 1.1203
 Frc consts  --      2.2705                 2.9672                 1.4630
 IR Inten    --     58.1675                77.7117                 1.7732

                     58                     59                     60
                      A                      A                      A
 Frequencies --   1497.7235              1513.7227              1516.2086
 Red. masses --      1.1003                 1.1191                 1.5360
 Frc consts  --      1.4542                 1.5109                 2.0804
 IR Inten    --      8.1732                16.2475                15.0883

                     61                     62                     63
                      A                      A                      A
 Frequencies --   1528.5798              1709.1083              1773.4895
 Red. masses --      1.3582                 4.4422                 7.6144
 Frc consts  --      1.8698                 7.6452                14.1104
 IR Inten    --      6.4300               319.5578               345.9867

                     64                     65                     66
                      A                      A                      A
 Frequencies --   1813.9315              3055.7414              3082.8872
 Red. masses --      8.5633                 1.0683                 1.0670
 Frc consts  --     16.6010                 5.8775                 5.9749
 IR Inten    --    544.8602                 9.4104                43.4113

                     67                     68                     69
                      A                      A                      A
 Frequencies --   3128.5260              3134.6292              3154.8755
 Red. masses --      1.0937                 1.0876                 1.0579
 Frc consts  --      6.3069                 6.2965                 6.2037
 IR Inten    --      4.5508                26.0843                 8.8293

                     70                     71                     72
                      A                      A                      A
 Frequencies --   3155.2778              3158.6866              3199.9924
 Red. masses --      1.0931                 1.0598                 1.0912
 Frc consts  --      6.4118                 6.2298                 6.5835
 IR Inten    --     16.0405                 7.2800                 0.8780

                     73                     74                     75
                      A                      A                      A
 Frequencies --   3215.3840              3234.7867              3248.3455
 Red. masses --      1.0890                 1.1201                 1.1169
 Frc consts  --      6.6334                 6.9056                 6.9437
 IR Inten    --      4.6321                 6.5873                 7.6321

                     76                     77                     78
                      A                      A                      A
 Frequencies --   3566.1015              3580.3078              3711.1507
 Red. masses --      1.0753                 1.0758                 1.0643
 Frc consts  --      8.0566                 8.1253                 8.6364
 IR Inten    --     34.8120                21.5787                60.9856

 - Thermochemistry -
 -------------------
 Temperature   298.150 Kelvin.  Pressure   1.00000 Atm.
 Atom     1 has atomic number  6 and mass  12.00000

 Molecular mass:   198.10044 amu.
 Principal axes and moments of inertia in atomic units:
                           1         2         3
     Eigenvalues --  2238.201223900.903515212.28937
           X            0.99988  -0.01485  -0.00410
           Y            0.01482   0.99986  -0.00715
           Z            0.00421   0.00709   0.99997
 This molecule is an asymmetric top.
 Rotational symmetry number  1.
 Warning -- assumption of classical behavior for rotation
           may cause significant error
 Rotational temperatures (Kelvin)      0.03870     0.02220     0.01662
 Rotational constants (GHZ):           0.80634     0.46265     0.34625
 Zero-point vibrational energy     613666.9 (Joules/Mol)
                                  146.66992 (Kcal/Mol)
 Warning -- explicit consideration of  21 degrees of freedom as
           vibrations may cause significant error
 Vibrational temperatures:     29.99    56.81    65.19    97.33   139.64
          (Kelvin)            155.41   187.49   237.03   259.95   355.71
                              379.44   471.00   507.82   560.98   569.17
                              653.37   746.40   793.26   817.21   822.45
                              890.72   906.09   953.01  1021.53  1074.09
                             1099.76  1151.26  1212.29  1218.41  1256.47
                             1279.76  1328.61  1381.76  1421.42  1472.27
                             1507.54  1517.62  1549.21  1588.10  1604.21
                             1641.61  1722.12  1745.24  1752.11  1754.93
                             1802.00  1812.84  1863.30  1910.33  1932.38
                             1955.13  2002.13  2021.71  2037.31  2074.99
                             2123.59  2142.09  2154.89  2177.91  2181.49
                             2199.29  2459.03  2551.66  2609.84  4396.53
                             4435.59  4501.25  4510.03  4539.16  4539.74
                             4544.65  4604.08  4626.22  4654.14  4673.64
                             5130.82  5151.26  5339.52

 Zero-point correction=                           0.233733 (Hartree/Particle)
 Thermal correction to Energy=                    0.248219
 Thermal correction to Enthalpy=                  0.249163
 Thermal correction to Gibbs Free Energy=         0.190045
 Sum of electronic and zero-point Energies=           -686.356318
 Sum of electronic and thermal Energies=              -686.341833
 Sum of electronic and thermal Enthalpies=            -686.340889
 Sum of electronic and thermal Free Energies=         -686.400007

                     E (Thermal)             CV                S
                      KCal/Mol        Cal/Mol-Kelvin    Cal/Mol-Kelvin
 Total                  155.760             52.974            124.426
 Electronic               0.000              0.000              0.000
 Translational            0.889              2.981             41.756
 Rotational               0.889              2.981             32.187
 Vibrational            153.982             47.012             50.483
 Vibration     1          0.593              1.986              6.552
 Vibration     2          0.594              1.981              5.285
 Vibration     3          0.595              1.979              5.012
 Vibration     4          0.598              1.970              4.221
 Vibration     5          0.603              1.951              3.513
 Vibration     6          0.606              1.943              3.304
 Vibration     7          0.612              1.923              2.941
 Vibration     8          0.623              1.886              2.495
 Vibration     9          0.630              1.866              2.321
 Vibration    10          0.661              1.767              1.750
 Vibration    11          0.670              1.739              1.637
 Vibration    12          0.711              1.621              1.273
 Vibration    13          0.729              1.569              1.153
 Vibration    14          0.758              1.492              1.001
 Vibration    15          0.762              1.480              0.979
 Vibration    16          0.813              1.352              0.783
 Vibration    17          0.874              1.208              0.613
 Vibration    18          0.907              1.137              0.541
 Vibration    19          0.924              1.100              0.508
 Vibration    20          0.928              1.093              0.501
 Vibration    21          0.979              0.992              0.418

 Optimization completed.
    -- Stationary point found.
 Normal termination of Gaussian 16 at Thu Dec 10 11:06:26 2020.

 ----------------------------------------------------------------------
 # B3LYP/6-311++G(d,p) empiricaldispersion=gd3bj scf=xqc pop=npa geom=c
 heck
 ----------------------------------------------------------------------

 ---------------------------------------
 CID_103256438_JID_4937_Energie_neutraal
 ---------------------------------------
 Structure from the checkpoint file:  "JID_4937.chk"
 Charge =  0 Multiplicity = 1

 SCF Done:  E(RB3LYP) =  -686.806544400     A.U. after   14 cycles
 Normal termination of Gaussian 16 at Thu Dec 10 11:09:10 2020.

 ----------------------------------------------------------------------
 # B3LYP/6-311++G(d,p) empiricaldispersion=gd3bj scf=xqc pop=npa geom=c
 heck
 ----------------------------------------------------------------------

 -------------------------------------
 CID_103256438_JID_4937_Energie_kation
 -------------------------------------
 Structure from the checkpoint file:  "JID_4937.chk"
 Charge =  1 Multiplicity = 2

 SCF Done:  E(UB3LYP) =  -686.506162201     A.U. after   23 cycles
 Normal termination of Gaussian 16 at Thu Dec 10 11:14:52 2020.
 Gaussian 16:  ES64L-G16RevA.03 25-Dec-2016

 ----------------------------------------------------------------------
 # B3LYP/6-311++G(d,p) empiricaldispersion=gd3bj scf=xqc pop=npa geom=c
 heck
 ----------------------------------------------------------------------

 ------------------------------------
 CID_103256438_JID_4937_Energie_anion
 ------------------------------------
 Structure from the checkpoint file:  "JID_4937.chk"
 Charge = -1 Multiplicity = 2

                         Standard orientation:
 ---------------------------------------------------------------------
 Center     Atomic      Atomic             Coordinates (Angstroms)
 Number     Number       Type             X           Y           Z
 ---------------------------------------------------------------------
      1          6           0       -0.526161    2.119582    0.734467
      2          6           0       -1.230338    3.071268   -0.194379
      3          6           0       -1.963699    1.866100    0.332680
      4          7           0       -2.263259    0.818387   -0.601960
      5          6           0       -2.188208   -0.530420   -0.405867
      6          8           0       -2.432240   -1.322026   -1.314383
      7          6           0       -1.776895   -1.018053    0.978409
      8          6           0       -0.974248   -2.321015    0.851694
      9          7           0        0.149849   -2.187057   -0.071050
     10          6           0        1.164440   -1.325879    0.217735
     11          6           0        1.982614   -0.716743   -0.677937
     12          6           0        3.068216    0.162579   -0.282316
     13          8           0        3.855523    0.702798   -1.039985
     14          8           0        3.137041    0.377740    1.074589
     15          1           0       -0.338050    2.434233    1.756827
     16          1           0        0.231836    1.468234    0.310221
     17          1           0       -1.528490    4.047356    0.175478
     18          1           0       -0.936269    3.053596   -1.240174
     19          1           0       -2.727286    2.048513    1.088041
     20          1           0       -2.592070    1.077714   -1.525015
     21          1           0       -1.192579   -0.258875    1.503686
     22          1           0       -2.686387   -1.189890    1.569898
     23          1           0       -0.592306   -2.623953    1.832360
     24          1           0       -1.613573   -3.120202    0.473832
     25          1           0       -0.135567   -2.223174   -1.044325
     26          1           0        1.318835   -1.150748    1.279791
     27          1           0        1.868539   -0.866283   -1.746624
     28          1           0        3.900312    0.971562    1.188399
 ---------------------------------------------------------------------

 SCF Done:  E(UB3LYP) =  -686.798393022     A.U. after   33 cycles
 SCF Done:  E(UB3LYP) =  -686.798393022     a.u. after    1 cycles

 The electronic state is 2-A.
 Alpha  occ. eigenvalues --  -19.05177 -18.99699 -18.98609 -14.24784 -14.23556
 Alpha  occ. eigenvalues --  -10.18233 -10.17861 -10.12121 -10.11412 -10.10831
 Alpha  occ. eigenvalues --  -10.08472 -10.08322 -10.07898 -10.05448  -0.98651
 Alpha  occ. eigenvalues --   -0.94820  -0.89462  -0.84769  -0.84281  -0.74955
 Alpha  occ. eigenvalues --   -0.69249  -0.65400  -0.57645  -0.53834  -0.52595
 Alpha  occ. eigenvalues --   -0.51417  -0.48792  -0.46983  -0.42974  -0.42111
 Alpha  occ. eigenvalues --   -0.39992  -0.39852  -0.38447  -0.37145  -0.35874
 Alpha  occ. eigenvalues --   -0.33997  -0.33713  -0.33216  -0.31423  -0.30093
 Alpha  occ. eigenvalues --   -0.29172  -0.28881  -0.27796  -0.27671  -0.26509
 Alpha  occ. eigenvalues --   -0.23605  -0.22834  -0.21544  -0.21058  -0.16835
 Alpha  occ. eigenvalues --   -0.16627  -0.16275  -0.11918   0.04340
 Alpha virt. eigenvalues --    0.06322   0.06857   0.07728   0.08030   0.08948
 Alpha virt. eigenvalues --    0.09312   0.09807   0.10426   0.11066   0.11158
 Alpha virt. eigenvalues --    0.12443   0.12972   0.13629   0.14274   0.14603

  Beta  occ. eigenvalues --  -19.05163 -18.99697 -18.98513 -14.24778 -14.23532
  Beta  occ. eigenvalues --  -10.18233 -10.17767 -10.12092 -10.11392 -10.10625
  Beta  occ. eigenvalues --  -10.08451 -10.08297 -10.07886 -10.05461  -0.98557
  Beta  occ. eigenvalues --   -0.94814  -0.89330  -0.84640  -0.84256  -0.74922
  Beta  occ. eigenvalues --   -0.69112  -0.65294  -0.57547  -0.53744  -0.52428
  Beta  occ. eigenvalues --   -0.51350  -0.48725  -0.46939  -0.42913  -0.42002
  Beta  occ. eigenvalues --   -0.39928  -0.39764  -0.38392  -0.37060  -0.35768
  Beta  occ. eigenvalues --   -0.33944  -0.33664  -0.32858  -0.31328  -0.30025
  Beta  occ. eigenvalues --   -0.29126  -0.28804  -0.27721  -0.27633  -0.26475
  Beta  occ. eigenvalues --   -0.23182  -0.22748  -0.21504  -0.20725  -0.16821
  Beta  occ. eigenvalues --   -0.16540  -0.16249  -0.11587
  Beta virt. eigenvalues --    0.07081   0.07585   0.07832   0.07963   0.08509
  Beta virt. eigenvalues --    0.09310   0.09657   0.10249   0.10918   0.11101
  Beta virt. eigenvalues --    0.11627   0.12985   0.13148   0.13839   0.14274

 Mulliken charges and spin densities:
               1          2
     1  C   -0.120477  -0.150954
     2  C    0.817117  -1.376696
     3  C   -0.270956   0.223443
     4  N   -0.100526  -0.050685
     5  C   -0.063073  -0.043645
     6  O   -0.349419  -0.002668
     7  C    0.622053  -0.427795
     8  C   -0.259766  -0.414067
     9  N    0.052629   0.038674
    10  C   -0.513589  -0.142808
    11  C    0.499540  -0.066918
    12  C   -0.467841   0.225197
    13  O   -0.341585   0.024351
    14  O   -0.219556   0.003641
    15  H   -0.248117   0.412736
    16  H    0.791845  -0.580351
    17  H   -0.421645   0.596180
    18  H    0.111896   0.024815
    19  H   -0.762922   1.023354
    20  H    0.202303   0.085454
    21  H    0.145008   0.037748
    22  H   -0.679401   0.905781
    23  H   -0.291921   0.474879
    24  H    0.239982  -0.053959
    25  H    0.242058  -0.000992
    26  H    0.027112   0.155668
    27  H    0.161110   0.012248
    28  H    0.198137   0.067370
 Sum of Mulliken charges =  -1.00000   1.00000

 Dipole moment (field-independent basis, Debye):
    X=              2.3893    Y=             -2.5538    Z=             -3.3067  Tot=              4.8130
 Quadrupole moment (field-independent basis, Debye-Ang):
   XX=           -150.7009   YY=           -126.8184   ZZ=           -120.5006
   XY=              5.4732   XZ=             18.6421   YZ=             -4.5637

 Summary of Natural Population Analysis:

                                       Natural Population
                Natural  -----------------------------------------------
    Atom  No    Charge         Core      Valence    Rydberg      Total
 -----------------------------------------------------------------------
      C    1   -0.20141      0.99961     2.19164    0.01015     3.20141
      C    2   -0.19470      0.99962     2.18557    0.00951     3.19470
      C    3   -0.02797      0.99957     2.01412    0.01429     3.02797
      N    4   -0.31389      0.99966     2.80357    0.01066     3.81389
      C    5    0.35051      0.99967     1.62662    0.02320     2.64949
      O    6   -0.33906      0.99988     3.33373    0.00546     4.33906
      C    7   -0.24467      0.99958     2.23654    0.00855     3.24467
      C    8   -0.08334      0.99962     2.07063    0.01308     3.08334
      N    9   -0.29908      0.99970     2.79021    0.00917     3.79908
      C   10    0.08510      0.99956     1.90220    0.01315     2.91490
      C   11   -0.22595      0.99950     2.21681    0.00965     3.22595
      C   12    0.38921      0.99967     1.58675    0.02437     2.61079
      O   13   -0.32148      0.99987     3.31566    0.00595     4.32148
      O   14   -0.36141      0.99988     3.35490    0.00663     4.36141
      H   15    0.10706      0.00000     0.39140    0.00154     0.39294
      H   16    0.11364      0.00000     0.38446    0.00190     0.38636
      H   17    0.10805      0.00000     0.39036    0.00158     0.39195
      H   18    0.10214      0.00000     0.39693    0.00093     0.39786
      H   19    0.10590      0.00000     0.38790    0.00619     0.39410
      H   20    0.19330      0.00000     0.30452    0.00218     0.30670
      H   21    0.11181      0.00000     0.38602    0.00217     0.38819
      H   22    0.11841      0.00000     0.37968    0.00191     0.38159
      H   23    0.09895      0.00000     0.39988    0.00117     0.40105
      H   24    0.10208      0.00000     0.39686    0.00106     0.39792
      H   25    0.19145      0.00000     0.30650    0.00205     0.30855
      H   26    0.09793      0.00000     0.40047    0.00160     0.40207
      H   27    0.10221      0.00000     0.39681    0.00097     0.39779
      H   28    0.23522      0.00000     0.26110    0.00368     0.26478
 =======================================================================
   * Total *   -0.00000     13.99539    38.81183    0.19278    53.00000

 Normal termination of Gaussian 16 at Thu Dec 10 11:23:09 2020.
