 Gaussian 16, Revision A.03,

 -----------------------------------------------------------
 # opt freq B3LYP/6-31G(d) empiricaldispersion=gd3bj scf=xqc
 -----------------------------------------------------------

 -------------------------------
 CID_152531360_JID_4905_neutraal
 -------------------------------
 Symbolic Z-matrix:
 Charge =  0 Multiplicity = 1

 SCF Done:  E(RB3LYP) =  -592.494840634     A.U. after   14 cycles
 SCF Done:  E(RB3LYP) =  -592.498336849     A.U. after   12 cycles
 SCF Done:  E(RB3LYP) =  -592.498435824     A.U. after   12 cycles
 SCF Done:  E(RB3LYP) =  -592.498814558     A.U. after   12 cycles
 SCF Done:  E(RB3LYP) =  -592.498893413     A.U. after   10 cycles
 SCF Done:  E(RB3LYP) =  -592.498908129     A.U. after   10 cycles
 SCF Done:  E(RB3LYP) =  -592.498910167     A.U. after    9 cycles
 SCF Done:  E(RB3LYP) =  -592.498910576     A.U. after    7 cycles
 SCF Done:  E(RB3LYP) =  -592.498910628     A.U. after    8 cycles
 SCF Done:  E(RB3LYP) =  -592.498910608     A.U. after    8 cycles
 SCF Done:  E(RB3LYP) =  -592.498910514     A.U. after    8 cycles
 SCF Done:  E(RB3LYP) =  -592.498910479     A.U. after    7 cycles
 Optimization completed.
    -- Stationary point found.
 Normal termination of Gaussian 16 at Thu Dec 10 10:48:18 2020.

 --------------------------------------------------------------------
 #N Geom=AllCheck Guess=TCheck SCRF=Check GenChk RB3LYP/6-31G(d) Freq
 --------------------------------------------------------------------

 Structure from the checkpoint file:  "JID_4905.chk"
 -------------------------------
 CID_152531360_JID_4905_neutraal
 -------------------------------
 Charge =  0 Multiplicity = 1

 SCF Done:  E(RB3LYP) =  -592.498910479     A.U. after    1 cycles

  Exact polarizability: 186.173   1.173 130.602  19.973  -0.810  81.198
 Approx polarizability: 258.789   2.430 225.292  40.072  -3.291 123.694

                      1                      2                      3
                      A                      A                      A
 Frequencies --     20.7277                60.3899               100.0556
 Red. masses --      3.6991                 3.8461                 2.8260
 Frc consts  --      0.0009                 0.0083                 0.0167
 IR Inten    --      0.7544                 0.5273                 0.1128

                      4                      5                      6
                      A                      A                      A
 Frequencies --    136.3522               150.0573               167.9565
 Red. masses --      3.1294                 2.1207                 3.2140
 Frc consts  --      0.0343                 0.0281                 0.0534
 IR Inten    --      3.7743                 2.0261                 2.6585

                      7                      8                      9
                      A                      A                      A
 Frequencies --    229.0201               266.3865               271.1455
 Red. masses --      1.4276                 4.5478                 3.2212
 Frc consts  --      0.0441                 0.1901                 0.1395
 IR Inten    --      0.0906                 0.3838                 9.5112

                     10                     11                     12
                      A                      A                      A
 Frequencies --    296.8745               311.2345               322.7410
 Red. masses --      1.4749                 1.9228                 2.3596
 Frc consts  --      0.0766                 0.1097                 0.1448
 IR Inten    --     19.8170                 6.5644                 6.0609

                     13                     14                     15
                      A                      A                      A
 Frequencies --    388.5603               436.4506               456.8466
 Red. masses --      2.4142                 2.3955                 3.0722
 Frc consts  --      0.2148                 0.2689                 0.3778
 IR Inten    --      0.8546                 1.4217                 0.3418

                     16                     17                     18
                      A                      A                      A
 Frequencies --    515.5047               575.3592               584.8638
 Red. masses --      4.2451                 4.1192                 5.4986
 Frc consts  --      0.6647                 0.8034                 1.1082
 IR Inten    --      0.7901                 1.8422                 0.6853

                     19                     20                     21
                      A                      A                      A
 Frequencies --    591.4137               664.0071               708.1246
 Red. masses --      4.3001                 5.0310                 4.0255
 Frc consts  --      0.8862                 1.3069                 1.1893
 IR Inten    --      0.2072                 5.0167                 0.8887

                     22                     23                     24
                      A                      A                      A
 Frequencies --    752.4853               760.2987               766.9434
 Red. masses --      4.5180                 1.4005                 1.3380
 Frc consts  --      1.5073                 0.4770                 0.4637
 IR Inten    --      3.3487                46.8233                 5.9174

                     25                     26                     27
                      A                      A                      A
 Frequencies --    780.0282               820.0710               858.1448
 Red. masses --      3.3750                 2.6838                 2.0879
 Frc consts  --      1.2099                 1.0634                 0.9059
 IR Inten    --      9.2032                 0.6860                48.6888

                     28                     29                     30
                      A                      A                      A
 Frequencies --    868.8517               893.3005               909.1899
 Red. masses --      1.4780                 3.5534                 1.4968
 Frc consts  --      0.6574                 1.6707                 0.7290
 IR Inten    --      0.0445                13.2842                34.7645

                     31                     32                     33
                      A                      A                      A
 Frequencies --    933.8538               956.3239               972.3797
 Red. masses --      1.3458                 2.3496                 1.2265
 Frc consts  --      0.6915                 1.2661                 0.6832
 IR Inten    --      2.1418                 8.1639                 0.0023

                     34                     35                     36
                      A                      A                      A
 Frequencies --    977.2290              1003.4406              1036.0927
 Red. masses --      1.6231                 2.5564                 1.8944
 Frc consts  --      0.9133                 1.5166                 1.1982
 IR Inten    --     15.1569                35.3763                 3.0504

                     37                     38                     39
                      A                      A                      A
 Frequencies --   1079.4700              1107.9382              1130.4145
 Red. masses --      2.1130                 1.6022                 1.8941
 Frc consts  --      1.4507                 1.1588                 1.4261
 IR Inten    --      3.0017                 4.3084                 0.5722

                     40                     41                     42
                      A                      A                      A
 Frequencies --   1134.9541              1175.3504              1190.4929
 Red. masses --      1.8468                 1.3842                 1.8366
 Frc consts  --      1.4016                 1.1267                 1.5336
 IR Inten    --      4.0481                 1.1819                 2.6214

                     43                     44                     45
                      A                      A                      A
 Frequencies --   1213.8416              1267.9862              1273.6030
 Red. masses --      1.4967                 2.0305                 1.6960
 Frc consts  --      1.2993                 1.9234                 1.6209
 IR Inten    --     20.1354                 8.1311                13.6848

                     46                     47                     48
                      A                      A                      A
 Frequencies --   1318.1021              1335.3423              1339.8585
 Red. masses --      1.9054                 1.2015                 1.1687
 Frc consts  --      1.9504                 1.2622                 1.2361
 IR Inten    --     24.0285                 7.0129                 2.6730

                     49                     50                     51
                      A                      A                      A
 Frequencies --   1349.7078              1388.6407              1395.7724
 Red. masses --      1.6580                 1.9942                 2.3689
 Frc consts  --      1.7795                 2.2657                 2.7191
 IR Inten    --     17.4130                10.6551                 6.0849

                     52                     53                     54
                      A                      A                      A
 Frequencies --   1406.0639              1410.2987              1440.2619
 Red. masses --      1.6265                 2.0779                 1.4961
 Frc consts  --      1.8945                 2.4350                 1.8285
 IR Inten    --      5.6384                 1.2587                 7.0518

                     55                     56                     57
                      A                      A                      A
 Frequencies --   1446.2896              1493.7507              1507.0051
 Red. masses --      2.4644                 2.8316                 1.0984
 Frc consts  --      3.0372                 3.7225                 1.4697
 IR Inten    --     31.6876                30.1898                 2.9757

                     58                     59                     60
                      A                      A                      A
 Frequencies --   1515.8771              1523.9765              1532.5089
 Red. masses --      1.1167                 1.0666                 1.1474
 Frc consts  --      1.5118                 1.4595                 1.5878
 IR Inten    --      7.0046                 1.1592                 5.7471

                     61                     62                     63
                      A                      A                      A
 Frequencies --   1534.0116              1540.4256              1578.3273
 Red. masses --      2.3826                 1.0732                 8.0087
 Frc consts  --      3.3033                 1.5004                11.7546
 IR Inten    --      4.8763                 3.6707                23.6435

                     64                     65                     66
                      A                      A                      A
 Frequencies --   1645.7708              1673.7951              1722.4868
 Red. masses --      6.4135                 4.2745                 1.2389
 Frc consts  --     10.2350                 7.0557                 2.1657
 IR Inten    --      0.1875                 3.2321                11.8162

                     67                     68                     69
                      A                      A                      A
 Frequencies --   3035.9319              3041.8835              3045.0138
 Red. masses --      1.0667                 1.0482                 1.0524
 Frc consts  --      5.7928                 5.7145                 5.7492
 IR Inten    --     11.1367                26.0975                34.4480

                     70                     71                     72
                      A                      A                      A
 Frequencies --   3065.6558              3072.8670              3098.4750
 Red. masses --      1.0647                 1.0944                 1.0976
 Frc consts  --      5.8956                 6.0888                 6.2083
 IR Inten    --     24.5668                20.9616                19.3534

                     73                     74                     75
                      A                      A                      A
 Frequencies --   3103.9906              3112.9634              3116.6169
 Red. masses --      1.1008                 1.1019                 1.1022
 Frc consts  --      6.2487                 6.2915                 6.3078
 IR Inten    --     91.5326                28.1935                28.5399

                     76                     77                     78
                      A                      A                      A
 Frequencies --   3185.9277              3200.4652              3215.1196
 Red. masses --      1.0859                 1.0903                 1.0944
 Frc consts  --      6.4940                 6.5799                 6.6651
 IR Inten    --      3.6152                21.0519                22.4428

                     79                     80                     81
                      A                      A                      A
 Frequencies --   3223.2159              3473.4061              3567.4300
 Red. masses --      1.0943                 1.0458                 1.0981
 Frc consts  --      6.6983                 7.4340                 8.2339
 IR Inten    --     10.7969                 1.6782                 6.0954

 - Thermochemistry -
 -------------------
 Temperature   298.150 Kelvin.  Pressure   1.00000 Atm.
 Atom     1 has atomic number  6 and mass  12.00000

 Molecular mass:   189.12660 amu.
 Principal axes and moments of inertia in atomic units:
                           1         2         3
     Eigenvalues --  1207.675894317.456954887.44777
           X            0.99999  -0.00383  -0.00210
           Y            0.00382   0.99999  -0.00244
           Z            0.00210   0.00243   0.99999
 This molecule is an asymmetric top.
 Rotational symmetry number  1.
 Warning -- assumption of classical behavior for rotation
           may cause significant error
 Rotational temperatures (Kelvin)      0.07172     0.02006     0.01772
 Rotational constants (GHZ):           1.49439     0.41801     0.36926
 Zero-point vibrational energy     656594.3 (Joules/Mol)
                                  156.92980 (Kcal/Mol)
 Warning -- explicit consideration of  19 degrees of freedom as
           vibrations may cause significant error
 Vibrational temperatures:     29.82    86.89   143.96   196.18   215.90
          (Kelvin)            241.65   329.51   383.27   390.12   427.14
                              447.80   464.35   559.05   627.96   657.30
                              741.70   827.81   841.49   850.91   955.36
                             1018.83  1082.66  1093.90  1103.46  1122.29
                             1179.90  1234.68  1250.08  1285.26  1308.12
                             1343.61  1375.94  1399.04  1406.01  1443.73
                             1490.71  1553.12  1594.08  1626.41  1632.95
                             1691.07  1712.85  1746.45  1824.35  1832.43
                             1896.45  1921.26  1927.76  1941.93  1997.94
                             2008.21  2023.01  2029.11  2072.22  2080.89
                             2149.17  2168.24  2181.01  2192.66  2204.94
                             2207.10  2216.33  2270.86  2367.90  2408.22
                             2478.27  4368.03  4376.59  4381.10  4410.79
                             4421.17  4458.01  4465.95  4478.86  4484.12
                             4583.84  4604.76  4625.84  4637.49  4997.46
                             5132.74

 Zero-point correction=                           0.250084 (Hartree/Particle)
 Thermal correction to Energy=                    0.262954
 Thermal correction to Enthalpy=                  0.263899
 Thermal correction to Gibbs Free Energy=         0.210086
 Sum of electronic and zero-point Energies=           -592.248827
 Sum of electronic and thermal Energies=              -592.235956
 Sum of electronic and thermal Enthalpies=            -592.235012
 Sum of electronic and thermal Free Energies=         -592.288825

                     E (Thermal)             CV                S
                      KCal/Mol        Cal/Mol-Kelvin    Cal/Mol-Kelvin
 Total                  165.006             49.946            113.259
 Electronic               0.000              0.000              0.000
 Translational            0.889              2.981             41.618
 Rotational               0.889              2.981             31.611
 Vibrational            163.229             43.984             40.030
 Vibration     1          0.593              1.986              6.563
 Vibration     2          0.597              1.973              4.444
 Vibration     3          0.604              1.949              3.453
 Vibration     4          0.614              1.917              2.854
 Vibration     5          0.618              1.903              2.672
 Vibration     6          0.625              1.882              2.458
 Vibration     7          0.652              1.797              1.887
 Vibration     8          0.672              1.735              1.620
 Vibration     9          0.675              1.726              1.589
 Vibration    10          0.691              1.680              1.434
 Vibration    11          0.700              1.652              1.356
 Vibration    12          0.708              1.630              1.296
 Vibration    13          0.757              1.495              1.006
 Vibration    14          0.797              1.391              0.838
 Vibration    15          0.815              1.346              0.775
 Vibration    16          0.871              1.216              0.620
 Vibration    17          0.932              1.085              0.494
 Vibration    18          0.942              1.064              0.476
 Vibration    19          0.949              1.050              0.465

 Optimization completed.
    -- Stationary point found.
 Normal termination of Gaussian 16 at Thu Dec 10 10:56:09 2020.

 ----------------------------------------------------------------------
 # B3LYP/6-311++G(d,p) empiricaldispersion=gd3bj scf=xqc pop=npa geom=c
 heck
 ----------------------------------------------------------------------

 ---------------------------------------
 CID_152531360_JID_4905_Energie_neutraal
 ---------------------------------------
 Structure from the checkpoint file:  "JID_4905.chk"
 Charge =  0 Multiplicity = 1

 SCF Done:  E(RB3LYP) =  -592.660153110     A.U. after   15 cycles
 Normal termination of Gaussian 16 at Thu Dec 10 10:59:58 2020.

 ----------------------------------------------------------------------
 # B3LYP/6-311++G(d,p) empiricaldispersion=gd3bj scf=xqc pop=npa geom=c
 heck
 ----------------------------------------------------------------------

 -------------------------------------
 CID_152531360_JID_4905_Energie_kation
 -------------------------------------
 Structure from the checkpoint file:  "JID_4905.chk"
 Charge =  1 Multiplicity = 2

 SCF Done:  E(UB3LYP) =  -592.363936355     A.U. after   27 cycles
 Normal termination of Gaussian 16 at Thu Dec 10 11:08:27 2020.
 Gaussian 16:  ES64L-G16RevA.03 25-Dec-2016

 ----------------------------------------------------------------------
 # B3LYP/6-311++G(d,p) empiricaldispersion=gd3bj scf=xqc pop=npa geom=c
 heck
 ----------------------------------------------------------------------

 ------------------------------------
 CID_152531360_JID_4905_Energie_anion
 ------------------------------------
 Structure from the checkpoint file:  "JID_4905.chk"
 Charge = -1 Multiplicity = 2

                         Standard orientation:
 ---------------------------------------------------------------------
 Center     Atomic      Atomic             Coordinates (Angstroms)
 Number     Number       Type             X           Y           Z
 ---------------------------------------------------------------------
      1          6           0       -3.866077    1.010308    0.786971
      2          6           0       -2.981187   -0.163169    1.221742
      3          6           0       -2.826641   -1.255782    0.155226
      4          6           0       -1.976420   -0.840508   -1.064924
      5          6           0       -0.546752   -0.597215   -0.697751
      6          7           0        0.321042   -1.539534   -0.410317
      7          6           0        1.500293   -0.878493   -0.079910
      8          6           0        2.745105   -1.391231    0.303304
      9          6           0        3.766836   -0.487408    0.578177
     10          6           0        3.565625    0.904312    0.475700
     11          6           0        2.335937    1.436275    0.095220
     12          6           0        1.322486    0.520114   -0.175413
     13          7           0        0.001528    0.676307   -0.568631
     14          7           0       -0.587074    1.926693   -0.786743
     15          1           0       -3.481396    1.511562   -0.109949
     16          1           0       -3.945326    1.764513    1.577563
     17          1           0       -4.880138    0.667926    0.548984
     18          1           0       -1.986843    0.199995    1.516918
     19          1           0       -3.413192   -0.612168    2.124539
     20          1           0       -2.351592   -2.136777    0.600307
     21          1           0       -3.819534   -1.566560   -0.196499
     22          1           0       -1.997676   -1.648159   -1.803333
     23          1           0       -2.401004    0.046966   -1.547836
     24          1           0        2.894441   -2.463660    0.379880
     25          1           0        4.742527   -0.858612    0.878488
     26          1           0        4.388848    1.577030    0.698855
     27          1           0        2.165056    2.504084    0.011628
     28          1           0       -0.916357    1.985089   -1.748259
     29          1           0       -1.381520    2.041293   -0.161500
 ---------------------------------------------------------------------

 SCF Done:  E(UB3LYP) =  -592.651385903     A.U. after   33 cycles
 SCF Done:  E(UB3LYP) =  -592.651385903     a.u. after    1 cycles

 The electronic state is 2-A.
 Alpha  occ. eigenvalues --  -14.28936 -14.24344 -14.19399 -10.13784 -10.10722
 Alpha  occ. eigenvalues --  -10.09610 -10.07979 -10.07913 -10.07805 -10.07739
 Alpha  occ. eigenvalues --  -10.07719 -10.06874 -10.06473 -10.05096  -0.94136
 Alpha  occ. eigenvalues --   -0.83910  -0.75274  -0.71247  -0.70496  -0.65552
 Alpha  occ. eigenvalues --   -0.64371  -0.61563  -0.55957  -0.51408  -0.50862
 Alpha  occ. eigenvalues --   -0.49532  -0.46545  -0.43525  -0.42798  -0.41253
 Alpha  occ. eigenvalues --   -0.37547  -0.36179  -0.35361  -0.34561  -0.34173
 Alpha  occ. eigenvalues --   -0.32874  -0.31731  -0.29150  -0.28831  -0.27484
 Alpha  occ. eigenvalues --   -0.27239  -0.26441  -0.24412  -0.23438  -0.22776
 Alpha  occ. eigenvalues --   -0.22618  -0.20375  -0.20291  -0.16434  -0.13359
 Alpha  occ. eigenvalues --   -0.13037   0.04423
 Alpha virt. eigenvalues --    0.06785   0.06866   0.07670   0.08095   0.08738
 Alpha virt. eigenvalues --    0.09249   0.10125   0.10476   0.10573   0.11212
 Alpha virt. eigenvalues --    0.11688   0.12059   0.12945   0.12966   0.13309

  Beta  occ. eigenvalues --  -14.28925 -14.24251 -14.19392 -10.13760 -10.10722
  Beta  occ. eigenvalues --  -10.09610 -10.07960 -10.07902 -10.07802 -10.07722
  Beta  occ. eigenvalues --  -10.07689 -10.06860 -10.06454 -10.05026  -0.94086
  Beta  occ. eigenvalues --   -0.83840  -0.75246  -0.71159  -0.70439  -0.65500
  Beta  occ. eigenvalues --   -0.64325  -0.61516  -0.55873  -0.51352  -0.50827
  Beta  occ. eigenvalues --   -0.49453  -0.46457  -0.43465  -0.42699  -0.41223
  Beta  occ. eigenvalues --   -0.37501  -0.36134  -0.35329  -0.34531  -0.34150
  Beta  occ. eigenvalues --   -0.32811  -0.31692  -0.29092  -0.28762  -0.27433
  Beta  occ. eigenvalues --   -0.27209  -0.26419  -0.24343  -0.23383  -0.22719
  Beta  occ. eigenvalues --   -0.22568  -0.20325  -0.20219  -0.16384  -0.13288
  Beta  occ. eigenvalues --   -0.12954
  Beta virt. eigenvalues --    0.06684   0.06947   0.07562   0.08226   0.08878
  Beta virt. eigenvalues --    0.09046   0.09572   0.10304   0.10695   0.11130
  Beta virt. eigenvalues --    0.11548   0.12081   0.12394   0.13161   0.13321

 Mulliken charges and spin densities:
               1          2
     1  C    2.235638  -2.805597
     2  C   -1.293475   1.063249
     3  C   -0.057944  -0.169655
     4  C    2.196887  -2.232015
     5  C   -0.675879   0.215944
     6  N   -0.038630   0.045910
     7  C   -0.877603   0.927963
     8  C   -0.966881   0.642784
     9  C   -0.576406   0.133626
    10  C    0.305208  -0.501339
    11  C   -0.803257   0.560969
    12  C    1.627862  -1.278813
    13  N   -0.187224   0.395601
    14  N    0.173777  -0.662412
    15  H   -0.813182   0.962455
    16  H   -0.402457   0.547380
    17  H   -0.350591   0.490485
    18  H   -0.016078   0.171235
    19  H   -0.233032   0.382834
    20  H    0.147849   0.001842
    21  H   -0.225858   0.380525
    22  H   -0.097510   0.314059
    23  H   -0.148605   0.316954
    24  H    0.130021   0.019484
    25  H    0.099191   0.030540
    26  H    0.125856   0.014465
    27  H   -0.141653   0.338333
    28  H   -0.345773   0.632251
    29  H    0.209748   0.060944
 Sum of Mulliken charges =  -1.00000   1.00000

 Dipole moment (field-independent basis, Debye):
    X=              8.1125    Y=             -3.6240    Z=              1.9011  Tot=              9.0863
 Quadrupole moment (field-independent basis, Debye-Ang):
   XX=           -155.6110   YY=           -124.7475   ZZ=           -118.1581
   XY=             11.7692   XZ=             -0.2741   YZ=              1.9802

 Summary of Natural Population Analysis:

                                       Natural Population
                Natural  -----------------------------------------------
    Atom  No    Charge         Core      Valence    Rydberg      Total
 -----------------------------------------------------------------------
      C    1   -0.28852      0.99967     2.28333    0.00552     3.28852
      C    2   -0.19270      0.99964     2.18499    0.00807     3.19270
      C    3   -0.18262      0.99962     2.17443    0.00858     3.18262
      C    4   -0.21927      0.99958     2.20919    0.01050     3.21927
      C    5    0.22265      0.99958     1.75894    0.01884     2.77735
      N    6   -0.26245      0.99967     2.75427    0.00850     3.76245
      C    7    0.05668      0.99945     1.93154    0.01233     2.94332
      C    8   -0.10002      0.99953     2.09196    0.00853     3.10002
      C    9   -0.12006      0.99958     2.11038    0.01010     3.12006
      C   10   -0.11042      0.99959     2.10148    0.00935     3.11042
      C   11   -0.11110      0.99953     2.10203    0.00954     3.11110
      C   12    0.07048      0.99944     1.91852    0.01157     2.92952
      N   13   -0.13264      0.99954     2.62072    0.01238     3.63264
      N   14   -0.31269      0.99976     2.80025    0.01268     3.81269
      H   15    0.09641      0.00000     0.40017    0.00342     0.40359
      H   16    0.10078      0.00000     0.39779    0.00143     0.39922
      H   17    0.09878      0.00000     0.39925    0.00197     0.40122
      H   18    0.09294      0.00000     0.40556    0.00149     0.40706
      H   19    0.09622      0.00000     0.40277    0.00101     0.40378
      H   20    0.10037      0.00000     0.39838    0.00125     0.39963
      H   21    0.09721      0.00000     0.40171    0.00107     0.40279
      H   22    0.11356      0.00000     0.38524    0.00121     0.38644
      H   23    0.11037      0.00000     0.38688    0.00276     0.38963
      H   24    0.10105      0.00000     0.39756    0.00139     0.39895
      H   25    0.09613      0.00000     0.40310    0.00077     0.40387
      H   26    0.09681      0.00000     0.40246    0.00073     0.40319
      H   27    0.11055      0.00000     0.38837    0.00108     0.38945
      H   28    0.18552      0.00000     0.30855    0.00593     0.31448
      H   29    0.18597      0.00000     0.30984    0.00418     0.31403
 =======================================================================
   * Total *    0.00000     13.99416    36.82965    0.17619    51.00000

 Normal termination of Gaussian 16 at Thu Dec 10 11:18:03 2020.
