 Gaussian 16, Revision A.03,

 -----------------------------------------------------------
 # opt freq B3LYP/6-31G(d) empiricaldispersion=gd3bj scf=xqc
 -----------------------------------------------------------

 ------------------------------
 CID_82204505_JID_5742_neutraal
 ------------------------------
 Symbolic Z-matrix:
 Charge =  0 Multiplicity = 1

 SCF Done:  E(RB3LYP) =  -1003.02745714     A.U. after   16 cycles
 SCF Done:  E(RB3LYP) =  -1003.03079266     A.U. after   13 cycles
 SCF Done:  E(RB3LYP) =  -1003.03121701     A.U. after   13 cycles
 SCF Done:  E(RB3LYP) =  -1003.03158038     A.U. after   12 cycles
 SCF Done:  E(RB3LYP) =  -1003.03183049     A.U. after   13 cycles
 SCF Done:  E(RB3LYP) =  -1003.03202975     A.U. after   13 cycles
 SCF Done:  E(RB3LYP) =  -1003.03217485     A.U. after   12 cycles
 SCF Done:  E(RB3LYP) =  -1003.03232814     A.U. after   12 cycles
 SCF Done:  E(RB3LYP) =  -1003.03235247     A.U. after   11 cycles
 SCF Done:  E(RB3LYP) =  -1003.03236454     A.U. after   11 cycles
 SCF Done:  E(RB3LYP) =  -1003.03328843     A.U. after   11 cycles
 SCF Done:  E(RB3LYP) =  -1003.03328622     A.U. after   11 cycles
 SCF Done:  E(RB3LYP) =  -1003.03329051     A.U. after   11 cycles
 SCF Done:  E(RB3LYP) =  -1003.03329059     A.U. after    9 cycles
 SCF Done:  E(RB3LYP) =  -1003.03329062     A.U. after    8 cycles
 SCF Done:  E(RB3LYP) =  -1003.03329062     A.U. after    8 cycles
 Optimization completed.
    -- Stationary point found.
 Normal termination of Gaussian 16 at Thu Dec 10 16:49:55 2020.

 --------------------------------------------------------------------
 #N Geom=AllCheck Guess=TCheck SCRF=Check GenChk RB3LYP/6-31G(d) Freq
 --------------------------------------------------------------------

 Structure from the checkpoint file:  "JID_5742.chk"
 ------------------------------
 CID_82204505_JID_5742_neutraal
 ------------------------------
 Charge =  0 Multiplicity = 1

 SCF Done:  E(RB3LYP) =  -1003.03329062     A.U. after    1 cycles

  Exact polarizability: 169.777   4.633 158.282   9.151  -9.488  91.492
 Approx polarizability: 282.581  10.273 261.846  31.689 -31.636 159.551

                      1                      2                      3
                      A                      A                      A
 Frequencies --     24.9107                44.3289                56.5734
 Red. masses --      6.6143                 4.8715                 3.7397
 Frc consts  --      0.0024                 0.0056                 0.0071
 IR Inten    --      0.0347                 0.4249                 0.0029

                      4                      5                      6
                      A                      A                      A
 Frequencies --     88.3705                97.3999               117.6447
 Red. masses --      3.2886                 7.6752                 6.1135
 Frc consts  --      0.0151                 0.0429                 0.0499
 IR Inten    --      0.3404                 2.4682                 1.5117

                      7                      8                      9
                      A                      A                      A
 Frequencies --    167.1839               186.1608               257.1069
 Red. masses --      6.2350                 4.6416                 4.3603
 Frc consts  --      0.1027                 0.0948                 0.1698
 IR Inten    --      2.5867                 0.9682                 0.8770

                     10                     11                     12
                      A                      A                      A
 Frequencies --    294.6520               359.6793               364.8649
 Red. masses --      6.7037                 6.5174                 5.0896
 Frc consts  --      0.3429                 0.4968                 0.3992
 IR Inten    --      7.2062                 0.3407                 1.4213

                     13                     14                     15
                      A                      A                      A
 Frequencies --    407.3538               439.5582               496.0901
 Red. masses --      2.4142                 3.5852                 6.3200
 Frc consts  --      0.2360                 0.4081                 0.9164
 IR Inten    --      1.4002                 4.8799                 3.8965

                     16                     17                     18
                      A                      A                      A
 Frequencies --    531.3881               545.3488               579.2417
 Red. masses --      8.1018                 3.2545                 3.7905
 Frc consts  --      1.3479                 0.5703                 0.7493
 IR Inten    --      0.8697                 3.6704                 0.1957

                     19                     20                     21
                      A                      A                      A
 Frequencies --    595.3082               650.3085               664.9611
 Red. masses --      7.3101                 4.1045                 4.9497
 Frc consts  --      1.5264                 1.0227                 1.2895
 IR Inten    --      1.5144                 2.9181                 2.0108

                     22                     23                     24
                      A                      A                      A
 Frequencies --    702.2465               716.3565               741.0390
 Red. masses --      6.8973                 1.2022                 8.9495
 Frc consts  --      2.0041                 0.3635                 2.8955
 IR Inten    --      2.4651                57.6307                 4.9228

                     25                     26                     27
                      A                      A                      A
 Frequencies --    755.7415               827.0775               848.4213
 Red. masses --      6.6281                 2.3300                 1.8272
 Frc consts  --      2.2304                 0.9391                 0.7749
 IR Inten    --      1.6176                 9.9294                21.7513

                     28                     29                     30
                      A                      A                      A
 Frequencies --    866.6864               914.2816               930.1313
 Red. masses --      4.3849                 1.3323                 1.4893
 Frc consts  --      1.9406                 0.6562                 0.7591
 IR Inten    --     20.2481                 1.3787                 2.0134

                     31                     32                     33
                      A                      A                      A
 Frequencies --    961.7096               970.9606               972.9673
 Red. masses --      2.3186                 1.5223                 4.8429
 Frc consts  --      1.2634                 0.8456                 2.7012
 IR Inten    --      5.2049                33.3176                 9.0635

                     34                     35                     36
                      A                      A                      A
 Frequencies --   1033.9690              1071.4514              1086.9862
 Red. masses --      1.1086                 2.4882                 3.1157
 Frc consts  --      0.6983                 1.6830                 2.1690
 IR Inten    --     11.7790                17.2024                19.6912

                     37                     38                     39
                      A                      A                      A
 Frequencies --   1098.8596              1121.1785              1203.5090
 Red. masses --      2.8278                 1.1434                 2.3969
 Frc consts  --      2.0118                 0.8468                 2.0455
 IR Inten    --      4.3832                 0.7435                 2.4962

                     40                     41                     42
                      A                      A                      A
 Frequencies --   1235.7895              1268.7206              1315.0978
 Red. masses --      4.7950                 2.0101                 1.9927
 Frc consts  --      4.3145                 1.9064                 2.0306
 IR Inten    --     14.7851                 6.0389                12.0883

                     43                     44                     45
                      A                      A                      A
 Frequencies --   1331.9436              1335.0114              1379.5332
 Red. masses --      2.2098                 1.3698                 1.5562
 Frc consts  --      2.3098                 1.4384                 1.7449
 IR Inten    --     20.2189                 3.8180                12.0532

                     46                     47                     48
                      A                      A                      A
 Frequencies --   1387.1567              1400.4596              1464.6791
 Red. masses --      4.5830                 2.7958                 2.6943
 Frc consts  --      5.1958                 3.2306                 3.4055
 IR Inten    --     27.9905                 2.4891                18.4616

                     49                     50                     51
                      A                      A                      A
 Frequencies --   1480.5811              1489.0829              1515.5509
 Red. masses --      1.8643                 3.0931                 1.2113
 Frc consts  --      2.4078                 4.0409                 1.6392
 IR Inten    --     10.4027                 6.4744                23.2389

                     52                     53                     54
                      A                      A                      A
 Frequencies --   1546.8360              1627.2476              1737.5849
 Red. masses --      5.1115                 8.1319                 4.4731
 Frc consts  --      7.2059                12.6868                 7.9570
 IR Inten    --      9.5458                11.8836                 0.6113

                     55                     56                     57
                      A                      A                      A
 Frequencies --   2358.9557              3089.3744              3154.7270
 Red. masses --     12.6640                 1.0643                 1.0989
 Frc consts  --     41.5203                 5.9847                 6.4434
 IR Inten    --     28.5119                18.6872                 1.3591

                     58                     59                     60
                      A                      A                      A
 Frequencies --   3165.0745              3191.0686              3228.8333
 Red. masses --      1.0606                 1.0928                 1.0885
 Frc consts  --      6.2601                 6.5561                 6.6860
 IR Inten    --      8.0127                 3.3251                 6.2433

                     61                     62                     63
                      A                      A                      A
 Frequencies --   3242.7250              3248.6326              3274.4672
 Red. masses --      1.0954                 1.1160                 1.0974
 Frc consts  --      6.7866                 6.9394                 6.9325
 IR Inten    --      3.8836                 9.5563                 0.7441

 - Thermochemistry -
 -------------------
 Temperature   298.150 Kelvin.  Pressure   1.00000 Atm.
 Atom     1 has atomic number  6 and mass  12.00000

 Molecular mass:   216.04697 amu.
 Principal axes and moments of inertia in atomic units:
                           1         2         3
     Eigenvalues --  2821.348183336.178135440.04282
           X            0.99939  -0.03318  -0.01105
           Y            0.03316   0.99945  -0.00115
           Z            0.01108   0.00078   0.99994
 This molecule is an asymmetric top.
 Rotational symmetry number  1.
 Warning -- assumption of classical behavior for rotation
           may cause significant error
 Rotational temperatures (Kelvin)      0.03070     0.02596     0.01592
 Rotational constants (GHZ):           0.63967     0.54096     0.33175
 Zero-point vibrational energy     438198.9 (Joules/Mol)
                                  104.73206 (Kcal/Mol)
 Warning -- explicit consideration of  19 degrees of freedom as
           vibrations may cause significant error
 Vibrational temperatures:     35.84    63.78    81.40   127.15   140.14
          (Kelvin)            169.26   240.54   267.84   369.92   423.94
                              517.50   524.96   586.09   632.43   713.76
                              764.55   784.64   833.40   856.52   935.65
                              956.73  1010.38  1030.68  1066.19  1087.34
                             1189.98  1220.69  1246.97  1315.45  1338.25
                             1383.69  1397.00  1399.88  1487.65  1541.58
                             1563.93  1581.01  1613.13  1731.58  1778.03
                             1825.41  1892.13  1916.37  1920.78  1984.84
                             1995.81  2014.95  2107.35  2130.23  2142.46
                             2180.54  2225.55  2341.25  2500.00  3394.01
                             4444.92  4538.95  4553.84  4591.24  4645.57
                             4665.56  4674.06  4711.23

 Zero-point correction=                           0.166901 (Hartree/Particle)
 Thermal correction to Energy=                    0.180168
 Thermal correction to Enthalpy=                  0.181112
 Thermal correction to Gibbs Free Energy=         0.124741
 Sum of electronic and zero-point Energies=          -1002.866389
 Sum of electronic and thermal Energies=             -1002.853123
 Sum of electronic and thermal Enthalpies=           -1002.852179
 Sum of electronic and thermal Free Energies=        -1002.908549

                     E (Thermal)             CV                S
                      KCal/Mol        Cal/Mol-Kelvin    Cal/Mol-Kelvin
 Total                  113.057             48.628            118.642
 Electronic               0.000              0.000              0.000
 Translational            0.889              2.981             42.014
 Rotational               0.889              2.981             32.304
 Vibrational            111.279             42.666             44.324
 Vibration     1          0.593              1.985              6.198
 Vibration     2          0.595              1.980              5.056
 Vibration     3          0.596              1.975              4.573
 Vibration     4          0.601              1.957              3.696
 Vibration     5          0.603              1.951              3.506
 Vibration     6          0.608              1.935              3.139
 Vibration     7          0.624              1.883              2.467
 Vibration     8          0.632              1.859              2.266
 Vibration     9          0.667              1.751              1.681
 Vibration    10          0.689              1.684              1.447
 Vibration    11          0.734              1.555              1.123
 Vibration    12          0.738              1.545              1.101
 Vibration    13          0.772              1.454              0.936
 Vibration    14          0.800              1.384              0.828
 Vibration    15          0.852              1.259              0.668
 Vibration    16          0.886              1.181              0.584
 Vibration    17          0.901              1.150              0.554
 Vibration    18          0.936              1.076              0.487
 Vibration    19          0.953              1.042              0.458

 Optimization completed.
    -- Stationary point found.
 Normal termination of Gaussian 16 at Thu Dec 10 16:57:56 2020.

 ----------------------------------------------------------------------
 # B3LYP/6-311++G(d,p) empiricaldispersion=gd3bj scf=xqc pop=npa geom=c
 heck
 ----------------------------------------------------------------------

 --------------------------------------
 CID_82204505_JID_5742_Energie_neutraal
 --------------------------------------
 Structure from the checkpoint file:  "JID_5742.chk"
 Charge =  0 Multiplicity = 1

 SCF Done:  E(RB3LYP) =  -1003.21758011     A.U. after   17 cycles
 Normal termination of Gaussian 16 at Thu Dec 10 17:01:21 2020.

 ----------------------------------------------------------------------
 # B3LYP/6-311++G(d,p) empiricaldispersion=gd3bj scf=xqc pop=npa geom=c
 heck
 ----------------------------------------------------------------------

 ------------------------------------
 CID_82204505_JID_5742_Energie_kation
 ------------------------------------
 Structure from the checkpoint file:  "JID_5742.chk"
 Charge =  1 Multiplicity = 2

 SCF Done:  E(UB3LYP) =  -1002.90074985     A.U. after   25 cycles
 Normal termination of Gaussian 16 at Thu Dec 10 17:09:14 2020.
 Gaussian 16:  ES64L-G16RevA.03 25-Dec-2016

 ----------------------------------------------------------------------
 # B3LYP/6-311++G(d,p) empiricaldispersion=gd3bj scf=xqc pop=npa geom=c
 heck
 ----------------------------------------------------------------------

 -----------------------------------
 CID_82204505_JID_5742_Energie_anion
 -----------------------------------
 Structure from the checkpoint file:  "JID_5742.chk"
 Charge = -1 Multiplicity = 2

                         Standard orientation:
 ---------------------------------------------------------------------
 Center     Atomic      Atomic             Coordinates (Angstroms)
 Number     Number       Type             X           Y           Z
 ---------------------------------------------------------------------
      1          6           0        3.467590   -1.738835   -1.310790
      2          6           0        2.380800   -1.544713   -0.566893
      3          6           0        2.376215   -0.678206    0.663626
      4          7           0        1.518385    0.503010    0.509946
      5          6           0        0.175955    0.596282    0.300930
      6          6           0       -0.011493    1.963043    0.080548
      7          7           0        1.195909    2.603641    0.167980
      8          7           0        2.113154    1.724140    0.421465
      9          6           0       -1.228709    2.645675   -0.177187
     10          7           0       -2.238672    3.180658   -0.393236
     11          6           0       -0.760416   -0.509370    0.315127
     12          6           0       -0.767075   -1.632280    1.116150
     13          6           0       -1.854418   -2.506745    0.843646
     14          6           0       -2.664619   -2.043227   -0.159064
     15         16           0       -2.118717   -0.529346   -0.788672
     16          1           0        4.417677   -1.267032   -1.070582
     17          1           0        3.448545   -2.377689   -2.188916
     18          1           0        1.437660   -2.020233   -0.826009
     19          1           0        2.047547   -1.233883    1.546783
     20          1           0        3.370024   -0.275697    0.865854
     21          1           0       -0.037528   -1.811473    1.896492
     22          1           0       -2.030522   -3.433761    1.376690
     23          1           0       -3.558337   -2.500593   -0.561189
 ---------------------------------------------------------------------

 SCF Done:  E(UB3LYP) =  -1003.24013257     A.U. after   27 cycles

 The electronic state is 2-A.
 Alpha  occ. eigenvalues --  -88.73124 -14.26319 -14.23903 -14.21481 -14.17204
 Alpha  occ. eigenvalues --  -10.11916 -10.08906 -10.08836 -10.08174 -10.08126
 Alpha  occ. eigenvalues --  -10.07440 -10.06484 -10.05395 -10.04675 -10.03617
 Alpha  occ. eigenvalues --   -7.81801  -5.78105  -5.77729  -5.77413  -0.97033
 Alpha  occ. eigenvalues --   -0.80152  -0.77063  -0.74773  -0.70010  -0.68936
 Alpha  occ. eigenvalues --   -0.61412  -0.60258  -0.59644  -0.53586  -0.49372
 Alpha  occ. eigenvalues --   -0.47531  -0.44756  -0.42724  -0.41426  -0.38894
 Alpha  occ. eigenvalues --   -0.38438  -0.36141  -0.35114  -0.32673  -0.29839
 Alpha  occ. eigenvalues --   -0.29501  -0.27276  -0.26662  -0.26040  -0.25064
 Alpha  occ. eigenvalues --   -0.23737  -0.23198  -0.21742  -0.21476  -0.20194
 Alpha  occ. eigenvalues --   -0.18669  -0.17734  -0.15388  -0.14341  -0.12655
 Alpha  occ. eigenvalues --   -0.09824   0.03480
 Alpha virt. eigenvalues --    0.07368   0.07944   0.08517   0.09298   0.10025
 Alpha virt. eigenvalues --    0.10728   0.11281   0.12256   0.12636   0.12766
 Alpha virt. eigenvalues --    0.13249   0.14404   0.14555   0.15036   0.15554

  Beta  occ. eigenvalues --  -88.73049 -14.26024 -14.23795 -14.21562 -14.17061
  Beta  occ. eigenvalues --  -10.11930 -10.08812 -10.08629 -10.08175 -10.08005
  Beta  occ. eigenvalues --  -10.07442 -10.06331 -10.05047 -10.04783 -10.03377
  Beta  occ. eigenvalues --   -7.81734  -5.78066  -5.77695  -5.77176  -0.96778
  Beta  occ. eigenvalues --   -0.79860  -0.76836  -0.74396  -0.69874  -0.68574
  Beta  occ. eigenvalues --   -0.61260  -0.59870  -0.59228  -0.53274  -0.49118
  Beta  occ. eigenvalues --   -0.47249  -0.44502  -0.42427  -0.41127  -0.38686
  Beta  occ. eigenvalues --   -0.38207  -0.35773  -0.34968  -0.32313  -0.29713
  Beta  occ. eigenvalues --   -0.29249  -0.27098  -0.26481  -0.25772  -0.24188
  Beta  occ. eigenvalues --   -0.23502  -0.22551  -0.21610  -0.21241  -0.20013
  Beta  occ. eigenvalues --   -0.18508  -0.16796  -0.15173  -0.13184  -0.11561
  Beta  occ. eigenvalues --   -0.08357
  Beta virt. eigenvalues --    0.07275   0.07984   0.08458   0.09010   0.09429
  Beta virt. eigenvalues --    0.10005   0.10753   0.11730   0.12313   0.12751
  Beta virt. eigenvalues --    0.12904   0.13965   0.14476   0.14754   0.15102

 Mulliken charges and spin densities:
               1          2
     1  C   -0.469031  -0.018144
     2  C    0.333690   0.024617
     3  C   -0.478145  -0.114325
     4  N    0.210837   0.097932
     5  C    0.259859   0.206052
     6  C    0.226371   0.101690
     7  N   -0.146477  -0.044302
     8  N    0.041859   0.055290
     9  C   -0.845641  -0.013252
    10  N   -0.289144   0.070460
    11  C   -0.265390  -0.019819
    12  C    0.637191   0.273285
    13  C   -0.749477  -0.087026
    14  C   -0.023526   0.214895
    15  S   -0.449038   0.140156
    16  H    0.105975   0.010839
    17  H    0.116747  -0.004573
    18  H    0.193446   0.037869
    19  H    0.047236   0.084225
    20  H    0.151913   0.011596
    21  H    0.108013  -0.018854
    22  H    0.100130   0.009044
    23  H    0.182603  -0.017654
 Sum of Mulliken charges =  -1.00000   1.00000

 Dipole moment (field-independent basis, Debye):
    X=              3.7889    Y=             -6.8103    Z=              0.4419  Tot=              7.8059
 Quadrupole moment (field-independent basis, Debye-Ang):
   XX=           -123.6835   YY=           -136.4544   ZZ=           -101.4785
   XY=              2.8282   XZ=             -1.0431   YZ=              1.7187

 Summary of Natural Population Analysis:

                                       Natural Population
                Natural  -----------------------------------------------
    Atom  No    Charge         Core      Valence    Rydberg      Total
 -----------------------------------------------------------------------
      C    1   -0.19207      0.99958     2.18596    0.00653     3.19207
      C    2   -0.07980      0.99956     2.07179    0.00844     3.07980
      C    3   -0.10500      0.99960     2.09253    0.01287     3.10500
      N    4   -0.07072      0.99961     2.55658    0.01452     3.57072
      C    5    0.13093      0.99946     1.85712    0.01249     2.86907
      C    6   -0.01628      0.99940     2.00097    0.01591     3.01628
      N    7   -0.13791      0.99973     2.62411    0.01407     3.63791
      N    8   -0.03961      0.99978     2.52473    0.01510     3.53961
      C    9    0.14591      0.99964     1.83785    0.01661     2.85409
      N   10   -0.17160      0.99979     2.66094    0.01087     3.67160
      C   11   -0.10942      0.99948     2.09716    0.01278     3.10942
      C   12   -0.08181      0.99949     2.07164    0.01068     3.08181
      C   13   -0.16332      0.99954     2.15433    0.00945     3.16332
      C   14   -0.13359      0.99956     2.12276    0.01128     3.13359
      S   15    0.23658      4.99944     2.74213    0.02186     7.76342
      H   16    0.08849      0.00000     0.41042    0.00109     0.41151
      H   17    0.09165      0.00000     0.40736    0.00098     0.40835
      H   18    0.10606      0.00000     0.39267    0.00127     0.39394
      H   19    0.10445      0.00000     0.39410    0.00145     0.39555
      H   20    0.10709      0.00000     0.39109    0.00183     0.39291
      H   21    0.09506      0.00000     0.40376    0.00119     0.40494
      H   22    0.09775      0.00000     0.40125    0.00100     0.40225
      H   23    0.09718      0.00000     0.40191    0.00091     0.40282
 =======================================================================
   * Total *    0.00000     18.99366    36.80315    0.20319    56.00000

 Normal termination of Gaussian 16 at Thu Dec 10 17:19:46 2020.
