 Gaussian 16, Revision A.03,

 -----------------------------------------------------------
 # opt freq B3LYP/6-31G(d) empiricaldispersion=gd3bj scf=xqc
 -----------------------------------------------------------

 ------------------------------
 CID_49754055_JID_9930_neutraal
 ------------------------------
 Symbolic Z-matrix:
 Charge =  0 Multiplicity = 1

 SCF Done:  E(RB3LYP) =  -1186.47507133     A.U. after   15 cycles
 SCF Done:  E(RB3LYP) =  -1186.48056496     A.U. after   12 cycles
 SCF Done:  E(RB3LYP) =  -1186.48110457     A.U. after   12 cycles
 SCF Done:  E(RB3LYP) =  -1186.48268549     A.U. after   12 cycles
 SCF Done:  E(RB3LYP) =  -1186.48263172     A.U. after   13 cycles
 SCF Done:  E(RB3LYP) =  -1186.48318731     A.U. after   12 cycles
 SCF Done:  E(RB3LYP) =  -1186.48327286     A.U. after   12 cycles
 SCF Done:  E(RB3LYP) =  -1186.48379371     A.U. after   12 cycles
 SCF Done:  E(RB3LYP) =  -1186.48403076     A.U. after   12 cycles
 SCF Done:  E(RB3LYP) =  -1186.48424639     A.U. after   13 cycles
 SCF Done:  E(RB3LYP) =  -1186.48559869     A.U. after    8 cycles
 SCF Done:  E(RB3LYP) =  -1186.48560176     A.U. after   10 cycles
 SCF Done:  E(RB3LYP) =  -1186.48560333     A.U. after    8 cycles
 SCF Done:  E(RB3LYP) =  -1186.48560367     A.U. after    7 cycles
 SCF Done:  E(RB3LYP) =  -1186.48560368     A.U. after    7 cycles
 Optimization completed.
    -- Stationary point found.
 Normal termination of Gaussian 16 at Sat Dec 12 10:34:26 2020.

 --------------------------------------------------------------------
 #N Geom=AllCheck Guess=TCheck SCRF=Check GenChk RB3LYP/6-31G(d) Freq
 --------------------------------------------------------------------

 Structure from the checkpoint file:  "JID_9930.chk"
 ------------------------------
 CID_49754055_JID_9930_neutraal
 ------------------------------
 Charge =  0 Multiplicity = 1

 SCF Done:  E(RB3LYP) =  -1186.48560368     A.U. after    1 cycles

  Exact polarizability: 166.542  14.903 169.096   9.726  -4.768 170.284
 Approx polarizability: 223.231  35.670 268.466  15.357 -18.254 303.719

                      1                      2                      3
                      A                      A                      A
 Frequencies --     20.9837                23.6419                42.6112
 Red. masses --      4.6213                 4.6367                 4.8053
 Frc consts  --      0.0012                 0.0015                 0.0051
 IR Inten    --      0.2061                 0.2147                 0.3828

                      4                      5                      6
                      A                      A                      A
 Frequencies --     56.0781                71.2204                78.4739
 Red. masses --      2.6897                 6.3123                 6.2167
 Frc consts  --      0.0050                 0.0189                 0.0226
 IR Inten    --      0.4284                 0.4020                 0.9996

                      7                      8                      9
                      A                      A                      A
 Frequencies --     82.9676               105.5991               132.2690
 Red. masses --      4.6517                 4.0310                 4.4140
 Frc consts  --      0.0189                 0.0265                 0.0455
 IR Inten    --      0.4401                 0.5858                 2.5298

                     10                     11                     12
                      A                      A                      A
 Frequencies --    166.1670               218.4467               225.9684
 Red. masses --      4.0169                 4.2485                 5.6768
 Frc consts  --      0.0653                 0.1194                 0.1708
 IR Inten    --      3.0991                 4.3329                 1.2019

                     13                     14                     15
                      A                      A                      A
 Frequencies --    234.9491               243.8323               269.9404
 Red. masses --      1.6909                 1.6827                 1.1668
 Frc consts  --      0.0550                 0.0589                 0.0501
 IR Inten    --      0.2204                 0.3183                 1.3653

                     16                     17                     18
                      A                      A                      A
 Frequencies --    284.0165               318.5824               358.3225
 Red. masses --      2.4932                 2.6671                 2.8486
 Frc consts  --      0.1185                 0.1595                 0.2155
 IR Inten    --      0.9715                 1.4616                 0.3100

                     19                     20                     21
                      A                      A                      A
 Frequencies --    383.6769               409.3968               429.5202
 Red. masses --      5.0985                 2.5854                 2.1825
 Frc consts  --      0.4422                 0.2553                 0.2372
 IR Inten    --      1.4353                 3.5987                 9.0701

                     22                     23                     24
                      A                      A                      A
 Frequencies --    447.8676               458.7157               515.7142
 Red. masses --      2.0910                 4.8906                 3.5259
 Frc consts  --      0.2471                 0.6063                 0.5525
 IR Inten    --      4.3184                 0.1495                 9.3640

                     25                     26                     27
                      A                      A                      A
 Frequencies --    587.8748               597.9390               603.1468
 Red. masses --      6.2213                 3.6682                 3.3233
 Frc consts  --      1.2668                 0.7727                 0.7123
 IR Inten    --      5.3453                 4.8296                 8.7356

                     28                     29                     30
                      A                      A                      A
 Frequencies --    615.7322               659.2142               676.3980
 Red. masses --      3.4419                 4.7984                 4.2703
 Frc consts  --      0.7688                 1.2286                 1.1511
 IR Inten    --      9.9285                 1.6157                 7.3057

                     31                     32                     33
                      A                      A                      A
 Frequencies --    687.7826               697.9867               735.5793
 Red. masses --      6.1308                 1.2481                 1.4057
 Frc consts  --      1.7087                 0.3583                 0.4481
 IR Inten    --      2.6883                 7.4191                27.9114

                     34                     35                     36
                      A                      A                      A
 Frequencies --    762.3780               808.7974               822.9100
 Red. masses --      3.4669                 1.1796                 1.9611
 Frc consts  --      1.1872                 0.4546                 0.7825
 IR Inten    --     30.1820                52.0054                24.0738

                     37                     38                     39
                      A                      A                      A
 Frequencies --    834.7504               840.3306               848.1067
 Red. masses --      1.9665                 4.9031                 2.8844
 Frc consts  --      0.8073                 2.0400                 1.2224
 IR Inten    --     15.1297                10.6866                 6.0890

                     40                     41                     42
                      A                      A                      A
 Frequencies --    876.1032               881.8683               887.6191
 Red. masses --      1.3282                 4.2792                 1.2666
 Frc consts  --      0.6007                 1.9607                 0.5880
 IR Inten    --      6.9837                 6.2106                 2.2344

                     43                     44                     45
                      A                      A                      A
 Frequencies --    903.4707               911.6295               921.2735
 Red. masses --      2.5222                 3.2785                 2.2940
 Frc consts  --      1.2130                 1.6053                 1.1471
 IR Inten    --      6.6690                 0.5727                 1.9938

                     46                     47                     48
                      A                      A                      A
 Frequencies --    946.5814               963.6036               964.6826
 Red. masses --      1.1845                 3.4017                 2.4437
 Frc consts  --      0.6253                 1.8610                 1.3399
 IR Inten    --      3.6936                11.3257                17.2122

                     49                     50                     51
                      A                      A                      A
 Frequencies --    973.6265               982.3776               984.0866
 Red. masses --      2.5385                 1.6543                 1.8378
 Frc consts  --      1.4178                 0.9407                 1.0486
 IR Inten    --      4.2480                11.8428                 4.1625

                     52                     53                     54
                      A                      A                      A
 Frequencies --   1037.9678              1064.5837              1118.6048
 Red. masses --      1.4154                 2.1817                 1.5810
 Frc consts  --      0.8985                 1.4568                 1.1655
 IR Inten    --     21.0779                 7.7766                 1.2427

                     55                     56                     57
                      A                      A                      A
 Frequencies --   1119.0406              1137.9074              1155.9300
 Red. masses --      1.5684                 1.7768                 1.9841
 Frc consts  --      1.1572                 1.3555                 1.5620
 IR Inten    --     15.7301                 6.1667                11.6130

                     58                     59                     60
                      A                      A                      A
 Frequencies --   1177.8171              1185.6099              1199.9212
 Red. masses --      2.0123                 1.9321                 1.8366
 Frc consts  --      1.6448                 1.6002                 1.5580
 IR Inten    --      9.7813                12.5546                10.6982

                     61                     62                     63
                      A                      A                      A
 Frequencies --   1209.4167              1238.5907              1247.6093
 Red. masses --      1.7746                 2.0622                 1.4236
 Frc consts  --      1.5293                 1.8639                 1.3056
 IR Inten    --     23.6657               117.3992                 6.6259

                     64                     65                     66
                      A                      A                      A
 Frequencies --   1261.1455              1280.2620              1283.0970
 Red. masses --      2.1376                 1.4477                 1.8492
 Frc consts  --      2.0031                 1.3980                 1.7937
 IR Inten    --     11.1793                 2.7084                 5.5460

                     67                     68                     69
                      A                      A                      A
 Frequencies --   1329.3329              1347.4383              1372.1654
 Red. masses --      1.3762                 1.6044                 1.5836
 Frc consts  --      1.4328                 1.7162                 1.7567
 IR Inten    --      0.6226                31.7296                31.1922

                     70                     71                     72
                      A                      A                      A
 Frequencies --   1384.8295              1399.6950              1404.4434
 Red. masses --      1.4199                 1.3703                 1.4866
 Frc consts  --      1.6043                 1.5818                 1.7276
 IR Inten    --      1.7268                23.9152                 6.0332

                     73                     74                     75
                      A                      A                      A
 Frequencies --   1429.1948              1435.9977              1442.0003
 Red. masses --      1.2839                 2.3357                 2.3928
 Frc consts  --      1.5452                 2.8378                 2.9315
 IR Inten    --      4.9613                50.8937                 6.7164

                     76                     77                     78
                      A                      A                      A
 Frequencies --   1447.4967              1464.0570              1480.3782
 Red. masses --      1.2616                 1.8520                 2.7628
 Frc consts  --      1.5574                 2.3389                 3.5674
 IR Inten    --      3.9851                67.5144                13.1773

                     79                     80                     81
                      A                      A                      A
 Frequencies --   1486.9372              1491.8515              1519.4929
 Red. masses --      1.4532                 1.1267                 1.0573
 Frc consts  --      1.8930                 1.4775                 1.4383
 IR Inten    --     43.4623                 7.5255                 2.4106

                     82                     83                     84
                      A                      A                      A
 Frequencies --   1523.8647              1527.3169              1535.0382
 Red. masses --      1.0547                 1.1350                 1.0573
 Frc consts  --      1.4430                 1.5599                 1.4679
 IR Inten    --      4.6503                30.6471                 3.5600

                     85                     86                     87
                      A                      A                      A
 Frequencies --   1543.1826              1545.0715              1611.8246
 Red. masses --      4.6714                 1.0459                 5.2233
 Frc consts  --      6.5544                 1.4711                 7.9952
 IR Inten    --     10.7312                16.0351                 0.7026

                     88                     89                     90
                      A                      A                      A
 Frequencies --   1646.8116              1742.6451              3029.7681
 Red. masses --      6.2380                10.2385                 1.0665
 Frc consts  --      9.9675                18.3191                 5.7680
 IR Inten    --      0.6947               217.1706                12.0992

                     91                     92                     93
                      A                      A                      A
 Frequencies --   3035.8281              3044.0004              3050.6635
 Red. masses --      1.0379                 1.0395                 1.0607
 Frc consts  --      5.6358                 5.6751                 5.8163
 IR Inten    --     34.5781                14.6096                30.8680

                     94                     95                     96
                      A                      A                      A
 Frequencies --   3069.4334              3082.2782              3093.1752
 Red. masses --      1.0838                 1.1007                 1.0670
 Frc consts  --      6.0159                 6.1611                 6.0147
 IR Inten    --      1.9091                 9.6580                31.0582

                     97                     98                     99
                      A                      A                      A
 Frequencies --   3098.5331              3105.5449              3111.0416
 Red. masses --      1.1005                 1.0998                 1.1002
 Frc consts  --      6.2253                 6.2492                 6.2737
 IR Inten    --     19.6358                16.5371                38.0366

                    100                    101                    102
                      A                      A                      A
 Frequencies --   3116.2074              3132.0080              3163.9871
 Red. masses --      1.0938                 1.1002                 1.1003
 Frc consts  --      6.2580                 6.3587                 6.4897
 IR Inten    --     60.4868                25.0780                 1.5674

                    103                    104                    105
                      A                      A                      A
 Frequencies --   3209.8751              3267.4740              3271.1615
 Red. masses --      1.0909                 1.0911                 1.0964
 Frc consts  --      6.6225                 6.8635                 6.9122
 IR Inten    --      7.1264                 3.7387                 1.0997

                    106                    107                    108
                      A                      A                      A
 Frequencies --   3285.6949              3286.4129              3304.5616
 Red. masses --      1.0940                 1.0978                 1.1045
 Frc consts  --      6.9588                 6.9856                 7.1065
 IR Inten    --      8.1945                 0.0512                 1.0157

 - Thermochemistry -
 -------------------
 Temperature   298.150 Kelvin.  Pressure   1.00000 Atm.
 Atom     1 has atomic number  6 and mass  12.00000

 Molecular mass:   277.11365 amu.
 Principal axes and moments of inertia in atomic units:
                           1         2         3
     Eigenvalues --  4532.888345777.719787731.83214
           X            0.99966  -0.02330  -0.01186
           Y            0.02304   0.99950  -0.02171
           Z            0.01236   0.02143   0.99969
 This molecule is an asymmetric top.
 Rotational symmetry number  1.
 Warning -- assumption of classical behavior for rotation
           may cause significant error
 Rotational temperatures (Kelvin)      0.01911     0.01499     0.01120
 Rotational constants (GHZ):           0.39814     0.31236     0.23342
 Zero-point vibrational energy     832248.2 (Joules/Mol)
                                  198.91209 (Kcal/Mol)
 Warning -- explicit consideration of  28 degrees of freedom as
           vibrations may cause significant error
 Vibrational temperatures:     30.19    34.02    61.31    80.68   102.47
          (Kelvin)            112.91   119.37   151.93   190.31   239.08
                              314.30   325.12   338.04   350.82   388.38
                              408.64   458.37   515.55   552.03   589.03
                              617.98   644.38   659.99   742.00   845.82
                              860.30   867.79   885.90   948.46   973.19
                              989.57  1004.25  1058.33  1096.89  1163.68
                             1183.98  1201.02  1209.05  1220.24  1260.52
                             1268.81  1277.09  1299.89  1311.63  1325.51
                             1361.92  1386.41  1387.96  1400.83  1413.42
                             1415.88  1493.40  1531.70  1609.42  1610.05
                             1637.19  1663.13  1694.62  1705.83  1726.42
                             1740.08  1782.06  1795.03  1814.51  1842.01
                             1846.09  1912.61  1938.66  1974.24  1992.46
                             2013.85  2020.68  2056.29  2066.08  2074.72
                             2082.62  2106.45  2129.93  2139.37  2146.44
                             2186.21  2192.50  2197.47  2208.58  2220.30
                             2223.01  2319.06  2369.39  2507.28  4359.16
                             4367.88  4379.64  4389.22  4416.23  4434.71
                             4450.39  4458.10  4468.19  4476.10  4483.53
                             4506.26  4552.27  4618.29  4701.17  4706.47
                             4727.38  4728.42  4754.53

 Zero-point correction=                           0.316987 (Hartree/Particle)
 Thermal correction to Energy=                    0.335629
 Thermal correction to Enthalpy=                  0.336574
 Thermal correction to Gibbs Free Energy=         0.267824
 Sum of electronic and zero-point Energies=          -1186.168617
 Sum of electronic and thermal Energies=             -1186.149974
 Sum of electronic and thermal Enthalpies=           -1186.149030
 Sum of electronic and thermal Free Energies=        -1186.217780

                     E (Thermal)             CV                S
                      KCal/Mol        Cal/Mol-Kelvin    Cal/Mol-Kelvin
 Total                  210.611             70.449            144.696
 Electronic               0.000              0.000              0.000
 Translational            0.889              2.981             42.756
 Rotational               0.889              2.981             33.670
 Vibrational            208.833             64.487             68.270
 Vibration     1          0.593              1.986              6.539
 Vibration     2          0.593              1.985              6.302
 Vibration     3          0.595              1.980              5.134
 Vibration     4          0.596              1.975              4.591
 Vibration     5          0.598              1.968              4.119
 Vibration     6          0.600              1.964              3.929
 Vibration     7          0.600              1.961              3.819
 Vibration     8          0.605              1.945              3.348
 Vibration     9          0.612              1.921              2.913
 Vibration    10          0.624              1.884              2.478
 Vibration    11          0.646              1.813              1.972
 Vibration    12          0.650              1.801              1.911
 Vibration    13          0.655              1.787              1.841
 Vibration    14          0.659              1.773              1.775
 Vibration    15          0.674              1.729              1.597
 Vibration    16          0.682              1.703              1.509
 Vibration    17          0.705              1.638              1.317
 Vibration    18          0.733              1.558              1.129
 Vibration    19          0.753              1.505              1.025
 Vibration    20          0.774              1.450              0.929
 Vibration    21          0.791              1.406              0.860
 Vibration    22          0.807              1.366              0.802
 Vibration    23          0.817              1.342              0.770
 Vibration    24          0.871              1.215              0.620
 Vibration    25          0.945              1.058              0.471
 Vibration    26          0.956              1.036              0.453
 Vibration    27          0.962              1.025              0.444
 Vibration    28          0.975              0.999              0.423

 Optimization completed.
    -- Stationary point found.
 Normal termination of Gaussian 16 at Sat Dec 12 10:54:52 2020.

 ----------------------------------------------------------------------
 # B3LYP/6-311++G(d,p) empiricaldispersion=gd3bj scf=xqc pop=npa geom=c
 heck
 ----------------------------------------------------------------------

 --------------------------------------
 CID_49754055_JID_9930_Energie_neutraal
 --------------------------------------
 Structure from the checkpoint file:  "JID_9930.chk"
 Charge =  0 Multiplicity = 1

 SCF Done:  E(RB3LYP) =  -1186.72792587     A.U. after   16 cycles
 Normal termination of Gaussian 16 at Sat Dec 12 11:04:51 2020.

 ----------------------------------------------------------------------
 # B3LYP/6-311++G(d,p) empiricaldispersion=gd3bj scf=xqc pop=npa geom=c
 heck
 ----------------------------------------------------------------------

 ------------------------------------
 CID_49754055_JID_9930_Energie_kation
 ------------------------------------
 Structure from the checkpoint file:  "JID_9930.chk"
 Charge =  1 Multiplicity = 2

 SCF Done:  E(UB3LYP) =  -1186.43578693     A.U. after   30 cycles
 Normal termination of Gaussian 16 at Sat Dec 12 11:31:11 2020.
 Gaussian 16:  ES64L-G16RevA.03 25-Dec-2016

 ----------------------------------------------------------------------
 # B3LYP/6-311++G(d,p) empiricaldispersion=gd3bj scf=xqc pop=npa geom=c
 heck
 ----------------------------------------------------------------------

 -----------------------------------
 CID_49754055_JID_9930_Energie_anion
 -----------------------------------
 Structure from the checkpoint file:  "JID_9930.chk"
 Charge = -1 Multiplicity = 2

                         Standard orientation:
 ---------------------------------------------------------------------
 Center     Atomic      Atomic             Coordinates (Angstroms)
 Number     Number       Type             X           Y           Z
 ---------------------------------------------------------------------
      1          6           0       -2.541937   -0.163131    1.885885
      2          6           0       -3.346652   -0.534189    0.633836
      3          6           0       -4.616168    0.316453    0.521929
      4          6           0       -2.493279   -0.378884   -0.634037
      5          6           0       -1.330632   -1.366247   -0.675768
      6          8           0       -1.384957   -2.444426   -0.086710
      7          7           0       -0.229199   -1.029582   -1.429733
      8          6           0       -0.018964    0.294391   -2.002587
      9          6           0        0.357768    1.378435   -1.015676
     10          6           0        0.589748    1.189767    0.319503
     11         16           0        0.998136    2.669663    1.124437
     12          6           0        0.849005    3.565818   -0.355163
     13          6           0        0.505826    2.753486   -1.398394
     14          6           0        0.896982   -1.977124   -1.410493
     15          6           0        1.804532   -1.789386   -0.242538
     16          6           0        1.747099   -2.198263    1.058556
     17          6           0        2.839227   -1.559255    1.735406
     18          6           0        3.479702   -0.807618    0.797054
     19          8           0        2.865990   -0.937467   -0.414429
     20          1           0       -2.190708    0.875439    1.832795
     21          1           0       -1.670770   -0.815388    1.997449
     22          1           0       -3.156331   -0.264500    2.787823
     23          1           0       -3.628995   -1.590161    0.710736
     24          1           0       -4.369127    1.382419    0.432319
     25          1           0       -5.212641    0.036494   -0.354793
     26          1           0       -5.246882    0.196650    1.410120
     27          1           0       -3.110905   -0.564894   -1.525155
     28          1           0       -2.139681    0.653674   -0.704964
     29          1           0        0.772412    0.195968   -2.754256
     30          1           0       -0.917230    0.596707   -2.553616
     31          1           0        0.565294    0.262681    0.872968
     32          1           0        1.018066    4.633902   -0.366394
     33          1           0        0.359615    3.113789   -2.411797
     34          1           0        0.468936   -2.978959   -1.378108
     35          1           0        1.458343   -1.857282   -2.341362
     36          1           0        0.997041   -2.855950    1.472939
     37          1           0        3.109683   -1.653127    2.777753
     38          1           0        4.346292   -0.165371    0.816716
 ---------------------------------------------------------------------

 SCF Done:  E(UB3LYP) =  -1186.71461974     A.U. after   33 cycles
 SCF Done:  E(UB3LYP) =  -1186.71461974     a.u. after    1 cycles

 The electronic state is 2-A.
 Alpha  occ. eigenvalues --  -88.78579 -19.10734 -18.99933 -14.25763 -10.18298
 Alpha  occ. eigenvalues --  -10.14320 -10.14115 -10.13021 -10.12793 -10.10836
 Alpha  occ. eigenvalues --  -10.10320 -10.09500 -10.09329 -10.08857 -10.08513
 Alpha  occ. eigenvalues --  -10.08482 -10.08351 -10.07079 -10.06517  -7.87185
 Alpha  occ. eigenvalues --   -5.83467  -5.83100  -5.82796  -1.03080  -0.95242
 Alpha  occ. eigenvalues --   -0.85373  -0.79081  -0.72489  -0.72090  -0.70053
 Alpha  occ. eigenvalues --   -0.67222  -0.63825  -0.63429  -0.60416  -0.59537
 Alpha  occ. eigenvalues --   -0.58643  -0.52236  -0.49739  -0.48380  -0.47415
 Alpha  occ. eigenvalues --   -0.46276  -0.45234  -0.43918  -0.42478  -0.40957
 Alpha  occ. eigenvalues --   -0.39048  -0.37980  -0.37616  -0.36284  -0.34888
 Alpha  occ. eigenvalues --   -0.34153  -0.33867  -0.33246  -0.32566  -0.32239
 Alpha  occ. eigenvalues --   -0.31418  -0.31252  -0.30078  -0.29853  -0.29384
 Alpha  occ. eigenvalues --   -0.28916  -0.28692  -0.27812  -0.27247  -0.25624
 Alpha  occ. eigenvalues --   -0.24883  -0.24228  -0.23635  -0.20390  -0.17724
 Alpha  occ. eigenvalues --   -0.16347  -0.16094  -0.14870  -0.14467   0.04129
 Alpha virt. eigenvalues --    0.05898   0.06287   0.06543   0.06903   0.07377
 Alpha virt. eigenvalues --    0.07797   0.07959   0.08221   0.09146   0.09311
 Alpha virt. eigenvalues --    0.09526   0.10099   0.10347   0.10721   0.11451

  Beta  occ. eigenvalues --  -88.78576 -19.10730 -18.99929 -14.25764 -10.18296
  Beta  occ. eigenvalues --  -10.14319 -10.14107 -10.13008 -10.12762 -10.10824
  Beta  occ. eigenvalues --  -10.10312 -10.09500 -10.09323 -10.08852 -10.08511
  Beta  occ. eigenvalues --  -10.08459 -10.08333 -10.07060 -10.06507  -7.87183
  Beta  occ. eigenvalues --   -5.83464  -5.83097  -5.82795  -1.03074  -0.95235
  Beta  occ. eigenvalues --   -0.85363  -0.79065  -0.72475  -0.72078  -0.70035
  Beta  occ. eigenvalues --   -0.67201  -0.63796  -0.63406  -0.60383  -0.59509
  Beta  occ. eigenvalues --   -0.58609  -0.52223  -0.49718  -0.48354  -0.47393
  Beta  occ. eigenvalues --   -0.46247  -0.45201  -0.43885  -0.42448  -0.40931
  Beta  occ. eigenvalues --   -0.39007  -0.37943  -0.37595  -0.36267  -0.34868
  Beta  occ. eigenvalues --   -0.34129  -0.33848  -0.33226  -0.32544  -0.32216
  Beta  occ. eigenvalues --   -0.31398  -0.31234  -0.30060  -0.29834  -0.29356
  Beta  occ. eigenvalues --   -0.28899  -0.28674  -0.27792  -0.27227  -0.25604
  Beta  occ. eigenvalues --   -0.24865  -0.24209  -0.23616  -0.20383  -0.17717
  Beta  occ. eigenvalues --   -0.16331  -0.16081  -0.14858  -0.14457
  Beta virt. eigenvalues --    0.05994   0.06494   0.06872   0.07042   0.07219
  Beta virt. eigenvalues --    0.07472   0.08121   0.08413   0.08637   0.09259
  Beta virt. eigenvalues --    0.09591   0.09797   0.10266   0.10645   0.10823

 Mulliken charges and spin densities:
               1          2
     1  C   -0.394436  -0.199887
     2  C   -0.808311   0.868883
     3  C    0.425218  -1.048915
     4  C    1.631560  -1.440813
     5  C   -1.672557   1.098562
     6  O   -0.249765  -0.004668
     7  N    0.148990   0.236389
     8  C    3.281407  -4.443118
     9  C   -1.592510   0.665908
    10  C   -0.872214   2.097042
    11  S    0.358884  -0.611364
    12  C    0.917301  -1.496236
    13  C   -0.345198   0.925044
    14  C    0.371387  -1.205100
    15  C   -0.837190   0.469070
    16  C    0.244676   0.348379
    17  C   -0.083539  -0.481787
    18  C    0.300784  -0.134678
    19  O    0.126079   0.016013
    20  H    0.006426   0.117950
    21  H    0.179060  -0.022553
    22  H    0.011514   0.137045
    23  H    0.153429   0.027561
    24  H   -0.104116   0.250303
    25  H   -0.092096   0.220503
    26  H    0.011926   0.119736
    27  H   -0.116257   0.334295
    28  H    0.761651  -0.654096
    29  H   -0.055684   0.241445
    30  H   -0.527833   0.771655
    31  H    0.189478  -0.016432
    32  H   -0.548196   0.804105
    33  H   -1.313280   1.520463
    34  H    0.159221   0.061554
    35  H   -0.349244   0.543533
    36  H    0.092896   0.131981
    37  H   -0.176010   0.338862
    38  H   -0.233451   0.413366
 Sum of Mulliken charges =  -1.00000   1.00000

 Dipole moment (field-independent basis, Debye):
    X=              1.2730    Y=             -3.9467    Z=              5.4500  Tot=              6.8483
 Quadrupole moment (field-independent basis, Debye-Ang):
   XX=           -181.8056   YY=           -184.3912   ZZ=           -176.5637
   XY=             -1.2968   XZ=             -1.2860   YZ=             13.5757

 Summary of Natural Population Analysis:

                                       Natural Population
                Natural  -----------------------------------------------
    Atom  No    Charge         Core      Valence    Rydberg      Total
 -----------------------------------------------------------------------
      C    1   -0.28643      0.99965     2.28191    0.00487     3.28643
      C    2   -0.11432      0.99962     2.10480    0.00989     3.11432
      C    3   -0.28156      0.99965     2.27740    0.00450     3.28156
      C    4   -0.23469      0.99956     2.22592    0.00920     3.23469
      C    5    0.35670      0.99963     1.62062    0.02305     2.64330
      O    6   -0.33198      0.99988     3.32717    0.00493     4.33198
      N    7   -0.25521      0.99965     2.74132    0.01424     3.75521
      C    8   -0.09017      0.99955     2.07671    0.01391     3.09017
      C    9   -0.05467      0.99945     2.04125    0.01397     3.05467
      C   10   -0.19736      0.99944     2.18553    0.01239     3.19736
      S   11    0.20336      4.99944     2.77631    0.02088     7.79664
      C   12   -0.18746      0.99954     2.17657    0.01136     3.18746
      C   13   -0.12034      0.99947     2.10836    0.01251     3.12034
      C   14   -0.10969      0.99954     2.09739    0.01275     3.10969
      C   15    0.14213      0.99946     1.84317    0.01524     2.85787
      C   16   -0.14667      0.99948     2.13928    0.00791     3.14667
      C   17   -0.15300      0.99957     2.14511    0.00832     3.15300
      C   18    0.06060      0.99951     1.92558    0.01431     2.93940
      O   19   -0.23329      0.99986     3.22490    0.00853     4.23329
      H   20    0.09819      0.00000     0.40070    0.00112     0.40181
      H   21    0.10403      0.00000     0.39485    0.00112     0.39597
      H   22    0.09619      0.00000     0.40306    0.00075     0.40381
      H   23    0.10141      0.00000     0.39682    0.00177     0.39859
      H   24    0.09767      0.00000     0.40128    0.00105     0.40233
      H   25    0.09865      0.00000     0.40038    0.00097     0.40135
      H   26    0.09693      0.00000     0.40225    0.00082     0.40307
      H   27    0.11378      0.00000     0.38498    0.00124     0.38622
      H   28    0.10970      0.00000     0.38813    0.00218     0.39030
      H   29    0.11060      0.00000     0.38747    0.00192     0.38940
      H   30    0.11078      0.00000     0.38690    0.00232     0.38922
      H   31    0.11764      0.00000     0.37961    0.00275     0.38236
      H   32    0.11160      0.00000     0.38704    0.00136     0.38840
      H   33    0.11329      0.00000     0.38283    0.00388     0.38671
      H   34    0.12095      0.00000     0.37800    0.00105     0.37905
      H   35    0.10772      0.00000     0.39097    0.00131     0.39228
      H   36    0.11815      0.00000     0.38103    0.00082     0.38185
      H   37    0.10890      0.00000     0.39029    0.00081     0.39110
      H   38    0.09785      0.00000     0.40102    0.00113     0.40215
 =======================================================================
   * Total *   -0.00000     22.99195    50.75689    0.25116    74.00000

 Normal termination of Gaussian 16 at Sat Dec 12 11:59:39 2020.
