 Gaussian 16, Revision A.03,

 -----------------------------------------------------------
 # opt freq B3LYP/6-31G(d) empiricaldispersion=gd3bj scf=xqc
 -----------------------------------------------------------

 -------------------------------
 CID_138388693_JID_5691_neutraal
 -------------------------------
 Symbolic Z-matrix:
 Charge =  0 Multiplicity = 1

 SCF Done:  E(RB3LYP) =  -722.137006009     A.U. after   14 cycles
 SCF Done:  E(RB3LYP) =  -722.149868971     A.U. after   13 cycles
 SCF Done:  E(RB3LYP) =  -722.151063116     A.U. after   12 cycles
 SCF Done:  E(RB3LYP) =  -722.151109835     A.U. after   12 cycles
 SCF Done:  E(RB3LYP) =  -722.151577620     A.U. after   12 cycles
 SCF Done:  E(RB3LYP) =  -722.151835631     A.U. after   12 cycles
 SCF Done:  E(RB3LYP) =  -722.151848445     A.U. after   12 cycles
 SCF Done:  E(RB3LYP) =  -722.152085231     A.U. after   12 cycles
 SCF Done:  E(RB3LYP) =  -722.152120673     A.U. after   12 cycles
 SCF Done:  E(RB3LYP) =  -722.152143746     A.U. after   11 cycles
 SCF Done:  E(RB3LYP) =  -722.152152106     A.U. after    8 cycles
 SCF Done:  E(RB3LYP) =  -722.152153239     A.U. after    8 cycles
 SCF Done:  E(RB3LYP) =  -722.152154375     A.U. after    8 cycles
 SCF Done:  E(RB3LYP) =  -722.152154600     A.U. after    8 cycles
 SCF Done:  E(RB3LYP) =  -722.152154697     A.U. after    8 cycles
 SCF Done:  E(RB3LYP) =  -722.152154723     A.U. after    7 cycles
 Optimization completed.
    -- Stationary point found.
 Normal termination of Gaussian 16 at Thu Dec 10 16:44:31 2020.

 --------------------------------------------------------------------
 #N Geom=AllCheck Guess=TCheck SCRF=Check GenChk RB3LYP/6-31G(d) Freq
 --------------------------------------------------------------------

 Structure from the checkpoint file:  "JID_5691.chk"
 -------------------------------
 CID_138388693_JID_5691_neutraal
 -------------------------------
 Charge =  0 Multiplicity = 1

 SCF Done:  E(RB3LYP) =  -722.152154723     A.U. after    1 cycles

  Exact polarizability: 140.934  -1.710 129.350  -4.404   4.034  93.287
 Approx polarizability: 178.051  -2.900 198.188  -8.439   7.869 153.076

                      1                      2                      3
                      A                      A                      A
 Frequencies --     35.3993                47.1354                56.1840
 Red. masses --      3.7050                 3.5818                 4.4572
 Frc consts  --      0.0027                 0.0047                 0.0083
 IR Inten    --      0.7762                 0.6010                12.3082

                      4                      5                      6
                      A                      A                      A
 Frequencies --     72.9857                89.2669               110.3367
 Red. masses --      3.7664                 5.1107                 4.0450
 Frc consts  --      0.0118                 0.0240                 0.0290
 IR Inten    --      0.1072                 0.7999                 2.0280

                      7                      8                      9
                      A                      A                      A
 Frequencies --    130.5476               163.0834               200.7098
 Red. masses --      8.4404                 4.9685                 1.2857
 Frc consts  --      0.0848                 0.0779                 0.0305
 IR Inten    --      2.2887                 7.5996               215.4467

                     10                     11                     12
                      A                      A                      A
 Frequencies --    222.4441               230.4147               242.4074
 Red. masses --      1.4373                 1.8477                 1.4415
 Frc consts  --      0.0419                 0.0578                 0.0499
 IR Inten    --      0.4387                 0.6044                 2.2463

                     13                     14                     15
                      A                      A                      A
 Frequencies --    254.5059               292.6344               303.5088
 Red. masses --      2.9667                 3.6236                 2.2311
 Frc consts  --      0.1132                 0.1828                 0.1211
 IR Inten    --      3.9731                 6.2145                 2.0925

                     16                     17                     18
                      A                      A                      A
 Frequencies --    356.9100               387.3237               425.9664
 Red. masses --      3.2033                 2.7259                 1.8818
 Frc consts  --      0.2404                 0.2409                 0.2012
 IR Inten    --     12.2770                11.4392                 0.8507

                     19                     20                     21
                      A                      A                      A
 Frequencies --    451.5103               457.6293               469.6051
 Red. masses --      3.3109                 3.0832                 1.0991
 Frc consts  --      0.3977                 0.3804                 0.1428
 IR Inten    --     11.4927                 0.2576               112.2865

                     22                     23                     24
                      A                      A                      A
 Frequencies --    504.8224               590.0914               616.4456
 Red. masses --      1.5026                 3.6168                 3.7176
 Frc consts  --      0.2256                 0.7420                 0.8323
 IR Inten    --      2.7425                15.5305                16.6586

                     25                     26                     27
                      A                      A                      A
 Frequencies --    628.4763               645.9152               671.2340
 Red. masses --      3.1628                 2.6945                 2.5615
 Frc consts  --      0.7360                 0.6623                 0.6800
 IR Inten    --      7.0634                12.6138                11.3046

                     28                     29                     30
                      A                      A                      A
 Frequencies --    702.6717               744.7504               820.9837
 Red. masses --      5.1444                10.2898                 3.0315
 Frc consts  --      1.4966                 3.3626                 1.2039
 IR Inten    --      2.6753                14.0690                 3.6249

                     31                     32                     33
                      A                      A                      A
 Frequencies --    832.2789               854.0112               871.9065
 Red. masses --      2.8238                 1.3160                 3.0653
 Frc consts  --      1.1524                 0.5655                 1.3730
 IR Inten    --      3.0683                75.9901                 6.0392

                     34                     35                     36
                      A                      A                      A
 Frequencies --    907.9979               941.0305               951.4275
 Red. masses --      1.5459                 1.2790                 2.7640
 Frc consts  --      0.7510                 0.6673                 1.4742
 IR Inten    --     12.9211                 3.2114                10.3296

                     37                     38                     39
                      A                      A                      A
 Frequencies --    961.9859               983.9331               995.9738
 Red. masses --      1.9510                 1.4796                 2.3401
 Frc consts  --      1.0638                 0.8439                 1.3677
 IR Inten    --     19.3871                 0.3840                 1.7049

                     40                     41                     42
                      A                      A                      A
 Frequencies --   1077.8821              1106.0673              1120.3533
 Red. masses --      2.5377                 1.9930                 1.7546
 Frc consts  --      1.7371                 1.4365                 1.2976
 IR Inten    --      5.7465                 9.4945                 8.3022

                     43                     44                     45
                      A                      A                      A
 Frequencies --   1135.5960              1161.8732              1188.8942
 Red. masses --      2.4315                 2.2280                 2.5486
 Frc consts  --      1.8475                 1.7721                 2.1225
 IR Inten    --     67.1788                11.9940               118.3206

                     46                     47                     48
                      A                      A                      A
 Frequencies --   1212.1677              1230.1906              1237.7236
 Red. masses --      1.7973                 1.4500                 1.4147
 Frc consts  --      1.5559                 1.2929                 1.2769
 IR Inten    --      3.6034                29.3050                44.8041

                     49                     50                     51
                      A                      A                      A
 Frequencies --   1260.0544              1293.4224              1352.7110
 Red. masses --      1.6571                 1.9023                 1.5172
 Frc consts  --      1.5502                 1.8750                 1.6357
 IR Inten    --      1.4438               163.3464                15.4997

                     52                     53                     54
                      A                      A                      A
 Frequencies --   1355.6371              1365.0564              1378.4088
 Red. masses --      1.5286                 1.8884                 1.8928
 Frc consts  --      1.6551                 2.0733                 2.1189
 IR Inten    --     39.6715                15.8584                26.7722

                     55                     56                     57
                      A                      A                      A
 Frequencies --   1393.7085              1411.6059              1426.7833
 Red. masses --      1.5611                 2.2865                 1.4699
 Frc consts  --      1.7866                 2.6845                 1.7631
 IR Inten    --     68.8251                97.6516                 4.7303

                     58                     59                     60
                      A                      A                      A
 Frequencies --   1429.8826              1436.7573              1450.4156
 Red. masses --      1.2833                 1.8351                 1.3439
 Frc consts  --      1.5459                 2.2319                 1.6658
 IR Inten    --      5.9450                60.9038                53.6177

                     61                     62                     63
                      A                      A                      A
 Frequencies --   1470.0871              1484.5579              1502.2759
 Red. masses --      1.9970                 1.1011                 1.1394
 Frc consts  --      2.5428                 1.4297                 1.5150
 IR Inten    --    137.2316                11.1784                37.3779

                     64                     65                     66
                      A                      A                      A
 Frequencies --   1516.8559              1523.8159              1533.7709
 Red. masses --      1.0524                 1.0496                 1.0570
 Frc consts  --      1.4267                 1.4359                 1.4651
 IR Inten    --      7.0307                 3.8328                 4.9338

                     67                     68                     69
                      A                      A                      A
 Frequencies --   1540.2754              1646.1640              1775.4909
 Red. masses --      1.0504                 1.2552                 8.2517
 Frc consts  --      1.4683                 2.0040                15.3261
 IR Inten    --     11.5388               112.7120               391.3409

                     70                     71                     72
                      A                      A                      A
 Frequencies --   1795.7702              1853.9729              3040.0004
 Red. masses --      8.7371                10.6041                 1.0380
 Frc consts  --     16.6005                21.4749                 5.6520
 IR Inten    --    223.4937               398.7842                22.5048

                     73                     74                     75
                      A                      A                      A
 Frequencies --   3045.2465              3050.0887              3052.2374
 Red. masses --      1.0795                 1.0364                 1.0794
 Frc consts  --      5.8981                 5.6806                 5.9249
 IR Inten    --     14.8964                23.3614                 4.4692

                     76                     77                     78
                      A                      A                      A
 Frequencies --   3059.6899              3073.7234              3105.0409
 Red. masses --      1.0632                 1.0594                 1.1015
 Frc consts  --      5.8643                 5.8972                 6.2568
 IR Inten    --     11.8505                22.2849                19.9235

                     79                     80                     81
                      A                      A                      A
 Frequencies --   3105.6454              3113.8386              3116.9849
 Red. masses --      1.1026                 1.1027                 1.1020
 Frc consts  --      6.2656                 6.2997                 6.3084
 IR Inten    --      7.0944                13.4066                58.1443

                     82                     83                     84
                      A                      A                      A
 Frequencies --   3126.3055              3129.3737              3449.3490
 Red. masses --      1.1020                 1.1053                 1.0753
 Frc consts  --      6.3461                 6.3774                 7.5383
 IR Inten    --     25.0285                22.9691                 4.0069

                     85                     86                     87
                      A                      A                      A
 Frequencies --   3591.2830              3653.3293              3717.9838
 Red. masses --      1.0451                 1.0795                 1.1051
 Frc consts  --      7.9416                 8.4888                 9.0008
 IR Inten    --     44.6264                50.4362                33.2887

 - Thermochemistry -
 -------------------
 Temperature   298.150 Kelvin.  Pressure   1.00000 Atm.
 Atom     1 has atomic number  6 and mass  12.00000

 Molecular mass:   212.12733 amu.
 Principal axes and moments of inertia in atomic units:
                           1         2         3
     Eigenvalues --  2676.944583188.749495150.94515
           X            0.99051  -0.13739   0.00242
           Y            0.13737   0.99049   0.00711
           Z           -0.00338  -0.00671   0.99997
 This molecule is an asymmetric top.
 Rotational symmetry number  1.
 Warning -- assumption of classical behavior for rotation
           may cause significant error
 Rotational temperatures (Kelvin)      0.03236     0.02716     0.01682
 Rotational constants (GHZ):           0.67418     0.56597     0.35037
 Zero-point vibrational energy     689795.4 (Joules/Mol)
                                  164.86507 (Kcal/Mol)
 Warning -- explicit consideration of  24 degrees of freedom as
           vibrations may cause significant error
 Vibrational temperatures:     50.93    67.82    80.84   105.01   128.44
          (Kelvin)            158.75   187.83   234.64   288.78   320.05
                              331.52   348.77   366.18   421.04   436.68
                              513.51   557.27   612.87   649.62   658.43
                              675.66   726.33   849.01   886.93   904.24
                              929.33   965.76  1010.99  1071.53  1181.21
                             1197.46  1228.73  1254.48  1306.41  1353.93
                             1368.89  1384.08  1415.66  1432.98  1550.83
                             1591.38  1611.94  1633.87  1671.68  1710.55
                             1744.04  1769.97  1780.81  1812.94  1860.95
                             1946.25  1950.46  1964.01  1983.22  2005.24
                             2030.99  2052.82  2057.28  2067.17  2086.82
                             2115.13  2135.95  2161.44  2182.42  2192.43
                             2206.75  2216.11  2368.46  2554.54  2583.71
                             2667.45  4373.88  4381.43  4388.40  4391.49
                             4402.21  4422.40  4467.46  4468.33  4480.12
                             4484.65  4498.06  4502.47  4962.84  5167.06
                             5256.33  5349.35

 Zero-point correction=                           0.262729 (Hartree/Particle)
 Thermal correction to Energy=                    0.278796
 Thermal correction to Enthalpy=                  0.279740
 Thermal correction to Gibbs Free Energy=         0.218654
 Sum of electronic and zero-point Energies=           -721.889426
 Sum of electronic and thermal Energies=              -721.873359
 Sum of electronic and thermal Enthalpies=            -721.872415
 Sum of electronic and thermal Free Energies=         -721.933500

                     E (Thermal)             CV                S
                      KCal/Mol        Cal/Mol-Kelvin    Cal/Mol-Kelvin
 Total                  174.947             59.039            128.566
 Electronic               0.000              0.000              0.000
 Translational            0.889              2.981             41.960
 Rotational               0.889              2.981             32.153
 Vibrational            173.170             53.077             54.453
 Vibration     1          0.594              1.982              5.501
 Vibration     2          0.595              1.979              4.934
 Vibration     3          0.596              1.975              4.587
 Vibration     4          0.599              1.967              4.071
 Vibration     5          0.602              1.957              3.676
 Vibration     6          0.606              1.941              3.263
 Vibration     7          0.612              1.923              2.938
 Vibration     8          0.623              1.888              2.514
 Vibration     9          0.638              1.839              2.127
 Vibration    10          0.648              1.807              1.939
 Vibration    11          0.652              1.795              1.876
 Vibration    12          0.659              1.775              1.785
 Vibration    13          0.665              1.755              1.699
 Vibration    14          0.688              1.687              1.459
 Vibration    15          0.695              1.667              1.397
 Vibration    16          0.732              1.561              1.136
 Vibration    17          0.756              1.497              1.010
 Vibration    18          0.788              1.414              0.872
 Vibration    19          0.810              1.358              0.791
 Vibration    20          0.816              1.344              0.773
 Vibration    21          0.827              1.317              0.739
 Vibration    22          0.860              1.239              0.646
 Vibration    23          0.947              1.053              0.467
 Vibration    24          0.976              0.997              0.422

                           ! Non-Optimized Parameters !
 Normal termination of Gaussian 16 at Thu Dec 10 16:55:48 2020.

 ----------------------------------------------------------------------
 # B3LYP/6-311++G(d,p) empiricaldispersion=gd3bj scf=xqc pop=npa geom=c
 heck
 ----------------------------------------------------------------------

 ---------------------------------------
 CID_138388693_JID_5691_Energie_neutraal
 ---------------------------------------
 Structure from the checkpoint file:  "JID_5691.chk"
 Charge =  0 Multiplicity = 1

 SCF Done:  E(RB3LYP) =  -722.374351678     A.U. after   15 cycles
 Normal termination of Gaussian 16 at Thu Dec 10 17:00:09 2020.

 ----------------------------------------------------------------------
 # B3LYP/6-311++G(d,p) empiricaldispersion=gd3bj scf=xqc pop=npa geom=c
 heck
 ----------------------------------------------------------------------

 -------------------------------------
 CID_138388693_JID_5691_Energie_kation
 -------------------------------------
 Structure from the checkpoint file:  "JID_5691.chk"
 Charge =  1 Multiplicity = 2

 SCF Done:  E(UB3LYP) =  -722.059704409     A.U. after   24 cycles
 Normal termination of Gaussian 16 at Thu Dec 10 17:11:02 2020.
 Gaussian 16:  ES64L-G16RevA.03 25-Dec-2016

 ----------------------------------------------------------------------
 # B3LYP/6-311++G(d,p) empiricaldispersion=gd3bj scf=xqc pop=npa geom=c
 heck
 ----------------------------------------------------------------------

 ------------------------------------
 CID_138388693_JID_5691_Energie_anion
 ------------------------------------
 Structure from the checkpoint file:  "JID_5691.chk"
 Charge = -1 Multiplicity = 2

                         Standard orientation:
 ---------------------------------------------------------------------
 Center     Atomic      Atomic             Coordinates (Angstroms)
 Number     Number       Type             X           Y           Z
 ---------------------------------------------------------------------
      1          6           0        1.586255   -2.110806    1.321788
      2          6           0        1.909138   -1.093061    0.223878
      3          6           0        3.250157   -1.393779   -0.453900
      4          6           0        0.804379   -1.045346   -0.844814
      5          7           0       -0.501338   -0.644392   -0.335018
      6          6           0       -1.012771    0.723327   -0.389047
      7          6           0       -2.476931    0.550205    0.009152
      8          7           0       -3.254102    1.535808    0.226493
      9          7           0       -2.682253   -0.814578    0.068858
     10          6           0       -1.502822   -1.559224   -0.135296
     11          8           0       -1.427602   -2.773555   -0.129992
     12          6           0       -0.302921    1.723709    0.520587
     13          6           0        1.012261    2.219154   -0.071441
     14          8           0        1.280352    2.138482   -1.263405
     15          7           0        1.870985    2.774241    0.832195
     16          1           0        1.492326   -3.119670    0.903975
     17          1           0        0.639518   -1.874856    1.817757
     18          1           0        2.375518   -2.126486    2.082433
     19          1           0        1.982867   -0.099289    0.685189
     20          1           0        3.224695   -2.369531   -0.955781
     21          1           0        3.493237   -0.632953   -1.204615
     22          1           0        4.063737   -1.419446    0.279433
     23          1           0        1.082962   -0.343805   -1.636439
     24          1           0        0.684529   -2.041469   -1.283682
     25          1           0       -0.955139    1.105775   -1.416579
     26          1           0       -4.197890    1.227722    0.475589
     27          1           0       -3.542814   -1.271714    0.332647
     28          1           0       -0.975358    2.582838    0.639434
     29          1           0       -0.150971    1.287712    1.514437
     30          1           0        1.614117    2.922589    1.796374
     31          1           0        2.713162    3.210538    0.483857
 ---------------------------------------------------------------------

 SCF Done:  E(UB3LYP) =  -722.369233919     A.U. after   31 cycles

 The electronic state is 2-A.
 Alpha  occ. eigenvalues --  -19.00491 -18.99940 -14.26494 -14.25244 -14.23482
 Alpha  occ. eigenvalues --  -14.19719 -10.21255 -10.18534 -10.16866 -10.13545
 Alpha  occ. eigenvalues --  -10.11060 -10.09060 -10.08291 -10.07170 -10.06247
 Alpha  occ. eigenvalues --   -0.97572  -0.94932  -0.90097  -0.83857  -0.81039
 Alpha  occ. eigenvalues --   -0.78846  -0.71831  -0.68927  -0.62087  -0.59531
 Alpha  occ. eigenvalues --   -0.58985  -0.52792  -0.51197  -0.49058  -0.47471
 Alpha  occ. eigenvalues --   -0.45297  -0.43848  -0.42165  -0.40006  -0.38332
 Alpha  occ. eigenvalues --   -0.37087  -0.36705  -0.35560  -0.34476  -0.34276
 Alpha  occ. eigenvalues --   -0.33355  -0.30981  -0.30293  -0.29780  -0.29318
 Alpha  occ. eigenvalues --   -0.28733  -0.27987  -0.26649  -0.25120  -0.24497
 Alpha  occ. eigenvalues --   -0.23761  -0.20772  -0.18279  -0.17917  -0.17768
 Alpha  occ. eigenvalues --   -0.17333  -0.15132   0.03809
 Alpha virt. eigenvalues --    0.05400   0.07189   0.08145   0.08341   0.09252
 Alpha virt. eigenvalues --    0.09426   0.09898   0.10556   0.10657   0.11002
 Alpha virt. eigenvalues --    0.12231   0.12456   0.12710   0.13428   0.13587

  Beta  occ. eigenvalues --  -19.00484 -18.99933 -14.26462 -14.25243 -14.23390
  Beta  occ. eigenvalues --  -14.19683 -10.21247 -10.18532 -10.16864 -10.13537
  Beta  occ. eigenvalues --  -10.11058 -10.09028 -10.08284 -10.07163 -10.06237
  Beta  occ. eigenvalues --   -0.97554  -0.94913  -0.90076  -0.83831  -0.80918
  Beta  occ. eigenvalues --   -0.78793  -0.71812  -0.68892  -0.62047  -0.59509
  Beta  occ. eigenvalues --   -0.58939  -0.52727  -0.51157  -0.48954  -0.47431
  Beta  occ. eigenvalues --   -0.45223  -0.43774  -0.42127  -0.39963  -0.38296
  Beta  occ. eigenvalues --   -0.37055  -0.36685  -0.35534  -0.34456  -0.34257
  Beta  occ. eigenvalues --   -0.33334  -0.30958  -0.30256  -0.29767  -0.29293
  Beta  occ. eigenvalues --   -0.28716  -0.27959  -0.26620  -0.25104  -0.24481
  Beta  occ. eigenvalues --   -0.23741  -0.20744  -0.18220  -0.17873  -0.17729
  Beta  occ. eigenvalues --   -0.17310  -0.15106
  Beta virt. eigenvalues --    0.06483   0.06923   0.07803   0.08221   0.08765
  Beta virt. eigenvalues --    0.09522   0.09888   0.10206   0.10606   0.11104
  Beta virt. eigenvalues --    0.11320   0.12301   0.12712   0.12828   0.13456

 Mulliken charges and spin densities:
               1          2
     1  C   -0.358046  -0.221717
     2  C   -0.102368   0.714893
     3  C   -0.364363  -0.337918
     4  C    0.037156  -0.853646
     5  N    0.198032   0.053196
     6  C    1.131862  -1.212934
     7  C   -0.890854   0.462587
     8  N   -0.327512   0.016164
     9  N   -0.363393   0.078919
    10  C    0.466324  -0.269296
    11  O   -0.381830   0.019130
    12  C   -0.005476  -0.297915
    13  C    0.770460  -0.863720
    14  O   -0.283290   0.007010
    15  N   -0.302498   0.092916
    16  H    0.153628  -0.004616
    17  H    0.028900   0.138884
    18  H   -0.062290   0.202900
    19  H    0.168099   0.056312
    20  H    0.091899   0.028249
    21  H    0.059395   0.088953
    22  H    0.031600   0.113220
    23  H    0.266073  -0.057073
    24  H    0.199313  -0.003995
    25  H    0.185782   0.072498
    26  H   -0.203326   0.420221
    27  H   -0.269508   0.629096
    28  H    0.199218   0.060990
    29  H   -0.227119   0.437475
    30  H   -0.548214   0.829832
    31  H   -0.297651   0.599387
 Sum of Mulliken charges =  -1.00000   1.00000

 Dipole moment (field-independent basis, Debye):
    X=              0.7720    Y=             -4.4770    Z=             -3.9374  Tot=              6.0119
 Quadrupole moment (field-independent basis, Debye-Ang):
   XX=           -153.5802   YY=           -150.1977   ZZ=           -125.0482
   XY=            -14.7418   XZ=             -3.9297   YZ=             -6.7121

 Summary of Natural Population Analysis:

                                       Natural Population
                Natural  -----------------------------------------------
    Atom  No    Charge         Core      Valence    Rydberg      Total
 -----------------------------------------------------------------------
      C    1   -0.28509      0.99965     2.27902    0.00641     3.28509
      C    2   -0.12374      0.99961     2.11535    0.00878     3.12374
      C    3   -0.28473      0.99965     2.27898    0.00610     3.28473
      C    4   -0.08578      0.99959     2.07628    0.00991     3.08578
      N    5   -0.26222      0.99962     2.75219    0.01042     3.76222
      C    6   -0.02005      0.99954     2.00813    0.01238     3.02005
      C    7    0.23278      0.99964     1.75047    0.01711     2.76722
      N    8   -0.34918      0.99969     2.84178    0.00770     3.84918
      N    9   -0.32527      0.99963     2.81587    0.00976     3.82527
      C   10    0.41419      0.99966     1.56291    0.02323     2.58581
      O   11   -0.32443      0.99987     3.31924    0.00532     4.32443
      C   12   -0.24111      0.99955     2.23168    0.00988     3.24111
      C   13    0.33749      0.99970     1.63931    0.02350     2.66251
      O   14   -0.32955      0.99987     3.32384    0.00583     4.32955
      N   15   -0.39496      0.99971     2.88652    0.00874     3.89496
      H   16    0.09796      0.00000     0.40131    0.00073     0.40204
      H   17    0.10400      0.00000     0.39507    0.00094     0.39600
      H   18    0.09734      0.00000     0.40197    0.00070     0.40266
      H   19    0.09922      0.00000     0.39782    0.00296     0.40078
      H   20    0.09319      0.00000     0.40604    0.00077     0.40681
      H   21    0.10238      0.00000     0.39691    0.00072     0.39762
      H   22    0.10057      0.00000     0.39877    0.00066     0.39943
      H   23    0.10889      0.00000     0.39010    0.00102     0.39111
      H   24    0.10352      0.00000     0.39541    0.00107     0.39648
      H   25    0.11553      0.00000     0.38299    0.00148     0.38447
      H   26    0.16799      0.00000     0.32915    0.00285     0.33201
      H   27    0.20698      0.00000     0.28723    0.00578     0.29302
      H   28    0.12910      0.00000     0.36944    0.00146     0.37090
      H   29    0.11287      0.00000     0.38521    0.00192     0.38713
      H   30    0.20310      0.00000     0.27628    0.02062     0.29690
      H   31    0.19902      0.00000     0.29672    0.00425     0.30098
 =======================================================================
   * Total *    0.00000     14.99498    41.79202    0.21300    57.00000

 Normal termination of Gaussian 16 at Thu Dec 10 17:25:46 2020.
