 Gaussian 16, Revision A.03,

 -----------------------------------------------------------
 # opt freq B3LYP/6-31G(d) empiricaldispersion=gd3bj scf=xqc
 -----------------------------------------------------------

 -------------------------------
 CID_114493797_JID_5054_neutraal
 -------------------------------
 Symbolic Z-matrix:
 Charge =  0 Multiplicity = 1

 SCF Done:  E(RB3LYP) =  -656.488345245     A.U. after   14 cycles
 SCF Done:  E(RB3LYP) =  -656.492925125     A.U. after   13 cycles
 SCF Done:  E(RB3LYP) =  -656.493338530     A.U. after   12 cycles
 SCF Done:  E(RB3LYP) =  -656.495308446     A.U. after   12 cycles
 SCF Done:  E(RB3LYP) =  -656.496888475     A.U. after   12 cycles
 SCF Done:  E(RB3LYP) =  -656.497858726     A.U. after   12 cycles
 SCF Done:  E(RB3LYP) =  -656.498223465     A.U. after   12 cycles
 SCF Done:  E(RB3LYP) =  -656.498688334     A.U. after   11 cycles
 SCF Done:  E(RB3LYP) =  -656.499086793     A.U. after   12 cycles
 SCF Done:  E(RB3LYP) =  -656.499303844     A.U. after   12 cycles
 SCF Done:  E(RB3LYP) =  -656.499590587     A.U. after   13 cycles
 SCF Done:  E(RB3LYP) =  -656.499841214     A.U. after   12 cycles
 SCF Done:  E(RB3LYP) =  -656.499853791     A.U. after   10 cycles
 SCF Done:  E(RB3LYP) =  -656.499853887     A.U. after    9 cycles
 SCF Done:  E(RB3LYP) =  -656.499853625     A.U. after    8 cycles
 SCF Done:  E(RB3LYP) =  -656.499854133     A.U. after    9 cycles
 Optimization completed.
    -- Stationary point found.
 Normal termination of Gaussian 16 at Thu Dec 10 14:59:44 2020.

 --------------------------------------------------------------------
 #N Geom=AllCheck Guess=TCheck SCRF=Check GenChk RB3LYP/6-31G(d) Freq
 --------------------------------------------------------------------

 Structure from the checkpoint file:  "JID_5054.chk"
 -------------------------------
 CID_114493797_JID_5054_neutraal
 -------------------------------
 Charge =  0 Multiplicity = 1

 SCF Done:  E(RB3LYP) =  -656.499854133     A.U. after    1 cycles

  Exact polarizability: 165.018  -1.718 135.465   2.009  -1.461 117.662
 Approx polarizability: 216.431  -8.718 188.419   3.888   1.655 177.762

                      1                      2                      3
                      A                      A                      A
 Frequencies --     27.5365                43.8299                56.3839
 Red. masses --      4.8926                 3.4084                 3.3268
 Frc consts  --      0.0022                 0.0039                 0.0062
 IR Inten    --      3.6915                 5.2490                 2.0800

                      4                      5                      6
                      A                      A                      A
 Frequencies --     73.0774                88.9551                97.2141
 Red. masses --      2.7339                 3.2818                 2.6596
 Frc consts  --      0.0086                 0.0153                 0.0148
 IR Inten    --      0.0627                 1.3725                 0.6550

                      7                      8                      9
                      A                      A                      A
 Frequencies --    115.6413               127.5143               173.2456
 Red. masses --      3.2067                 3.4073                 3.6182
 Frc consts  --      0.0253                 0.0326                 0.0640
 IR Inten    --      5.5959                 3.1274                 1.6517

                     10                     11                     12
                      A                      A                      A
 Frequencies --    194.8843               208.1090               225.7281
 Red. masses --      2.2867                 1.1952                 2.3311
 Frc consts  --      0.0512                 0.0305                 0.0700
 IR Inten    --      0.4619                 0.1937                 9.1732

                     13                     14                     15
                      A                      A                      A
 Frequencies --    231.8285               239.7047               262.5116
 Red. masses --      1.0444                 2.1225                 2.1455
 Frc consts  --      0.0331                 0.0719                 0.0871
 IR Inten    --      0.0209                 1.7021                 0.7652

                     16                     17                     18
                      A                      A                      A
 Frequencies --    275.2658               306.0111               314.5961
 Red. masses --      1.1288                 2.6153                 2.0605
 Frc consts  --      0.0504                 0.1443                 0.1201
 IR Inten    --      0.2644                 1.6239                 0.7127

                     19                     20                     21
                      A                      A                      A
 Frequencies --    342.3791               372.3896               378.2005
 Red. masses --      2.3622                 2.4994                 3.4228
 Frc consts  --      0.1631                 0.2042                 0.2885
 IR Inten    --      4.9395                 5.5394                 1.7372

                     22                     23                     24
                      A                      A                      A
 Frequencies --    389.9051               414.4501               430.0131
 Red. masses --      2.2145                 2.3131                 1.9462
 Frc consts  --      0.1984                 0.2341                 0.2120
 IR Inten    --      0.3089                 0.6491                 8.1706

                     25                     26                     27
                      A                      A                      A
 Frequencies --    435.1461               468.7336               519.6905
 Red. masses --      2.5655                 1.9867                 1.8400
 Frc consts  --      0.2862                 0.2572                 0.2928
 IR Inten    --     25.5553                12.6557                57.2330

                     28                     29                     30
                      A                      A                      A
 Frequencies --    561.0220               579.4879               627.9521
 Red. masses --      2.5141                 1.8562                 3.4369
 Frc consts  --      0.4662                 0.3673                 0.7985
 IR Inten    --     69.2335                26.0217                37.2946

                     31                     32                     33
                      A                      A                      A
 Frequencies --    741.8987               779.1515               803.7090
 Red. masses --      3.3422                 2.9886                 1.2279
 Frc consts  --      1.0839                 1.0690                 0.4673
 IR Inten    --      5.7115                 1.1026                 1.8070

                     34                     35                     36
                      A                      A                      A
 Frequencies --    818.4357               845.7113               888.6074
 Red. masses --      2.8120                 2.7418                 2.0560
 Frc consts  --      1.1098                 1.1554                 0.9565
 IR Inten    --      3.7182                 1.1935                 8.6714

                     37                     38                     39
                      A                      A                      A
 Frequencies --    909.7192               921.8078               941.1648
 Red. masses --      1.8770                 1.9253                 1.6799
 Frc consts  --      0.9152                 0.9639                 0.8767
 IR Inten    --      1.8395                 1.9831                 2.9646

                     40                     41                     42
                      A                      A                      A
 Frequencies --    949.6185               966.5342               982.2994
 Red. masses --      1.3604                 2.0422                 1.6822
 Frc consts  --      0.7228                 1.1241                 0.9564
 IR Inten    --      2.3178                 9.3851                17.9028

                     43                     44                     45
                      A                      A                      A
 Frequencies --    986.2427              1005.6723              1016.8973
 Red. masses --      1.5260                 2.6611                 1.6379
 Frc consts  --      0.8745                 1.5857                 0.9979
 IR Inten    --     14.1856                 1.7328                 3.4580

                     46                     47                     48
                      A                      A                      A
 Frequencies --   1028.4257              1042.4432              1083.9693
 Red. masses --      1.9787                 2.4098                 2.0270
 Frc consts  --      1.2330                 1.5429                 1.4033
 IR Inten    --     29.1795                45.5942                 1.4209

                     49                     50                     51
                      A                      A                      A
 Frequencies --   1126.8101              1141.3483              1157.5699
 Red. masses --      1.9732                 1.9580                 2.2200
 Frc consts  --      1.4761                 1.5028                 1.7526
 IR Inten    --     48.2598                33.0514                 5.3946

                     52                     53                     54
                      A                      A                      A
 Frequencies --   1175.0276              1209.4457              1214.1053
 Red. masses --      1.7722                 1.7300                 1.6364
 Frc consts  --      1.4417                 1.4910                 1.4212
 IR Inten    --     55.2684                 4.6303                10.1123

                     55                     56                     57
                      A                      A                      A
 Frequencies --   1225.4691              1248.0877              1275.0509
 Red. masses --      2.6751                 2.2369                 1.3530
 Frc consts  --      2.3670                 2.0530                 1.2960
 IR Inten    --     22.5210                 6.6992                23.1006

                     58                     59                     60
                      A                      A                      A
 Frequencies --   1308.3522              1327.8054              1352.7287
 Red. masses --      1.1978                 1.3590                 1.4045
 Frc consts  --      1.2080                 1.4116                 1.5142
 IR Inten    --     14.5649                 6.3872                 6.1625

                     61                     62                     63
                      A                      A                      A
 Frequencies --   1361.6387              1367.7910              1385.9622
 Red. masses --      1.2498                 1.2871                 1.4928
 Frc consts  --      1.3652                 1.4187                 1.6895
 IR Inten    --     32.4188                10.2226                 1.7946

                     64                     65                     66
                      A                      A                      A
 Frequencies --   1391.5974              1411.0587              1423.6709
 Red. masses --      1.4271                 1.3539                 1.3327
 Frc consts  --      1.6283                 1.5883                 1.5914
 IR Inten    --      8.6757                20.1013                17.9994

                     67                     68                     69
                      A                      A                      A
 Frequencies --   1428.5224              1429.3292              1433.5424
 Red. masses --      1.2553                 1.3115                 1.3491
 Frc consts  --      1.5092                 1.5786                 1.6335
 IR Inten    --      0.5737                14.7021                10.4762

                     70                     71                     72
                      A                      A                      A
 Frequencies --   1437.6292              1447.4140              1453.6176
 Red. masses --      1.2338                 1.2025                 1.3035
 Frc consts  --      1.5024                 1.4843                 1.6228
 IR Inten    --      8.7190                 2.7452                 1.6118

                     73                     74                     75
                      A                      A                      A
 Frequencies --   1456.0596              1489.6310              1498.3595
 Red. masses --      1.5220                 1.1027                 1.0920
 Frc consts  --      1.9012                 1.4416                 1.4445
 IR Inten    --     39.0073                11.3688                 3.4111

                     76                     77                     78
                      A                      A                      A
 Frequencies --   1503.3998              1508.1115              1517.6057
 Red. masses --      1.0792                 1.0687                 1.0459
 Frc consts  --      1.4372                 1.4321                 1.4193
 IR Inten    --      6.6582                 2.0577                 0.1883

                     79                     80                     81
                      A                      A                      A
 Frequencies --   1519.0613              1520.3502              1526.1397
 Red. masses --      1.0653                 1.0689                 1.0647
 Frc consts  --      1.4483                 1.4557                 1.4610
 IR Inten    --      2.1252                 4.3054                 4.6485

                     82                     83                     84
                      A                      A                      A
 Frequencies --   1527.9674              1534.9444              1539.5094
 Red. masses --      1.0543                 1.0545                 1.0533
 Frc consts  --      1.4502                 1.4638                 1.4709
 IR Inten    --      3.1471                 4.3913                 6.9165

                     85                     86                     87
                      A                      A                      A
 Frequencies --   1540.3205              1545.8325              2363.1120
 Red. masses --      1.0533                 1.0536                12.5757
 Frc consts  --      1.4724                 1.4834                41.3762
 IR Inten    --      9.7545                 1.0559                16.6844

                     88                     89                     90
                      A                      A                      A
 Frequencies --   3016.1525              3031.0097              3035.4760
 Red. masses --      1.0661                 1.0600                 1.0386
 Frc consts  --      5.7144                 5.7378                 5.6384
 IR Inten    --     42.5638                30.1660                35.0582

                     91                     92                     93
                      A                      A                      A
 Frequencies --   3038.2048              3041.0709              3053.7281
 Red. masses --      1.0598                 1.0447                 1.0628
 Frc consts  --      5.7639                 5.6926                 5.8391
 IR Inten    --     28.8339                19.8367                12.2421

                     94                     95                     96
                      A                      A                      A
 Frequencies --   3057.1609              3060.2484              3061.8095
 Red. masses --      1.0362                 1.0424                 1.0590
 Frc consts  --      5.7058                 5.7517                 5.8491
 IR Inten    --     29.1511                14.1378                17.2744

                     97                     98                     99
                      A                      A                      A
 Frequencies --   3066.2174              3077.0252              3089.3334
 Red. masses --      1.0980                 1.0912                 1.0931
 Frc consts  --      6.0823                 6.0874                 6.1465
 IR Inten    --     35.6877                 4.4047                 5.0877

                    100                    101                    102
                      A                      A                      A
 Frequencies --   3100.6325              3101.2291              3102.1134
 Red. masses --      1.1001                 1.0991                 1.0968
 Frc consts  --      6.2313                 6.2280                 6.2187
 IR Inten    --     15.3699                 6.2037                21.5328

                    103                    104                    105
                      A                      A                      A
 Frequencies --   3111.9437              3113.6231              3118.9037
 Red. masses --      1.1030                 1.0986                 1.1018
 Frc consts  --      6.2934                 6.2748                 6.3149
 IR Inten    --     10.3760                42.0666                34.5472

                    106                    107                    108
                      A                      A                      A
 Frequencies --   3119.6040              3125.1472              3125.6737
 Red. masses --      1.0982                 1.1015                 1.1017
 Frc consts  --      6.2970                 6.3383                 6.3416
 IR Inten    --     53.5660                59.7854                14.5029

                    109                    110                    111
                      A                      A                      A
 Frequencies --   3136.8355              3146.8869              3671.8883
 Red. masses --      1.1022                 1.1003                 1.0644
 Frc consts  --      6.3897                 6.4197                 8.4553
 IR Inten    --     26.1521                23.6659                26.7511

 - Thermochemistry -
 -------------------
 Temperature   298.150 Kelvin.  Pressure   1.00000 Atm.
 Atom     1 has atomic number  6 and mass  12.00000

 Molecular mass:   212.18886 amu.
 Principal axes and moments of inertia in atomic units:
                           1         2         3
     Eigenvalues --  2097.186035244.756986371.76831
           X            0.99985  -0.01694   0.00260
           Y            0.01696   0.99979  -0.01131
           Z           -0.00240   0.01136   0.99993
 This molecule is an asymmetric top.
 Rotational symmetry number  1.
 Warning -- assumption of classical behavior for rotation
           may cause significant error
 Rotational temperatures (Kelvin)      0.04130     0.01651     0.01359
 Rotational constants (GHZ):           0.86055     0.34410     0.28324
 Zero-point vibrational energy     928419.5 (Joules/Mol)
                                  221.89758 (Kcal/Mol)
 Warning -- explicit consideration of  29 degrees of freedom as
           vibrations may cause significant error
 Vibrational temperatures:     39.62    63.06    81.12   105.14   127.99
          (Kelvin)            139.87   166.38   183.46   249.26   280.40
                              299.42   324.77   333.55   344.88   377.70
                              396.05   440.28   452.63   492.61   535.79
                              544.15   560.99   596.30   618.69   626.08
                              674.40   747.72   807.19   833.75   903.48
                             1067.43  1121.03  1156.36  1177.55  1216.79
                             1278.51  1308.88  1326.28  1354.13  1366.29
                             1390.63  1413.31  1418.98  1446.94  1463.09
                             1479.68  1499.84  1559.59  1621.23  1642.15
                             1665.48  1690.60  1740.12  1746.83  1763.18
                             1795.72  1834.51  1882.43  1910.42  1946.27
                             1959.09  1967.95  1994.09  2002.20  2030.20
                             2048.34  2055.33  2056.49  2062.55  2068.43
                             2082.51  2091.43  2094.94  2143.25  2155.81
                             2163.06  2169.84  2183.50  2185.59  2187.44
                             2195.77  2198.40  2208.44  2215.01  2216.18
                             2224.11  3399.99  4339.57  4360.95  4367.37
                             4371.30  4375.42  4393.63  4398.57  4403.01
                             4405.26  4411.60  4427.15  4444.86  4461.12
                             4461.98  4463.25  4477.39  4479.81  4487.41
                             4488.41  4496.39  4497.15  4513.21  4527.67
                             5283.03

 Zero-point correction=                           0.353616 (Hartree/Particle)
 Thermal correction to Energy=                    0.372097
 Thermal correction to Enthalpy=                  0.373041
 Thermal correction to Gibbs Free Energy=         0.307129
 Sum of electronic and zero-point Energies=           -656.146238
 Sum of electronic and thermal Energies=              -656.127757
 Sum of electronic and thermal Enthalpies=            -656.126813
 Sum of electronic and thermal Free Energies=         -656.192725

                     E (Thermal)             CV                S
                      KCal/Mol        Cal/Mol-Kelvin    Cal/Mol-Kelvin
 Total                  233.495             68.430            138.723
 Electronic               0.000              0.000              0.000
 Translational            0.889              2.981             41.960
 Rotational               0.889              2.981             32.616
 Vibrational            231.717             62.468             64.147
 Vibration     1          0.593              1.984              5.999
 Vibration     2          0.595              1.980              5.078
 Vibration     3          0.596              1.975              4.580
 Vibration     4          0.599              1.967              4.069
 Vibration     5          0.602              1.957              3.683
 Vibration     6          0.603              1.951              3.509
 Vibration     7          0.608              1.936              3.172
 Vibration     8          0.611              1.926              2.983
 Vibration     9          0.627              1.875              2.400
 Vibration    10          0.636              1.847              2.181
 Vibration    11          0.641              1.828              2.060
 Vibration    12          0.650              1.802              1.913
 Vibration    13          0.653              1.792              1.865
 Vibration    14          0.657              1.780              1.805
 Vibration    15          0.670              1.741              1.645
 Vibration    16          0.677              1.719              1.563
 Vibration    17          0.696              1.662              1.384
 Vibration    18          0.702              1.646              1.338
 Vibration    19          0.722              1.591              1.201
 Vibration    20          0.744              1.529              1.070
 Vibration    21          0.748              1.517              1.046
 Vibration    22          0.758              1.492              1.001
 Vibration    23          0.778              1.439              0.911
 Vibration    24          0.791              1.405              0.859
 Vibration    25          0.796              1.394              0.842
 Vibration    26          0.826              1.319              0.741
 Vibration    27          0.875              1.206              0.611
 Vibration    28          0.917              1.116              0.522
 Vibration    29          0.936              1.076              0.486

 Optimization completed.
    -- Stationary point found.
 Normal termination of Gaussian 16 at Thu Dec 10 15:13:21 2020.

 ----------------------------------------------------------------------
 # B3LYP/6-311++G(d,p) empiricaldispersion=gd3bj scf=xqc pop=npa geom=c
 heck
 ----------------------------------------------------------------------

 ---------------------------------------
 CID_114493797_JID_5054_Energie_neutraal
 ---------------------------------------
 Structure from the checkpoint file:  "JID_5054.chk"
 Charge =  0 Multiplicity = 1

 SCF Done:  E(RB3LYP) =  -656.693251815     A.U. after   14 cycles
 Normal termination of Gaussian 16 at Thu Dec 10 15:22:08 2020.

 ----------------------------------------------------------------------
 # B3LYP/6-311++G(d,p) empiricaldispersion=gd3bj scf=xqc pop=npa geom=c
 heck
 ----------------------------------------------------------------------

 -------------------------------------
 CID_114493797_JID_5054_Energie_kation
 -------------------------------------
 Structure from the checkpoint file:  "JID_5054.chk"
 Charge =  1 Multiplicity = 2

 SCF Done:  E(UB3LYP) =  -656.405998927     A.U. after   20 cycles
 Normal termination of Gaussian 16 at Thu Dec 10 15:37:23 2020.
 Gaussian 16:  ES64L-G16RevA.03 25-Dec-2016

 ----------------------------------------------------------------------
 # B3LYP/6-311++G(d,p) empiricaldispersion=gd3bj scf=xqc pop=npa geom=c
 heck
 ----------------------------------------------------------------------

 ------------------------------------
 CID_114493797_JID_5054_Energie_anion
 ------------------------------------
 Structure from the checkpoint file:  "JID_5054.chk"
 Charge = -1 Multiplicity = 2

                         Standard orientation:
 ---------------------------------------------------------------------
 Center     Atomic      Atomic             Coordinates (Angstroms)
 Number     Number       Type             X           Y           Z
 ---------------------------------------------------------------------
      1          6           0        4.212022    1.127556   -0.530360
      2          6           0        2.758752    1.045241   -0.058333
      3          6           0        2.274417   -0.382240    0.274869
      4          6           0        3.102932   -1.030103    1.379671
      5          6           0        0.776434   -0.366918    0.689312
      6          7           0       -0.124561   -0.207496   -0.446622
      7          6           0       -0.743442   -1.408434   -0.963498
      8          6           0       -1.736652   -2.194823   -0.043104
      9          6           0       -3.110007   -1.700610   -0.011519
     10          7           0       -4.207138   -1.319881   -0.008849
     11          6           0       -0.736484    1.094340   -0.695168
     12          6           0       -2.073190    1.445840   -0.010662
     13          6           0       -2.036061    1.259651    1.508312
     14          6           0       -2.450073    2.887099   -0.377211
     15          8           0        2.415340   -1.216059   -0.881893
     16          1           0        4.916548    0.904119    0.277606
     17          1           0        4.444027    2.131919   -0.900803
     18          1           0        4.388108    0.411726   -1.338893
     19          1           0        2.607214    1.689010    0.819079
     20          1           0        2.106304    1.440729   -0.848082
     21          1           0        3.027570   -0.454002    2.308939
     22          1           0        2.744829   -2.047244    1.568866
     23          1           0        4.156147   -1.092832    1.095060
     24          1           0        0.560421   -1.313869    1.199835
     25          1           0        0.607433    0.425494    1.425370
     26          1           0       -1.248988   -1.165136   -1.903933
     27          1           0        0.051077   -2.126750   -1.193450
     28          1           0       -1.772670   -3.233569   -0.394597
     29          1           0       -1.347820   -2.227775    0.980569
     30          1           0        0.004422    1.850070   -0.409458
     31          1           0       -0.873898    1.200035   -1.781301
     32          1           0       -2.850080    0.787721   -0.412052
     33          1           0       -1.286872    1.916654    1.970024
     34          1           0       -3.009415    1.499790    1.949093
     35          1           0       -1.797212    0.228276    1.786232
     36          1           0       -2.495346    3.026350   -1.464072
     37          1           0       -3.429779    3.151661    0.034637
     38          1           0       -1.715964    3.600067    0.021091
     39          1           0        1.781229   -0.841933   -1.520175
 ---------------------------------------------------------------------

 SCF Done:  E(UB3LYP) =  -656.684074454     A.U. after   30 cycles

 The electronic state is 2-A.
 Alpha  occ. eigenvalues --  -19.01763 -14.21799 -14.21722 -10.12748 -10.11941
 Alpha  occ. eigenvalues --  -10.11849 -10.11796 -10.10159 -10.09995 -10.07601
 Alpha  occ. eigenvalues --  -10.06939 -10.06925 -10.06395 -10.06253 -10.06191
 Alpha  occ. eigenvalues --   -0.92592  -0.83588  -0.81471  -0.71270  -0.70442
 Alpha  occ. eigenvalues --   -0.68713  -0.64247  -0.60657  -0.59699  -0.59306
 Alpha  occ. eigenvalues --   -0.54375  -0.51062  -0.47041  -0.46855  -0.43016
 Alpha  occ. eigenvalues --   -0.40308  -0.39815  -0.39140  -0.37791  -0.36265
 Alpha  occ. eigenvalues --   -0.35705  -0.34730  -0.34250  -0.32850  -0.31731
 Alpha  occ. eigenvalues --   -0.31003  -0.29580  -0.29446  -0.29002  -0.28524
 Alpha  occ. eigenvalues --   -0.28269  -0.27786  -0.27036  -0.26759  -0.26019
 Alpha  occ. eigenvalues --   -0.25038  -0.24628  -0.24356  -0.24207  -0.23538
 Alpha  occ. eigenvalues --   -0.22523  -0.21762  -0.17959  -0.11860   0.03977
 Alpha virt. eigenvalues --    0.06173   0.06761   0.07063   0.08341   0.08519
 Alpha virt. eigenvalues --    0.09010   0.09114   0.09541   0.10934   0.10962
 Alpha virt. eigenvalues --    0.11143   0.11312   0.11733   0.11877   0.12473

  Beta  occ. eigenvalues --  -19.01746 -14.21801 -14.21706 -10.12746 -10.11911
  Beta  occ. eigenvalues --  -10.11842 -10.11756 -10.10142 -10.09974 -10.07598
  Beta  occ. eigenvalues --  -10.06924 -10.06902 -10.06374 -10.06234 -10.06163
  Beta  occ. eigenvalues --   -0.92558  -0.83573  -0.81439  -0.71243  -0.70404
  Beta  occ. eigenvalues --   -0.68664  -0.64213  -0.60617  -0.59637  -0.59267
  Beta  occ. eigenvalues --   -0.54316  -0.51014  -0.46994  -0.46803  -0.42965
  Beta  occ. eigenvalues --   -0.40267  -0.39777  -0.39110  -0.37763  -0.36232
  Beta  occ. eigenvalues --   -0.35671  -0.34685  -0.34217  -0.32796  -0.31700
  Beta  occ. eigenvalues --   -0.30979  -0.29551  -0.29423  -0.28964  -0.28496
  Beta  occ. eigenvalues --   -0.28237  -0.27761  -0.27006  -0.26730  -0.25989
  Beta  occ. eigenvalues --   -0.25004  -0.24594  -0.24329  -0.24178  -0.23511
  Beta  occ. eigenvalues --   -0.22485  -0.21729  -0.17936  -0.11845
  Beta virt. eigenvalues --    0.06105   0.07096   0.07173   0.07657   0.08739
  Beta virt. eigenvalues --    0.08867   0.09282   0.09537   0.09777   0.11031
  Beta virt. eigenvalues --    0.11233   0.11354   0.11429   0.11949   0.12111

 Mulliken charges and spin densities:
               1          2
     1  C    0.875951  -1.481478
     2  C   -0.483129   0.370494
     3  C    0.981362  -0.447878
     4  C    0.608076  -1.232756
     5  C   -1.692730   0.566803
     6  N    0.163177   0.020147
     7  C   -0.361741   0.145866
     8  C   -0.165608   0.397845
     9  C    1.262356  -1.571299
    10  N   -0.347437   0.063035
    11  C   -0.190496  -0.485277
    12  C   -0.151160   0.801153
    13  C   -0.112048  -0.552246
    14  C    0.050560  -0.688815
    15  O   -0.135251   0.005452
    16  H   -0.012462   0.140008
    17  H   -0.152387   0.291006
    18  H    0.041974   0.128457
    19  H   -0.301046   0.476539
    20  H    0.091759   0.033557
    21  H   -0.320827   0.477181
    22  H   -0.119446   0.278122
    23  H    0.139143   0.008202
    24  H   -0.082640   0.244253
    25  H    0.363586  -0.206827
    26  H   -0.302128   0.466437
    27  H   -0.183057   0.364381
    28  H   -0.588840   0.802274
    29  H   -0.140154   0.287852
    30  H    0.091871   0.044637
    31  H   -0.201478   0.377439
    32  H    0.330341  -0.201071
    33  H   -0.106448   0.263549
    34  H    0.050558   0.113199
    35  H    0.023398   0.105883
    36  H   -0.087570   0.219373
    37  H    0.073567   0.066466
    38  H    0.016689   0.116445
    39  H    0.073716   0.191594
 Sum of Mulliken charges =  -1.00000   1.00000

 Dipole moment (field-independent basis, Debye):
    X=              0.3945    Y=              2.2110    Z=             -0.0990  Tot=              2.2481
 Quadrupole moment (field-independent basis, Debye-Ang):
   XX=           -172.6207   YY=           -149.8551   ZZ=           -134.2037
   XY=             -7.9597   XZ=             -2.5761   YZ=             -2.6359

 Summary of Natural Population Analysis:

                                       Natural Population
                Natural  -----------------------------------------------
    Atom  No    Charge         Core      Valence    Rydberg      Total
 -----------------------------------------------------------------------
      C    1   -0.28669      0.99966     2.28249    0.00454     3.28669
      C    2   -0.20177      0.99958     2.19278    0.00940     3.20177
      C    3    0.12515      0.99954     1.86014    0.01517     2.87485
      C    4   -0.29400      0.99961     2.28696    0.00743     3.29400
      C    5   -0.09055      0.99953     2.07880    0.01222     3.09055
      N    6   -0.29686      0.99971     2.78150    0.01565     3.79686
      C    7   -0.07390      0.99958     2.06181    0.01251     3.07390
      C    8   -0.26004      0.99953     2.25140    0.00911     3.26004
      C    9    0.16455      0.99966     1.81956    0.01623     2.83545
      N   10   -0.19144      0.99979     2.68091    0.01074     3.69144
      C   11   -0.07439      0.99957     2.06262    0.01220     3.07439
      C   12   -0.13205      0.99960     2.12379    0.00867     3.13205
      C   13   -0.28525      0.99965     2.27921    0.00640     3.28525
      C   14   -0.28211      0.99965     2.27775    0.00471     3.28211
      O   15   -0.38092      0.99989     3.37456    0.00647     4.38092
      H   16    0.09500      0.00000     0.40399    0.00101     0.40500
      H   17    0.09733      0.00000     0.40173    0.00094     0.40267
      H   18    0.10341      0.00000     0.39533    0.00126     0.39659
      H   19    0.09858      0.00000     0.39987    0.00155     0.40142
      H   20    0.09707      0.00000     0.40118    0.00176     0.40293
      H   21    0.10182      0.00000     0.39701    0.00117     0.39818
      H   22    0.10416      0.00000     0.39476    0.00108     0.39584
      H   23    0.10371      0.00000     0.39535    0.00093     0.39629
      H   24    0.09502      0.00000     0.40308    0.00189     0.40498
      H   25    0.10144      0.00000     0.39667    0.00189     0.39856
      H   26    0.10022      0.00000     0.39821    0.00158     0.39978
      H   27    0.10399      0.00000     0.39426    0.00175     0.39601
      H   28    0.12490      0.00000     0.37213    0.00297     0.37510
      H   29    0.12111      0.00000     0.37687    0.00202     0.37889
      H   30    0.09547      0.00000     0.40280    0.00173     0.40453
      H   31    0.09421      0.00000     0.40458    0.00121     0.40579
      H   32    0.10248      0.00000     0.39516    0.00236     0.39752
      H   33    0.09594      0.00000     0.40310    0.00096     0.40406
      H   34    0.10045      0.00000     0.39884    0.00071     0.39955
      H   35    0.09917      0.00000     0.39949    0.00134     0.40083
      H   36    0.09855      0.00000     0.40056    0.00089     0.40145
      H   37    0.09894      0.00000     0.40025    0.00081     0.40106
      H   38    0.09575      0.00000     0.40330    0.00095     0.40425
      H   39    0.23154      0.00000     0.26500    0.00346     0.26846
 =======================================================================
   * Total *   -0.00000     14.99455    43.81780    0.18765    59.00000

 Normal termination of Gaussian 16 at Thu Dec 10 15:56:34 2020.
