 Gaussian 16, Revision A.03,

 -----------------------------------------------------------
 # opt freq B3LYP/6-31G(d) empiricaldispersion=gd3bj scf=xqc
 -----------------------------------------------------------

 ------------------------------
 CID_79333357_JID_8121_neutraal
 ------------------------------
 Symbolic Z-matrix:
 Charge =  0 Multiplicity = 1

 SCF Done:  E(RB3LYP) =  -1112.41837888     A.U. after   14 cycles
 SCF Done:  E(RB3LYP) =  -1112.42550516     A.U. after   12 cycles
 SCF Done:  E(RB3LYP) =  -1112.42042156     A.U. after   14 cycles
 SCF Done:  E(RB3LYP) =  -1112.42130897     A.U. after   13 cycles
 SCF Done:  E(RB3LYP) =  -1112.42814296     A.U. after   11 cycles
 SCF Done:  E(RB3LYP) =  -1112.42843952     A.U. after   13 cycles
 SCF Done:  E(RB3LYP) =  -1112.43064605     A.U. after   12 cycles
 SCF Done:  E(RB3LYP) =  -1112.43131695     A.U. after   11 cycles
 SCF Done:  E(RB3LYP) =  -1112.43159870     A.U. after   11 cycles
 SCF Done:  E(RB3LYP) =  -1112.43166457     A.U. after   10 cycles
 SCF Done:  E(RB3LYP) =  -1112.43187728     A.U. after    9 cycles
 SCF Done:  E(RB3LYP) =  -1112.43187707     A.U. after   10 cycles
 SCF Done:  E(RB3LYP) =  -1112.43187738     A.U. after    8 cycles
 SCF Done:  E(RB3LYP) =  -1112.43187749     A.U. after    7 cycles
 SCF Done:  E(RB3LYP) =  -1112.43187740     A.U. after    7 cycles
 Optimization completed.
    -- Stationary point found.
 Normal termination of Gaussian 16 at Fri Dec 11 19:10:57 2020.

 --------------------------------------------------------------------
 #N Geom=AllCheck Guess=TCheck SCRF=Check GenChk RB3LYP/6-31G(d) Freq
 --------------------------------------------------------------------

 Structure from the checkpoint file:  "JID_8121.chk"
 ------------------------------
 CID_79333357_JID_8121_neutraal
 ------------------------------
 Charge =  0 Multiplicity = 1

 SCF Done:  E(RB3LYP) =  -1112.43187740     A.U. after    1 cycles

  Exact polarizability: 200.026   4.104 164.383  -4.422 -16.017 153.812
 Approx polarizability: 286.863   0.782 249.262  -9.298 -36.432 249.846

                      1                      2                      3
                      A                      A                      A
 Frequencies --     28.6990                40.3457                50.8087
 Red. masses --      3.4695                 6.1892                 4.8989
 Frc consts  --      0.0017                 0.0059                 0.0075
 IR Inten    --      0.3536                 2.6112                 0.5907

                      4                      5                      6
                      A                      A                      A
 Frequencies --     64.2223                80.4320                82.8325
 Red. masses --      3.8925                 2.9475                 3.5432
 Frc consts  --      0.0095                 0.0112                 0.0143
 IR Inten    --      1.1512                 1.0619                 0.3784

                      7                      8                      9
                      A                      A                      A
 Frequencies --    133.5592               152.3114               157.6048
 Red. masses --      3.0125                 2.9609                 2.7691
 Frc consts  --      0.0317                 0.0405                 0.0405
 IR Inten    --      0.5476                 0.8722                 1.2258

                     10                     11                     12
                      A                      A                      A
 Frequencies --    185.1376               211.1508               230.9564
 Red. masses --      3.6779                 3.4823                 2.3455
 Frc consts  --      0.0743                 0.0915                 0.0737
 IR Inten    --      3.0380                 2.6599                 0.3306

                     13                     14                     15
                      A                      A                      A
 Frequencies --    255.2841               275.2662               287.4695
 Red. masses --      2.1232                 2.4354                 2.9480
 Frc consts  --      0.0815                 0.1087                 0.1435
 IR Inten    --      0.4855                 1.4687                 0.5409

                     16                     17                     18
                      A                      A                      A
 Frequencies --    307.6331               335.0862               410.5776
 Red. masses --      2.0609                 3.0972                 3.5831
 Frc consts  --      0.1149                 0.2049                 0.3559
 IR Inten    --      1.5054                 0.9862                 0.7134

                     19                     20                     21
                      A                      A                      A
 Frequencies --    420.7826               434.0673               481.0067
 Red. masses --      3.4025                 3.4797                 2.9945
 Frc consts  --      0.3549                 0.3863                 0.4082
 IR Inten    --      1.3937                 1.7662                 2.4032

                     22                     23                     24
                      A                      A                      A
 Frequencies --    489.8950               534.2986               557.1712
 Red. masses --      3.9209                 2.8631                 4.2473
 Frc consts  --      0.5544                 0.4816                 0.7769
 IR Inten    --      4.8117                 5.2698                 0.0415

                     25                     26                     27
                      A                      A                      A
 Frequencies --    607.2042               611.2846               638.6195
 Red. masses --      3.9637                 5.0327                 4.3001
 Frc consts  --      0.8610                 1.1080                 1.0333
 IR Inten    --      5.0996                 1.5584                 4.3692

                     28                     29                     30
                      A                      A                      A
 Frequencies --    718.2204               726.4767               755.7492
 Red. masses --      3.4009                 2.4081                 1.3278
 Frc consts  --      1.0336                 0.7488                 0.4468
 IR Inten    --      0.5645                 4.3188                46.1182

                     31                     32                     33
                      A                      A                      A
 Frequencies --    783.6420               790.6706               842.2013
 Red. masses --      1.2167                 2.1876                 4.8060
 Frc consts  --      0.4402                 0.8058                 2.0085
 IR Inten    --     11.5710                24.5393                19.9311

                     34                     35                     36
                      A                      A                      A
 Frequencies --    845.1238               855.3020               880.8195
 Red. masses --      3.4958                 2.2802                 1.7661
 Frc consts  --      1.4711                 0.9828                 0.8073
 IR Inten    --      0.4464                 1.5789                 0.3759

                     37                     38                     39
                      A                      A                      A
 Frequencies --    895.5459               905.6349               923.1075
 Red. masses --      2.3028                 1.2303                 1.5599
 Frc consts  --      1.0881                 0.5945                 0.7832
 IR Inten    --      0.0642                 0.6546                 1.6251

                     40                     41                     42
                      A                      A                      A
 Frequencies --    934.4775               940.5856               946.3835
 Red. masses --      1.4087                 2.8121                 2.3973
 Frc consts  --      0.7248                 1.4658                 1.2650
 IR Inten    --      6.8067                11.0593                 4.3315

                     43                     44                     45
                      A                      A                      A
 Frequencies --    977.1485               993.6958              1014.7555
 Red. masses --      1.2537                 2.5350                 1.9336
 Frc consts  --      0.7053                 1.4748                 1.1731
 IR Inten    --      0.0340                12.1109                 2.6000

                     46                     47                     48
                      A                      A                      A
 Frequencies --   1029.9831              1040.2133              1043.7789
 Red. masses --      3.7964                 5.4960                 2.0715
 Frc consts  --      2.3729                 3.5038                 1.3297
 IR Inten    --      5.1591                47.0681                17.0497

                     49                     50                     51
                      A                      A                      A
 Frequencies --   1061.9773              1066.5666              1085.4286
 Red. masses --      2.2245                 2.3896                 2.8014
 Frc consts  --      1.4781                 1.6016                 1.9446
 IR Inten    --      1.1395                14.1104                 3.7882

                     52                     53                     54
                      A                      A                      A
 Frequencies --   1111.4932              1116.3692              1148.7963
 Red. masses --      2.3611                 2.4977                 1.1195
 Frc consts  --      1.7186                 1.8340                 0.8705
 IR Inten    --      1.9827                 5.2152                 3.8201

                     55                     56                     57
                      A                      A                      A
 Frequencies --   1161.0470              1165.0030              1173.9400
 Red. masses --      1.1123                 1.7993                 1.9601
 Frc consts  --      0.8834                 1.4389                 1.5915
 IR Inten    --      0.4345                 3.6016                12.6703

                     58                     59                     60
                      A                      A                      A
 Frequencies --   1183.9271              1192.5357              1196.3053
 Red. masses --      1.5697                 1.8478                 1.2616
 Frc consts  --      1.2964                 1.5483                 1.0638
 IR Inten    --      6.9785                 4.9686                 8.5318

                     61                     62                     63
                      A                      A                      A
 Frequencies --   1202.0209              1236.1819              1255.3124
 Red. masses --      1.4185                 1.4845                 1.2844
 Frc consts  --      1.2076                 1.3365                 1.1925
 IR Inten    --     12.9511                 1.8766                 5.3163

                     64                     65                     66
                      A                      A                      A
 Frequencies --   1256.0857              1270.2136              1292.0209
 Red. masses --      2.0260                 1.2195                 1.2636
 Frc consts  --      1.8834                 1.1593                 1.2428
 IR Inten    --      2.6738                15.2792                16.4919

                     67                     68                     69
                      A                      A                      A
 Frequencies --   1305.0310              1310.4230              1315.6342
 Red. masses --      1.4372                 1.2767                 1.2767
 Frc consts  --      1.4422                 1.2917                 1.3020
 IR Inten    --      2.3858                 0.1124                 9.5755

                     70                     71                     72
                      A                      A                      A
 Frequencies --   1331.6557              1347.3889              1358.7561
 Red. masses --      1.5117                 1.3998                 1.3749
 Frc consts  --      1.5794                 1.4973                 1.4955
 IR Inten    --      4.5061                 3.0951                20.0075

                     73                     74                     75
                      A                      A                      A
 Frequencies --   1371.0019              1383.9207              1387.5193
 Red. masses --      1.8466                 2.2981                 1.4401
 Frc consts  --      2.0451                 2.5933                 1.6335
 IR Inten    --     33.3590                14.1835                 1.6769

                     76                     77                     78
                      A                      A                      A
 Frequencies --   1397.8947              1419.9027              1445.3394
 Red. masses --      1.3846                 1.4448                 1.2775
 Frc consts  --      1.5941                 1.7162                 1.5723
 IR Inten    --      1.8226                 3.4055                 5.9785

                     79                     80                     81
                      A                      A                      A
 Frequencies --   1505.3950              1509.7350              1512.3536
 Red. masses --      1.5987                 1.1898                 1.1858
 Frc consts  --      2.1346                 1.5977                 1.5980
 IR Inten    --     16.2356                 1.3839                21.6863

                     82                     83                     84
                      A                      A                      A
 Frequencies --   1517.2643              1530.4395              1533.9772
 Red. masses --      1.3479                 1.1192                 2.1854
 Frc consts  --      1.8283                 1.5445                 3.0298
 IR Inten    --     10.5718                20.0384                 8.7625

                     85                     86                     87
                      A                      A                      A
 Frequencies --   1537.3078              1543.1529              1546.9083
 Red. masses --      1.0885                 1.0872                 1.0660
 Frc consts  --      1.5156                 1.5254                 1.5029
 IR Inten    --      2.0001                 0.1665                 6.4189

                     88                     89                     90
                      A                      A                      A
 Frequencies --   1571.3672              1650.5566              1671.3258
 Red. masses --      1.1062                 6.2742                 6.3101
 Frc consts  --      1.6093                10.0710                10.3850
 IR Inten    --      0.9585                 0.8245                 0.0947

                     91                     92                     93
                      A                      A                      A
 Frequencies --   2863.4620              2922.4416              3021.8213
 Red. masses --      1.0793                 1.0738                 1.0725
 Frc consts  --      5.2140                 5.4034                 5.7699
 IR Inten    --     65.0481               100.4031                32.7651

                     94                     95                     96
                      A                      A                      A
 Frequencies --   3036.1230              3041.1398              3042.6829
 Red. masses --      1.0681                 1.0377                 1.0750
 Frc consts  --      5.8007                 5.6545                 5.8635
 IR Inten    --     94.9495                19.1388                61.4235

                     97                     98                     99
                      A                      A                      A
 Frequencies --   3049.0601              3083.3705              3085.8067
 Red. masses --      1.0612                 1.1011                 1.0862
 Frc consts  --      5.8126                 6.1679                 6.0937
 IR Inten    --     30.8745                 1.6644                11.6325

                    100                    101                    102
                      A                      A                      A
 Frequencies --   3089.6127              3100.7485              3108.9319
 Red. masses --      1.0853                 1.0865                 1.1033
 Frc consts  --      6.1040                 6.1549                 6.2832
 IR Inten    --     16.0851                24.1254                69.9208

                    103                    104                    105
                      A                      A                      A
 Frequencies --   3112.0615              3115.3017              3134.1576
 Red. masses --      1.0913                 1.1002                 1.0938
 Frc consts  --      6.2270                 6.2911                 6.3305
 IR Inten    --     13.9155                43.9188                28.5755

                    106                    107                    108
                      A                      A                      A
 Frequencies --   3172.8852              3174.4575              3181.8623
 Red. masses --      1.0873                 1.0940                 1.0879
 Frc consts  --      6.4490                 6.4951                 6.4891
 IR Inten    --     15.0581                 5.3405                 2.6646

                    109                    110                    111
                      A                      A                      A
 Frequencies --   3195.6626              3210.4479              3505.3511
 Red. masses --      1.0917                 1.0969                 1.0729
 Frc consts  --      6.5684                 6.6613                 7.7671
 IR Inten    --     25.9539                29.2783                 0.1868

 - Thermochemistry -
 -------------------
 Temperature   298.150 Kelvin.  Pressure   1.00000 Atm.
 Atom     1 has atomic number  6 and mass  12.00000

 Molecular mass:   263.13439 amu.
 Principal axes and moments of inertia in atomic units:
                           1         2         3
     Eigenvalues --  3541.965775678.827966651.83956
           X            0.99925  -0.03666   0.01267
           Y            0.03686   0.99920  -0.01563
           Z           -0.01208   0.01608   0.99980
 This molecule is an asymmetric top.
 Rotational symmetry number  1.
 Warning -- assumption of classical behavior for rotation
           may cause significant error
 Rotational temperatures (Kelvin)      0.02445     0.01525     0.01302
 Rotational constants (GHZ):           0.50953     0.31780     0.27131
 Zero-point vibrational energy     887234.9 (Joules/Mol)
                                  212.05422 (Kcal/Mol)
 Warning -- explicit consideration of  26 degrees of freedom as
           vibrations may cause significant error
 Vibrational temperatures:     41.29    58.05    73.10    92.40   115.72
          (Kelvin)            119.18   192.16   219.14   226.76   266.37
                              303.80   332.29   367.30   396.05   413.60
                              442.62   482.11   590.73   605.41   624.53
                              692.06   704.85   768.74   801.65   873.63
                              879.50   918.83  1033.36  1045.24  1087.35
                             1127.49  1137.60  1211.74  1215.94  1230.59
                             1267.30  1288.49  1303.01  1328.15  1344.50
                             1353.29  1361.63  1405.90  1429.71  1460.01
                             1481.92  1496.63  1501.77  1527.95  1534.55
                             1561.69  1599.19  1606.21  1652.86  1670.49
                             1676.18  1689.04  1703.41  1715.79  1721.22
                             1729.44  1778.59  1806.11  1807.23  1827.55
                             1858.93  1877.65  1885.41  1892.90  1915.96
                             1938.59  1954.95  1972.57  1991.15  1996.33
                             2011.26  2042.92  2079.52  2165.93  2172.17
                             2175.94  2183.00  2201.96  2207.05  2211.84
                             2220.25  2225.66  2260.85  2374.78  2404.66
                             4119.88  4204.74  4347.73  4368.30  4375.52
                             4377.74  4386.92  4436.28  4439.79  4445.26
                             4461.29  4473.06  4477.56  4482.22  4509.35
                             4565.07  4567.34  4577.99  4597.85  4619.12
                             5043.42

 Zero-point correction=                           0.337930 (Hartree/Particle)
 Thermal correction to Energy=                    0.355309
 Thermal correction to Enthalpy=                  0.356253
 Thermal correction to Gibbs Free Energy=         0.291483
 Sum of electronic and zero-point Energies=          -1112.093947
 Sum of electronic and thermal Energies=             -1112.076568
 Sum of electronic and thermal Enthalpies=           -1112.075624
 Sum of electronic and thermal Free Energies=        -1112.140394

                     E (Thermal)             CV                S
                      KCal/Mol        Cal/Mol-Kelvin    Cal/Mol-Kelvin
 Total                  222.960             66.660            136.320
 Electronic               0.000              0.000              0.000
 Translational            0.889              2.981             42.602
 Rotational               0.889              2.981             33.259
 Vibrational            221.182             60.699             60.460
 Vibration     1          0.593              1.984              5.917
 Vibration     2          0.594              1.981              5.242
 Vibration     3          0.595              1.977              4.786
 Vibration     4          0.597              1.971              4.323
 Vibration     5          0.600              1.962              3.880
 Vibration     6          0.600              1.961              3.823
 Vibration     7          0.613              1.920              2.894
 Vibration     8          0.619              1.900              2.643
 Vibration     9          0.621              1.894              2.578
 Vibration    10          0.631              1.860              2.276
 Vibration    11          0.643              1.824              2.034
 Vibration    12          0.653              1.794              1.871
 Vibration    13          0.666              1.754              1.694
 Vibration    14          0.677              1.719              1.563
 Vibration    15          0.685              1.697              1.489
 Vibration    16          0.697              1.659              1.375
 Vibration    17          0.716              1.605              1.235
 Vibration    18          0.775              1.447              0.925
 Vibration    19          0.783              1.425              0.889
 Vibration    20          0.795              1.396              0.845
 Vibration    21          0.837              1.292              0.707
 Vibration    22          0.846              1.272              0.684
 Vibration    23          0.889              1.174              0.578
 Vibration    24          0.913              1.124              0.530
 Vibration    25          0.966              1.017              0.437
 Vibration    26          0.970              1.008              0.431

 Optimization completed.
    -- Stationary point found.
 Normal termination of Gaussian 16 at Fri Dec 11 19:31:55 2020.

 ----------------------------------------------------------------------
 # B3LYP/6-311++G(d,p) empiricaldispersion=gd3bj scf=xqc pop=npa geom=c
 heck
 ----------------------------------------------------------------------

 --------------------------------------
 CID_79333357_JID_8121_Energie_neutraal
 --------------------------------------
 Structure from the checkpoint file:  "JID_8121.chk"
 Charge =  0 Multiplicity = 1

 SCF Done:  E(RB3LYP) =  -1112.65234419     A.U. after   15 cycles
 Normal termination of Gaussian 16 at Fri Dec 11 19:40:14 2020.

 ----------------------------------------------------------------------
 # B3LYP/6-311++G(d,p) empiricaldispersion=gd3bj scf=xqc pop=npa geom=c
 heck
 ----------------------------------------------------------------------

 ------------------------------------
 CID_79333357_JID_8121_Energie_kation
 ------------------------------------
 Structure from the checkpoint file:  "JID_8121.chk"
 Charge =  1 Multiplicity = 2

 SCF Done:  E(UB3LYP) =  -1112.36750632     A.U. after   25 cycles
 Normal termination of Gaussian 16 at Fri Dec 11 19:58:49 2020.
 Gaussian 16:  ES64L-G16RevA.03 25-Dec-2016

 ----------------------------------------------------------------------
 # B3LYP/6-311++G(d,p) empiricaldispersion=gd3bj scf=xqc pop=npa geom=c
 heck
 ----------------------------------------------------------------------

 -----------------------------------
 CID_79333357_JID_8121_Energie_anion
 -----------------------------------
 Structure from the checkpoint file:  "JID_8121.chk"
 Charge = -1 Multiplicity = 2

                         Standard orientation:
 ---------------------------------------------------------------------
 Center     Atomic      Atomic             Coordinates (Angstroms)
 Number     Number       Type             X           Y           Z
 ---------------------------------------------------------------------
      1          6           0        4.339478   -1.595490    1.004091
      2          6           0        4.104313   -0.255517    0.299364
      3          6           0        2.993805   -0.293090   -0.750681
      4          7           0        1.701787   -0.613257   -0.146121
      5          6           0        0.599554   -0.643997   -1.091031
      6          6           0        0.155630    0.741017   -1.663802
      7          6           0       -1.335264    0.522568   -2.034094
      8          6           0       -1.790619   -0.546831   -1.070807
      9          6           0       -3.083576   -0.911895   -0.707597
     10          6           0       -3.262177   -1.934935    0.226887
     11          6           0       -2.158941   -2.591147    0.777766
     12          6           0       -0.862151   -2.233380    0.400483
     13          6           0       -0.686294   -1.203565   -0.518412
     14         16           0        0.519671    2.246404   -0.662708
     15          6           0       -0.341713    2.212478    0.943263
     16          6           0       -1.863988    1.997286    1.098374
     17          8           0       -1.655467    0.973003    2.091084
     18          6           0       -0.215338    1.059777    1.959921
     19          1           0        3.474023   -1.894439    1.607510
     20          1           0        5.196794   -1.538050    1.683238
     21          1           0        4.540842   -2.395383    0.280127
     22          1           0        3.854395    0.514713    1.038758
     23          1           0        5.031108    0.062670   -0.194709
     24          1           0        2.907203    0.696091   -1.210518
     25          1           0        3.262213   -1.005224   -1.556745
     26          1           0        1.764492   -1.528552    0.293896
     27          1           0        0.865020   -1.249213   -1.985657
     28          1           0        0.738982    0.982183   -2.557724
     29          1           0       -1.916868    1.447103   -1.987657
     30          1           0       -1.401407    0.156850   -3.069517
     31          1           0       -3.943339   -0.397560   -1.129675
     32          1           0       -4.265434   -2.216952    0.533088
     33          1           0       -2.309485   -3.380538    1.508424
     34          1           0       -0.011039   -2.750366    0.837773
     35          1           0       -0.021559    3.170604    1.363565
     36          1           0       -2.411991    2.860769    1.499241
     37          1           0       -2.391414    1.612930    0.222735
     38          1           0        0.229709    0.144411    1.572120
     39          1           0        0.267924    1.334584    2.906886
 ---------------------------------------------------------------------

 SCF Done:  E(UB3LYP) =  -1112.64168096     A.U. after   33 cycles
 SCF Done:  E(UB3LYP) =  -1112.64168096     a.u. after    1 cycles

 The electronic state is 2-A.
 Alpha  occ. eigenvalues --  -88.73911 -19.01980 -14.19887 -10.12371 -10.11376
 Alpha  occ. eigenvalues --  -10.11156 -10.10648 -10.10556 -10.08564 -10.07800
 Alpha  occ. eigenvalues --  -10.07311 -10.07069 -10.07051 -10.06992 -10.06773
 Alpha  occ. eigenvalues --  -10.06713 -10.06689 -10.06377  -7.82508  -5.78930
 Alpha  occ. eigenvalues --   -5.78497  -5.77883  -0.94521  -0.81937  -0.76554
 Alpha  occ. eigenvalues --   -0.71982  -0.68446  -0.67562  -0.64865  -0.63014
 Alpha  occ. eigenvalues --   -0.59752  -0.59159  -0.57635  -0.55950  -0.50674
 Alpha  occ. eigenvalues --   -0.48979  -0.47447  -0.47173  -0.44661  -0.41266
 Alpha  occ. eigenvalues --   -0.41041  -0.39069  -0.38295  -0.36871  -0.35741
 Alpha  occ. eigenvalues --   -0.35458  -0.35336  -0.34055  -0.33420  -0.32752
 Alpha  occ. eigenvalues --   -0.31263  -0.30789  -0.30713  -0.29749  -0.27978
 Alpha  occ. eigenvalues --   -0.27030  -0.25932  -0.25537  -0.24865  -0.24704
 Alpha  occ. eigenvalues --   -0.24395  -0.24094  -0.23795  -0.23298  -0.22271
 Alpha  occ. eigenvalues --   -0.18988  -0.15811  -0.15209  -0.14430  -0.12879
 Alpha  occ. eigenvalues --   -0.12410   0.04339
 Alpha virt. eigenvalues --    0.06455   0.06756   0.07176   0.07733   0.08403
 Alpha virt. eigenvalues --    0.08604   0.08734   0.09241   0.09719   0.09926
 Alpha virt. eigenvalues --    0.10275   0.10451   0.11110   0.11592   0.12135

  Beta  occ. eigenvalues --  -88.73906 -19.01979 -14.19878 -10.12370 -10.11374
  Beta  occ. eigenvalues --  -10.11150 -10.10635 -10.10542 -10.08540 -10.07789
  Beta  occ. eigenvalues --  -10.07312 -10.07048 -10.07042 -10.06973 -10.06762
  Beta  occ. eigenvalues --  -10.06622 -10.06593 -10.06346  -7.82502  -5.78924
  Beta  occ. eigenvalues --   -5.78493  -5.77878  -0.94517  -0.81904  -0.76469
  Beta  occ. eigenvalues --   -0.71902  -0.68410  -0.67515  -0.64725  -0.62957
  Beta  occ. eigenvalues --   -0.59740  -0.59094  -0.57581  -0.55882  -0.50535
  Beta  occ. eigenvalues --   -0.48915  -0.47403  -0.47114  -0.44627  -0.41214
  Beta  occ. eigenvalues --   -0.41010  -0.39010  -0.38259  -0.36796  -0.35698
  Beta  occ. eigenvalues --   -0.35394  -0.35319  -0.33982  -0.33377  -0.32711
  Beta  occ. eigenvalues --   -0.31216  -0.30740  -0.30686  -0.29701  -0.27938
  Beta  occ. eigenvalues --   -0.26992  -0.25728  -0.25506  -0.24841  -0.24659
  Beta  occ. eigenvalues --   -0.24345  -0.24043  -0.23746  -0.23230  -0.22226
  Beta  occ. eigenvalues --   -0.18965  -0.15796  -0.14735  -0.14236  -0.12816
  Beta  occ. eigenvalues --   -0.12355
  Beta virt. eigenvalues --    0.06427   0.06994   0.07206   0.07419   0.08143
  Beta virt. eigenvalues --    0.08705   0.08980   0.09121   0.09309   0.09936
  Beta virt. eigenvalues --    0.10114   0.10439   0.10803   0.11355   0.11750

 Mulliken charges and spin densities:
               1          2
     1  C    0.676302  -1.203211
     2  C   -0.722179   0.476204
     3  C    0.474140  -0.654932
     4  N   -0.009661  -0.047716
     5  C    0.168880  -0.669066
     6  C    1.183352  -0.274918
     7  C   -0.558671  -0.662175
     8  C    0.270572  -0.000501
     9  C   -0.875710   0.500728
    10  C    0.009843  -0.342149
    11  C   -0.524390   0.162706
    12  C   -0.668909   0.383004
    13  C    0.633596  -0.222901
    14  S    0.294508  -0.429997
    15  C   -0.560767   0.313930
    16  C   -0.231466  -0.114706
    17  O   -0.108990   0.004067
    18  C   -0.068387  -0.161518
    19  H   -0.002343   0.128704
    20  H   -0.236661   0.382381
    21  H   -0.227340   0.377114
    22  H    0.035000   0.083984
    23  H   -0.097448   0.235120
    24  H   -0.143438   0.242768
    25  H   -0.338866   0.483742
    26  H    0.384760  -0.198839
    27  H   -0.331184   0.537180
    28  H   -0.144368   0.474453
    29  H    0.113898   0.062938
    30  H   -0.294430   0.482503
    31  H    0.003302   0.139403
    32  H    0.116060   0.018956
    33  H    0.059258   0.087936
    34  H   -0.283236   0.411549
    35  H    0.118515   0.143882
    36  H    0.086890   0.035742
    37  H    0.267414  -0.088797
    38  H    0.486170  -0.179107
    39  H    0.045981   0.081540
 Sum of Mulliken charges =  -1.00000   1.00000

 Dipole moment (field-independent basis, Debye):
    X=             -4.7136    Y=              3.2975    Z=              3.5200  Tot=              6.7440
 Quadrupole moment (field-independent basis, Debye-Ang):
   XX=           -179.9201   YY=           -157.4132   ZZ=           -163.7205
   XY=              6.0175   XZ=              3.5403   YZ=             -2.3021

 Summary of Natural Population Analysis:

                                       Natural Population
                Natural  -----------------------------------------------
    Atom  No    Charge         Core      Valence    Rydberg      Total
 -----------------------------------------------------------------------
      C    1   -0.28906      0.99967     2.28451    0.00488     3.28906
      C    2   -0.19244      0.99964     2.18425    0.00855     3.19244
      C    3   -0.08434      0.99962     2.07414    0.01058     3.08434
      N    4   -0.34059      0.99971     2.82905    0.01183     3.84059
      C    5   -0.01825      0.99952     2.00321    0.01552     3.01825
      C    6   -0.16489      0.99955     2.14927    0.01608     3.16489
      C    7   -0.20106      0.99958     2.19159    0.00990     3.20106
      C    8   -0.01721      0.99946     2.00603    0.01172     3.01721
      C    9   -0.08724      0.99950     2.07808    0.00965     3.08724
      C   10   -0.09655      0.99957     2.08759    0.00939     3.09655
      C   11   -0.09641      0.99957     2.08778    0.00906     3.09641
      C   12   -0.08422      0.99949     2.07489    0.00983     3.08422
      C   13   -0.01634      0.99944     2.00433    0.01256     3.01634
      S   14    0.10576      4.99956     2.87772    0.01696     7.89424
      C   15   -0.19959      0.99954     2.18745    0.01260     3.19959
      C   16   -0.00576      0.99960     1.99486    0.01131     3.00576
      O   17   -0.30170      0.99991     3.29409    0.00769     4.30170
      C   18   -0.01035      0.99959     1.99823    0.01253     3.01035
      H   19    0.09407      0.00000     0.40485    0.00109     0.40593
      H   20    0.09889      0.00000     0.40015    0.00096     0.40111
      H   21    0.09852      0.00000     0.40026    0.00122     0.40148
      H   22    0.09648      0.00000     0.40217    0.00135     0.40352
      H   23    0.09561      0.00000     0.40347    0.00093     0.40439
      H   24    0.09739      0.00000     0.40080    0.00181     0.40261
      H   25    0.08009      0.00000     0.41807    0.00185     0.41991
      H   26    0.17472      0.00000     0.32138    0.00390     0.32528
      H   27    0.09623      0.00000     0.39947    0.00430     0.40377
      H   28    0.11248      0.00000     0.38566    0.00186     0.38752
      H   29    0.10435      0.00000     0.39448    0.00117     0.39565
      H   30    0.11133      0.00000     0.38669    0.00198     0.38867
      H   31    0.09635      0.00000     0.40274    0.00091     0.40365
      H   32    0.09517      0.00000     0.40406    0.00077     0.40483
      H   33    0.09614      0.00000     0.40308    0.00078     0.40386
      H   34    0.09773      0.00000     0.40099    0.00128     0.40227
      H   35    0.10616      0.00000     0.39265    0.00119     0.39384
      H   36    0.07805      0.00000     0.42064    0.00131     0.42195
      H   37    0.08889      0.00000     0.40932    0.00179     0.41111
      H   38    0.10318      0.00000     0.39470    0.00212     0.39682
      H   39    0.07840      0.00000     0.42034    0.00126     0.42160
 =======================================================================
   * Total *    0.00000     21.99250    48.77302    0.23448    71.00000

 Normal termination of Gaussian 16 at Fri Dec 11 20:23:15 2020.
