 Gaussian 16, Revision A.03,

 -----------------------------------------------------------
 # opt freq B3LYP/6-31G(d) empiricaldispersion=gd3bj scf=xqc
 -----------------------------------------------------------

 ------------------------------
 CID_83223924_JID_8567_neutraal
 ------------------------------
 Symbolic Z-matrix:
 Charge =  0 Multiplicity = 1

 SCF Done:  E(RB3LYP) =  -767.061706593     A.U. after   14 cycles
 SCF Done:  E(RB3LYP) =  -767.068734111     A.U. after   12 cycles
 SCF Done:  E(RB3LYP) =  -767.068836165     A.U. after   12 cycles
 SCF Done:  E(RB3LYP) =  -767.071077548     A.U. after   12 cycles
 SCF Done:  E(RB3LYP) =  -767.071922374     A.U. after   11 cycles
 SCF Done:  E(RB3LYP) =  -767.072258485     A.U. after   11 cycles
 SCF Done:  E(RB3LYP) =  -767.072336476     A.U. after   10 cycles
 SCF Done:  E(RB3LYP) =  -767.072364973     A.U. after   10 cycles
 SCF Done:  E(RB3LYP) =  -767.072374025     A.U. after    9 cycles
 SCF Done:  E(RB3LYP) =  -767.072377224     A.U. after    9 cycles
 SCF Done:  E(RB3LYP) =  -767.072381669     A.U. after    9 cycles
 SCF Done:  E(RB3LYP) =  -767.072382139     A.U. after    9 cycles
 SCF Done:  E(RB3LYP) =  -767.072382468     A.U. after    9 cycles
 SCF Done:  E(RB3LYP) =  -767.072382570     A.U. after    7 cycles
 SCF Done:  E(RB3LYP) =  -767.072382597     A.U. after    7 cycles
 Optimization completed.
    -- Stationary point found.
 Normal termination of Gaussian 16 at Fri Dec 11 21:17:43 2020.

 --------------------------------------------------------------------
 #N Geom=AllCheck Guess=TCheck SCRF=Check GenChk RB3LYP/6-31G(d) Freq
 --------------------------------------------------------------------

 Structure from the checkpoint file:  "JID_8567.chk"
 ------------------------------
 CID_83223924_JID_8567_neutraal
 ------------------------------
 Charge =  0 Multiplicity = 1

 SCF Done:  E(RB3LYP) =  -767.072382597     A.U. after    1 cycles

  Exact polarizability: 218.007  -6.358 183.929  -1.151  -6.478 125.380
 Approx polarizability: 291.427 -16.522 275.278   1.741 -20.806 182.624

                      1                      2                      3
                      A                      A                      A
 Frequencies --     18.9507                37.1913                50.1555
 Red. masses --      2.8526                 3.1926                 3.0874
 Frc consts  --      0.0006                 0.0026                 0.0046
 IR Inten    --      0.1525                 0.1827                 0.2266

                      4                      5                      6
                      A                      A                      A
 Frequencies --     72.0331                99.2155               113.6874
 Red. masses --      3.3601                 3.5228                 3.1278
 Frc consts  --      0.0103                 0.0204                 0.0238
 IR Inten    --      1.0958                 0.2737                 3.1251

                      7                      8                      9
                      A                      A                      A
 Frequencies --    137.0962               153.9380               194.3801
 Red. masses --      2.4633                 2.8157                 2.6966
 Frc consts  --      0.0273                 0.0393                 0.0600
 IR Inten    --      0.5923                 0.9848                 0.9124

                     10                     11                     12
                      A                      A                      A
 Frequencies --    208.9862               216.3933               230.9807
 Red. masses --      3.5376                 3.1900                 1.0765
 Frc consts  --      0.0910                 0.0880                 0.0338
 IR Inten    --      0.6798                 0.5308                 0.2145

                     13                     14                     15
                      A                      A                      A
 Frequencies --    233.2934               244.0444               259.7563
 Red. masses --      3.1878                 1.0950                 1.3650
 Frc consts  --      0.1022                 0.0384                 0.0543
 IR Inten    --      1.6868                 0.0514                 1.3075

                     16                     17                     18
                      A                      A                      A
 Frequencies --    274.1595               283.2508               295.2768
 Red. masses --      1.9725                 2.4646                 1.1651
 Frc consts  --      0.0874                 0.1165                 0.0599
 IR Inten    --      0.5675                 2.6667                 0.1870

                     19                     20                     21
                      A                      A                      A
 Frequencies --    320.7030               351.2383               395.4876
 Red. masses --      3.6085                 2.9369                 1.8092
 Frc consts  --      0.2187                 0.2135                 0.1667
 IR Inten    --      6.4602                 2.5219                18.4375

                     22                     23                     24
                      A                      A                      A
 Frequencies --    405.1173               418.9662               437.6746
 Red. masses --      2.0842                 1.5186                 3.0501
 Frc consts  --      0.2015                 0.1571                 0.3442
 IR Inten    --      3.9653                49.6621                 3.8852

                     25                     26                     27
                      A                      A                      A
 Frequencies --    453.1970               512.3777               523.4076
 Red. masses --      2.8961                 3.3413                 1.4318
 Frc consts  --      0.3505                 0.5168                 0.2311
 IR Inten    --      7.4601                 5.6733               279.5541

                     28                     29                     30
                      A                      A                      A
 Frequencies --    563.6966               586.0601               622.6996
 Red. masses --      4.4822                 3.8354                 2.4395
 Frc consts  --      0.8391                 0.7762                 0.5573
 IR Inten    --     12.2426                36.1064                 0.6111

                     31                     32                     33
                      A                      A                      A
 Frequencies --    639.1651               703.6727               707.8060
 Red. masses --      2.3533                 8.7848                 3.0484
 Frc consts  --      0.5664                 2.5629                 0.8998
 IR Inten    --      1.3185                 3.8733                13.4188

                     34                     35                     36
                      A                      A                      A
 Frequencies --    713.8735               783.5342               796.3648
 Red. masses --      2.3194                 2.7347                 1.7606
 Frc consts  --      0.6964                 0.9892                 0.6579
 IR Inten    --      1.9643                11.0666                10.2568

                     37                     38                     39
                      A                      A                      A
 Frequencies --    816.5710               824.9165               851.1175
 Red. masses --      1.8516                 4.6614                 1.8070
 Frc consts  --      0.7274                 1.8689                 0.7712
 IR Inten    --      5.0692                36.5432                 4.1417

                     40                     41                     42
                      A                      A                      A
 Frequencies --    887.2246               898.6718               921.8160
 Red. masses --      2.4361                 2.3858                 2.0103
 Frc consts  --      1.1298                 1.1352                 1.0065
 IR Inten    --      4.2073                 0.7923                 2.4390

                     43                     44                     45
                      A                      A                      A
 Frequencies --    946.6285               965.4576               971.4547
 Red. masses --      1.1612                 1.9660                 1.7474
 Frc consts  --      0.6131                 1.0797                 0.9716
 IR Inten    --      1.8171                 2.6037                 3.6560

                     46                     47                     48
                      A                      A                      A
 Frequencies --    979.8763               993.8287               998.1375
 Red. masses --      1.5336                 2.1492                 7.0826
 Frc consts  --      0.8676                 1.2507                 4.1574
 IR Inten    --      0.0402                 0.1575                18.5963

                     49                     50                     51
                      A                      A                      A
 Frequencies --   1019.8501              1045.6856              1070.7172
 Red. masses --      2.4877                 2.1881                 1.6563
 Frc consts  --      1.5245                 1.4097                 1.1188
 IR Inten    --     14.9883                13.2519                10.7108

                     52                     53                     54
                      A                      A                      A
 Frequencies --   1075.2045              1079.9702              1113.0912
 Red. masses --      1.5948                 1.6530                 1.7316
 Frc consts  --      1.0863                 1.1359                 1.2640
 IR Inten    --      5.4930                12.2606                26.2030

                     55                     56                     57
                      A                      A                      A
 Frequencies --   1117.7418              1131.7465              1140.3181
 Red. masses --      1.5252                 2.3671                 1.8938
 Frc consts  --      1.1227                 1.7863                 1.4509
 IR Inten    --      4.6222                 0.1896                 9.0881

                     58                     59                     60
                      A                      A                      A
 Frequencies --   1157.1959              1180.4331              1196.2589
 Red. masses --      1.9087                 2.2617                 3.2983
 Frc consts  --      1.5059                 1.8568                 2.7810
 IR Inten    --     16.9381                 9.6832                27.3151

                     61                     62                     63
                      A                      A                      A
 Frequencies --   1214.4789              1232.1397              1249.8551
 Red. masses --      2.1486                 1.5771                 1.4805
 Frc consts  --      1.8672                 1.4106                 1.3627
 IR Inten    --      6.3587                19.7091                14.0911

                     64                     65                     66
                      A                      A                      A
 Frequencies --   1293.0065              1315.1319              1317.2235
 Red. masses --      1.8580                 1.7682                 1.7326
 Frc consts  --      1.8302                 1.8019                 1.7712
 IR Inten    --    119.9228                 3.5053                37.4411

                     67                     68                     69
                      A                      A                      A
 Frequencies --   1331.5982              1335.0509              1356.3724
 Red. masses --      1.5907                 1.5349                 1.3944
 Frc consts  --      1.6618                 1.6118                 1.5114
 IR Inten    --      2.5637                14.9589                 6.0369

                     70                     71                     72
                      A                      A                      A
 Frequencies --   1361.9398              1370.1999              1373.4575
 Red. masses --      1.6334                 1.3076                 1.3974
 Frc consts  --      1.7851                 1.4464                 1.5531
 IR Inten    --      7.0412                 2.1054                 0.1714

                     73                     74                     75
                      A                      A                      A
 Frequencies --   1397.3653              1413.1029              1417.2455
 Red. masses --      1.3824                 1.3859                 1.2401
 Frc consts  --      1.5904                 1.6306                 1.4675
 IR Inten    --     23.0533                15.4536                 3.4606

                     76                     77                     78
                      A                      A                      A
 Frequencies --   1421.1893              1426.5181              1437.8065
 Red. masses --      1.3108                 1.6622                 1.3119
 Frc consts  --      1.5599                 1.9929                 1.5979
 IR Inten    --     34.9667                13.3978                35.8743

                     79                     80                     81
                      A                      A                      A
 Frequencies --   1442.7291              1455.9204              1501.7147
 Red. masses --      1.2659                 2.3383                 2.2737
 Frc consts  --      1.5525                 2.9203                 3.0210
 IR Inten    --      2.8500                50.6099                19.5907

                     82                     83                     84
                      A                      A                      A
 Frequencies --   1505.3816              1512.5855              1515.9187
 Red. masses --      1.4715                 1.7691                 1.0444
 Frc consts  --      1.9648                 2.3847                 1.4141
 IR Inten    --     33.1060               174.8192                 1.2739

                     85                     86                     87
                      A                      A                      A
 Frequencies --   1516.9927              1523.5776              1525.4554
 Red. masses --      1.2940                 1.0485                 1.2408
 Frc consts  --      1.7545                 1.4341                 1.7011
 IR Inten    --     59.6874                 0.5960                66.3703

                     88                     89                     90
                      A                      A                      A
 Frequencies --   1529.8286              1530.7464              1533.3627
 Red. masses --      1.0565                 1.0647                 1.0488
 Frc consts  --      1.4568                 1.4699                 1.4529
 IR Inten    --      4.7501                 1.8715                13.5202

                     91                     92                     93
                      A                      A                      A
 Frequencies --   1534.1347              1538.4946              1546.0506
 Red. masses --      1.0748                 1.0956                 1.0918
 Frc consts  --      1.4905                 1.5279                 1.5376
 IR Inten    --     22.9488                 6.0515                 3.5309

                     94                     95                     96
                      A                      A                      A
 Frequencies --   1604.8668              1642.3310              1671.7227
 Red. masses --      6.9622                 4.1076                 1.4404
 Frc consts  --     10.5651                 6.5277                 2.3716
 IR Inten    --    219.3332               657.6051               387.0524

                     97                     98                     99
                      A                      A                      A
 Frequencies --   3027.8441              3029.0830              3046.2361
 Red. masses --      1.0809                 1.0661                 1.0347
 Frc consts  --      5.8384                 5.7635                 5.6571
 IR Inten    --     16.5158                30.5573                34.3782

                    100                    101                    102
                      A                      A                      A
 Frequencies --   3048.8540              3049.7883              3049.8921
 Red. masses --      1.0374                 1.0387                 1.0358
 Frc consts  --      5.6814                 5.6921                 5.6767
 IR Inten    --     23.4803                22.0002                32.7263

                    103                    104                    105
                      A                      A                      A
 Frequencies --   3063.0619              3065.1351              3072.7755
 Red. masses --      1.0642                 1.0653                 1.0976
 Frc consts  --      5.8827                 5.8970                 6.1058
 IR Inten    --     26.4802                34.1989                30.9289

                    106                    107                    108
                      A                      A                      A
 Frequencies --   3076.8562              3107.1945              3108.9819
 Red. masses --      1.0848                 1.0987                 1.1012
 Frc consts  --      6.0509                 6.2496                 6.2715
 IR Inten    --      7.7691                22.9491                45.3045

                    109                    110                    111
                      A                      A                      A
 Frequencies --   3110.9876              3111.8865              3113.5794
 Red. masses --      1.1029                 1.1004                 1.1024
 Frc consts  --      6.2890                 6.2783                 6.2965
 IR Inten    --     17.9488                29.2194                61.4237

                    112                    113                    114
                      A                      A                      A
 Frequencies --   3119.4803              3129.0606              3135.3343
 Red. masses --      1.1042                 1.1023                 1.1009
 Frc consts  --      6.3307                 6.3591                 6.3765
 IR Inten    --     47.3845                 4.4424                42.9320

                    115                    116                    117
                      A                      A                      A
 Frequencies --   3135.5649              3139.2507              3144.3237
 Red. masses --      1.0982                 1.1007                 1.0914
 Frc consts  --      6.3615                 6.3912                 6.3576
 IR Inten    --     27.4513                31.6971                13.5747

                    118                    119                    120
                      A                      A                      A
 Frequencies --   3246.0618              3572.1573              3686.1638
 Red. masses --      1.0900                 1.0465                 1.1007
 Frc consts  --      6.7672                 7.8677                 8.8117
 IR Inten    --     11.0282                32.1702                18.7067

 - Thermochemistry -
 -------------------
 Temperature   298.150 Kelvin.  Pressure   1.00000 Atm.
 Atom     1 has atomic number  6 and mass  12.00000

 Molecular mass:   248.20010 amu.
 Principal axes and moments of inertia in atomic units:
                           1         2         3
     Eigenvalues --  2898.695696514.090468085.89080
           X            0.99988   0.01534   0.00040
           Y           -0.01535   0.99984   0.00933
           Z           -0.00025  -0.00933   0.99996
 This molecule is an asymmetric top.
 Rotational symmetry number  1.
 Warning -- assumption of classical behavior for rotation
           may cause significant error
 Rotational temperatures (Kelvin)      0.02988     0.01330     0.01071
 Rotational constants (GHZ):           0.62260     0.27705     0.22320
 Zero-point vibrational energy     985285.0 (Joules/Mol)
                                  235.48877 (Kcal/Mol)
 Warning -- explicit consideration of  29 degrees of freedom as
           vibrations may cause significant error
 Vibrational temperatures:     27.27    53.51    72.16   103.64   142.75
          (Kelvin)            163.57   197.25   221.48   279.67   300.68
                              311.34   332.33   335.66   351.13   373.73
                              394.45   407.53   424.84   461.42   505.35
                              569.02   582.87   602.80   629.72   652.05
                              737.20   753.07   811.03   843.21   895.93
                              919.62  1012.43  1018.38  1027.10  1127.33
                             1145.79  1174.86  1186.87  1224.57  1276.52
                             1292.99  1326.29  1361.99  1389.08  1397.71
                             1409.82  1429.90  1436.10  1467.34  1504.51
                             1540.52  1546.98  1553.84  1601.49  1608.18
                             1628.33  1640.66  1664.95  1698.38  1721.15
                             1747.36  1772.77  1798.26  1860.35  1892.18
                             1895.19  1915.87  1920.84  1951.52  1959.53
                             1971.41  1976.10  2010.50  2033.14  2039.10
                             2044.77  2052.44  2068.68  2075.77  2094.74
                             2160.63  2165.91  2176.27  2181.07  2182.61
                             2192.09  2194.79  2201.08  2202.40  2206.17
                             2207.28  2213.55  2224.42  2309.05  2362.95
                             2405.24  4356.39  4358.17  4382.85  4386.62
                             4387.97  4388.11  4407.06  4410.05  4421.04
                             4426.91  4470.56  4473.13  4476.02  4477.31
                             4479.75  4488.24  4502.02  4511.05  4511.38
                             4516.68  4523.98  4670.36  5139.54  5303.57

 Zero-point correction=                           0.375275 (Hartree/Particle)
 Thermal correction to Energy=                    0.394114
 Thermal correction to Enthalpy=                  0.395058
 Thermal correction to Gibbs Free Energy=         0.328018
 Sum of electronic and zero-point Energies=           -766.697107
 Sum of electronic and thermal Energies=              -766.678269
 Sum of electronic and thermal Enthalpies=            -766.677324
 Sum of electronic and thermal Free Energies=         -766.744365

                     E (Thermal)             CV                S
                      KCal/Mol        Cal/Mol-Kelvin    Cal/Mol-Kelvin
 Total                  247.310             72.444            141.098
 Electronic               0.000              0.000              0.000
 Translational            0.889              2.981             42.428
 Rotational               0.889              2.981             33.390
 Vibrational            245.533             66.482             65.281
 Vibration     1          0.593              1.986              6.741
 Vibration     2          0.594              1.982              5.403
 Vibration     3          0.595              1.978              4.811
 Vibration     4          0.598              1.967              4.097
 Vibration     5          0.604              1.950              3.470
 Vibration     6          0.607              1.938              3.205
 Vibration     7          0.614              1.916              2.844
 Vibration     8          0.619              1.898              2.623
 Vibration     9          0.635              1.848              2.186
 Vibration    10          0.642              1.827              2.053
 Vibration    11          0.645              1.816              1.989
 Vibration    12          0.653              1.794              1.871
 Vibration    13          0.654              1.790              1.853
 Vibration    14          0.659              1.773              1.773
 Vibration    15          0.668              1.746              1.663
 Vibration    16          0.676              1.721              1.570
 Vibration    17          0.682              1.705              1.514
 Vibration    18          0.689              1.683              1.444
 Vibration    19          0.706              1.634              1.307
 Vibration    20          0.728              1.573              1.161
 Vibration    21          0.762              1.480              0.979
 Vibration    22          0.770              1.459              0.944
 Vibration    23          0.782              1.429              0.895
 Vibration    24          0.798              1.388              0.834
 Vibration    25          0.812              1.354              0.786
 Vibration    26          0.867              1.223              0.628
 Vibration    27          0.878              1.198              0.602
 Vibration    28          0.919              1.110              0.517
 Vibration    29          0.943              1.062              0.474

 Optimization completed.
    -- Stationary point found.
 Normal termination of Gaussian 16 at Fri Dec 11 21:38:33 2020.

 ----------------------------------------------------------------------
 # B3LYP/6-311++G(d,p) empiricaldispersion=gd3bj scf=xqc pop=npa geom=c
 heck
 ----------------------------------------------------------------------

 --------------------------------------
 CID_83223924_JID_8567_Energie_neutraal
 --------------------------------------
 Structure from the checkpoint file:  "JID_8567.chk"
 Charge =  0 Multiplicity = 1

 SCF Done:  E(RB3LYP) =  -767.282042929     A.U. after   14 cycles
 Normal termination of Gaussian 16 at Fri Dec 11 21:48:12 2020.

 ----------------------------------------------------------------------
 # B3LYP/6-311++G(d,p) empiricaldispersion=gd3bj scf=xqc pop=npa geom=c
 heck
 ----------------------------------------------------------------------

 ------------------------------------
 CID_83223924_JID_8567_Energie_kation
 ------------------------------------
 Structure from the checkpoint file:  "JID_8567.chk"
 Charge =  1 Multiplicity = 2

 SCF Done:  E(UB3LYP) =  -767.010876422     A.U. after   23 cycles
 Normal termination of Gaussian 16 at Fri Dec 11 22:10:49 2020.
 Gaussian 16:  ES64L-G16RevA.03 25-Dec-2016

 ----------------------------------------------------------------------
 # B3LYP/6-311++G(d,p) empiricaldispersion=gd3bj scf=xqc pop=npa geom=c
 heck
 ----------------------------------------------------------------------

 -----------------------------------
 CID_83223924_JID_8567_Energie_anion
 -----------------------------------
 Structure from the checkpoint file:  "JID_8567.chk"
 Charge = -1 Multiplicity = 2

                         Standard orientation:
 ---------------------------------------------------------------------
 Center     Atomic      Atomic             Coordinates (Angstroms)
 Number     Number       Type             X           Y           Z
 ---------------------------------------------------------------------
      1          6           0        2.367079    2.299030    1.467691
      2          6           0        3.224102    1.210978    0.821210
      3          6           0        2.625938    0.487384   -0.399262
      4          6           0        3.634359   -0.551531   -0.957907
      5          6           0        2.803074   -1.807993   -1.247526
      6          6           0        1.683536   -1.757825   -0.196258
      7          7           0        1.426141   -0.307711   -0.088146
      8          6           0        0.145559    0.174306   -0.156994
      9          7           0       -0.840274   -0.727935    0.082520
     10          6           0       -2.097092   -0.288366    0.024485
     11          7           0       -2.497341    0.962261   -0.235131
     12          6           0       -1.518962    1.852087   -0.482402
     13          6           0       -0.163726    1.510078   -0.457883
     14          7           0       -1.934196    3.125104   -0.808814
     15          6           0       -3.190680   -1.304338    0.291386
     16          6           0       -4.006672   -0.905083    1.530635
     17          6           0       -4.095367   -1.457115   -0.941183
     18          6           0        2.057939   -2.374758    1.152886
     19          1           0        2.166896    3.122399    0.771878
     20          1           0        2.883443    2.722022    2.336747
     21          1           0        1.405465    1.902451    1.805193
     22          1           0        4.183482    1.643834    0.503680
     23          1           0        3.463091    0.447388    1.572352
     24          1           0        2.375767    1.222513   -1.175902
     25          1           0        4.156131   -0.171190   -1.840673
     26          1           0        4.397139   -0.764871   -0.200542
     27          1           0        3.392287   -2.728899   -1.193950
     28          1           0        2.360048   -1.748939   -2.248254
     29          1           0        0.768517   -2.232173   -0.550874
     30          1           0        0.594348    2.251298   -0.668345
     31          1           0       -2.896856    3.316416   -0.563600
     32          1           0       -1.289851    3.882940   -0.631802
     33          1           0       -2.685174   -2.255952    0.486490
     34          1           0       -4.481260    0.068486    1.372667
     35          1           0       -4.788510   -1.646515    1.732297
     36          1           0       -3.367607   -0.832600    2.417931
     37          1           0       -3.519946   -1.779489   -1.816326
     38          1           0       -4.878702   -2.200896   -0.754379
     39          1           0       -4.571165   -0.501123   -1.181361
     40          1           0        1.249668   -2.205911    1.870260
     41          1           0        2.210816   -3.455622    1.049982
     42          1           0        2.977133   -1.938726    1.560258
 ---------------------------------------------------------------------

 SCF Done:  E(UB3LYP) =  -767.270247328     A.U. after   33 cycles
 SCF Done:  E(UB3LYP) =  -767.270247328     a.u. after    1 cycles

 The electronic state is 2-A.
 Alpha  occ. eigenvalues --  -14.23484 -14.22232 -14.19431 -14.19332 -10.15042
 Alpha  occ. eigenvalues --  -10.14961 -10.13689 -10.11462 -10.11015 -10.08460
 Alpha  occ. eigenvalues --  -10.07759 -10.07735 -10.07294 -10.07161 -10.07099
 Alpha  occ. eigenvalues --  -10.06820 -10.06396 -10.05879  -0.89492  -0.86256
 Alpha  occ. eigenvalues --   -0.82002  -0.76041  -0.71591  -0.69693  -0.69519
 Alpha  occ. eigenvalues --   -0.65165  -0.64387  -0.59675  -0.59124  -0.56265
 Alpha  occ. eigenvalues --   -0.54665  -0.51697  -0.50172  -0.49346  -0.45933
 Alpha  occ. eigenvalues --   -0.44553  -0.43016  -0.40389  -0.38660  -0.36951
 Alpha  occ. eigenvalues --   -0.36311  -0.35504  -0.35047  -0.34819  -0.34413
 Alpha  occ. eigenvalues --   -0.33748  -0.32397  -0.31990  -0.31411  -0.31082
 Alpha  occ. eigenvalues --   -0.29873  -0.29761  -0.28922  -0.28147  -0.26836
 Alpha  occ. eigenvalues --   -0.26078  -0.25767  -0.25035  -0.24509  -0.24238
 Alpha  occ. eigenvalues --   -0.23928  -0.23482  -0.22984  -0.20016  -0.19181
 Alpha  occ. eigenvalues --   -0.15432  -0.14025  -0.11712   0.04133
 Alpha virt. eigenvalues --    0.05863   0.06362   0.07134   0.07302   0.08036
 Alpha virt. eigenvalues --    0.08212   0.08761   0.09003   0.09181   0.09854
 Alpha virt. eigenvalues --    0.10123   0.10418   0.10520   0.10758   0.12033

  Beta  occ. eigenvalues --  -14.23484 -14.22179 -14.19430 -14.19322 -10.15039
  Beta  occ. eigenvalues --  -10.14961 -10.13687 -10.11452 -10.11012 -10.08458
  Beta  occ. eigenvalues --  -10.07740 -10.07717 -10.07276 -10.07157 -10.07093
  Beta  occ. eigenvalues --  -10.06805 -10.06379 -10.05847  -0.89482  -0.86239
  Beta  occ. eigenvalues --   -0.81958  -0.76013  -0.71569  -0.69676  -0.69495
  Beta  occ. eigenvalues --   -0.65136  -0.64356  -0.59666  -0.59086  -0.56242
  Beta  occ. eigenvalues --   -0.54626  -0.51633  -0.50133  -0.49305  -0.45906
  Beta  occ. eigenvalues --   -0.44521  -0.42989  -0.40337  -0.38634  -0.36916
  Beta  occ. eigenvalues --   -0.36279  -0.35482  -0.35030  -0.34796  -0.34393
  Beta  occ. eigenvalues --   -0.33728  -0.32363  -0.31968  -0.31372  -0.31069
  Beta  occ. eigenvalues --   -0.29864  -0.29721  -0.28898  -0.28127  -0.26824
  Beta  occ. eigenvalues --   -0.26053  -0.25739  -0.25006  -0.24501  -0.24215
  Beta  occ. eigenvalues --   -0.23894  -0.23453  -0.22956  -0.19993  -0.19167
  Beta  occ. eigenvalues --   -0.15420  -0.13994  -0.11692
  Beta virt. eigenvalues --    0.06025   0.06546   0.07141   0.07475   0.07924
  Beta virt. eigenvalues --    0.08240   0.08340   0.08799   0.09287   0.09405
  Beta virt. eigenvalues --    0.09941   0.10478   0.10640   0.10723   0.10942

 Mulliken charges and spin densities:
               1          2
     1  C    0.660479  -1.321418
     2  C   -0.143197  -0.037732
     3  C   -0.552709   0.685187
     4  C    0.673442  -1.358310
     5  C   -0.197171  -0.150705
     6  C   -0.679136   0.527994
     7  N    0.570110  -0.038998
     8  C    0.552115  -1.028494
     9  N    0.009012   0.028648
    10  C   -0.992677   0.009556
    11  N    0.072711  -0.046808
    12  C   -0.958415   1.057359
    13  C    0.599825  -0.568357
    14  N   -0.290989  -0.019909
    15  C    0.818224  -0.213277
    16  C   -0.414162  -0.208206
    17  C   -0.548893  -0.066019
    18  C    0.489561  -0.943577
    19  H   -0.215110   0.373432
    20  H   -0.302672   0.444543
    21  H    0.093871   0.084882
    22  H   -0.234064   0.385817
    23  H    0.113376  -0.000478
    24  H   -0.093849   0.316509
    25  H   -0.333673   0.500264
    26  H   -0.049069   0.210830
    27  H   -0.189186   0.362379
    28  H   -0.010329   0.165033
    29  H    0.226250   0.006504
    30  H   -0.148216   0.296790
    31  H   -0.049211   0.328197
    32  H   -0.379877   0.644210
    33  H    0.133893   0.025522
    34  H    0.124624   0.043092
    35  H    0.105391   0.029752
    36  H    0.065435   0.063145
    37  H    0.081625   0.049644
    38  H    0.109622   0.023517
    39  H    0.134925   0.035469
    40  H    0.115893   0.056527
    41  H   -0.011217   0.135938
    42  H    0.043437   0.111549
 Sum of Mulliken charges =  -1.00000   1.00000

 Dipole moment (field-independent basis, Debye):
    X=             -3.3992    Y=             -6.4105    Z=              1.2217  Tot=              7.3581
 Quadrupole moment (field-independent basis, Debye-Ang):
   XX=           -182.6186   YY=           -178.4148   ZZ=           -146.6728
   XY=              2.2143   XZ=              2.8070   YZ=              0.7809

 Summary of Natural Population Analysis:

                                       Natural Population
                Natural  -----------------------------------------------
    Atom  No    Charge         Core      Valence    Rydberg      Total
 -----------------------------------------------------------------------
      C    1   -0.28612      0.99966     2.28106    0.00540     3.28612
      C    2   -0.18819      0.99961     2.18018    0.00840     3.18819
      C    3   -0.00265      0.99958     1.99036    0.01271     3.00265
      C    4   -0.19095      0.99962     2.18278    0.00855     3.19095
      C    5   -0.19203      0.99961     2.18421    0.00821     3.19203
      C    6   -0.00669      0.99959     1.99428    0.01281     3.00669
      N    7   -0.25148      0.99962     2.73928    0.01258     3.75148
      C    8    0.23054      0.99951     1.75572    0.01423     2.76946
      N    9   -0.29647      0.99964     2.78791    0.00892     3.79647
      C   10    0.23934      0.99959     1.74215    0.01893     2.76066
      N   11   -0.30053      0.99964     2.79079    0.01010     3.80053
      C   12    0.21541      0.99955     1.76978    0.01527     2.78459
      C   13   -0.19449      0.99947     2.18666    0.00836     3.19449
      N   14   -0.38891      0.99970     2.87956    0.00965     3.88891
      C   15   -0.12883      0.99957     2.11952    0.00973     3.12883
      C   16   -0.28119      0.99965     2.27702    0.00452     3.28119
      C   17   -0.28135      0.99965     2.27718    0.00452     3.28135
      C   18   -0.28722      0.99963     2.28271    0.00488     3.28722
      H   19    0.09886      0.00000     0.39938    0.00176     0.40114
      H   20    0.09865      0.00000     0.40050    0.00085     0.40135
      H   21    0.10094      0.00000     0.39763    0.00143     0.39906
      H   22    0.09697      0.00000     0.40182    0.00121     0.40303
      H   23    0.09335      0.00000     0.40523    0.00142     0.40665
      H   24    0.09716      0.00000     0.40057    0.00228     0.40284
      H   25    0.10607      0.00000     0.39270    0.00122     0.39393
      H   26    0.09615      0.00000     0.40237    0.00148     0.40385
      H   27    0.10130      0.00000     0.39778    0.00092     0.39870
      H   28    0.09984      0.00000     0.39903    0.00113     0.40016
      H   29    0.11231      0.00000     0.38609    0.00160     0.38769
      H   30    0.11074      0.00000     0.38692    0.00234     0.38926
      H   31    0.19186      0.00000     0.30580    0.00234     0.30814
      H   32    0.19395      0.00000     0.30001    0.00604     0.30605
      H   33    0.10142      0.00000     0.39694    0.00164     0.39858
      H   34    0.10437      0.00000     0.39453    0.00110     0.39563
      H   35    0.09269      0.00000     0.40643    0.00088     0.40731
      H   36    0.10013      0.00000     0.39901    0.00086     0.39987
      H   37    0.09955      0.00000     0.39963    0.00082     0.40045
      H   38    0.09274      0.00000     0.40639    0.00087     0.40726
      H   39    0.10457      0.00000     0.39439    0.00103     0.39543
      H   40    0.10631      0.00000     0.39267    0.00103     0.39369
      H   41    0.09613      0.00000     0.40298    0.00089     0.40387
      H   42    0.09576      0.00000     0.40304    0.00120     0.40424
 =======================================================================
   * Total *    0.00000     17.99289    49.79296    0.21415    68.00000

 Normal termination of Gaussian 16 at Fri Dec 11 22:43:11 2020.
