 Gaussian 16, Revision A.03,

 -----------------------------------------------------------
 # opt freq B3LYP/6-31G(d) empiricaldispersion=gd3bj scf=xqc
 -----------------------------------------------------------

 ------------------------------
 CID_69589029_JID_8474_neutraal
 ------------------------------
 Symbolic Z-matrix:
 Charge =  0 Multiplicity = 1

 SCF Done:  E(RB3LYP) =  -863.789885617     A.U. after   14 cycles
 SCF Done:  E(RB3LYP) =  -863.793796915     A.U. after   12 cycles
 SCF Done:  E(RB3LYP) =  -863.792602411     A.U. after   13 cycles
 SCF Done:  E(RB3LYP) =  -863.794778312     A.U. after   11 cycles
 SCF Done:  E(RB3LYP) =  -863.794879484     A.U. after   11 cycles
 SCF Done:  E(RB3LYP) =  -863.794926114     A.U. after   11 cycles
 SCF Done:  E(RB3LYP) =  -863.795003232     A.U. after   10 cycles
 SCF Done:  E(RB3LYP) =  -863.795030637     A.U. after   11 cycles
 SCF Done:  E(RB3LYP) =  -863.795034478     A.U. after    9 cycles
 SCF Done:  E(RB3LYP) =  -863.795036184     A.U. after    9 cycles
 SCF Done:  E(RB3LYP) =  -863.795037179     A.U. after    9 cycles
 SCF Done:  E(RB3LYP) =  -863.795037793     A.U. after    9 cycles
 SCF Done:  E(RB3LYP) =  -863.795038135     A.U. after    9 cycles
 SCF Done:  E(RB3LYP) =  -863.795038205     A.U. after    8 cycles
 SCF Done:  E(RB3LYP) =  -863.795038214     A.U. after    6 cycles
 Optimization completed.
    -- Stationary point found.
 Normal termination of Gaussian 16 at Fri Dec 11 20:50:00 2020.

 --------------------------------------------------------------------
 #N Geom=AllCheck Guess=TCheck SCRF=Check GenChk RB3LYP/6-31G(d) Freq
 --------------------------------------------------------------------

 Structure from the checkpoint file:  "JID_8474.chk"
 ------------------------------
 CID_69589029_JID_8474_neutraal
 ------------------------------
 Charge =  0 Multiplicity = 1

 SCF Done:  E(RB3LYP) =  -863.795038214     A.U. after    1 cycles

  Exact polarizability: 171.987   3.583 142.114  -2.115  -2.895 131.072
 Approx polarizability: 208.413   9.479 195.132  -8.449 -16.330 211.193

                      1                      2                      3
                      A                      A                      A
 Frequencies --     20.5885                27.4447                54.6476
 Red. masses --      4.5925                 3.9355                 3.0834
 Frc consts  --      0.0011                 0.0017                 0.0054
 IR Inten    --      0.7393                 0.1875                 0.2746

                      4                      5                      6
                      A                      A                      A
 Frequencies --     65.1921                84.7856                95.0266
 Red. masses --      3.3983                 4.8066                 4.0812
 Frc consts  --      0.0085                 0.0204                 0.0217
 IR Inten    --      1.1426                 1.4059                 1.8275

                      7                      8                      9
                      A                      A                      A
 Frequencies --    110.3702               118.1221               142.7633
 Red. masses --      4.3389                 4.9518                 2.9893
 Frc consts  --      0.0311                 0.0407                 0.0359
 IR Inten    --      1.0157                 0.1015                 1.8891

                     10                     11                     12
                      A                      A                      A
 Frequencies --    158.7643               216.9959               233.9351
 Red. masses --      2.4975                 2.2569                 1.4507
 Frc consts  --      0.0371                 0.0626                 0.0468
 IR Inten    --      0.1193                 0.5820                 1.7545

                     13                     14                     15
                      A                      A                      A
 Frequencies --    237.8622               253.7125               295.8081
 Red. masses --      1.4222                 2.3756                 2.5479
 Frc consts  --      0.0474                 0.0901                 0.1314
 IR Inten    --      2.0710                 0.3655                 0.9239

                     16                     17                     18
                      A                      A                      A
 Frequencies --    312.5138               336.5492               352.7564
 Red. masses --      2.4504                 2.5298                 3.5828
 Frc consts  --      0.1410                 0.1688                 0.2627
 IR Inten    --      1.4310                 9.7458                27.6234

                     19                     20                     21
                      A                      A                      A
 Frequencies --    373.2292               432.9200               443.8423
 Red. masses --      2.7037                 4.2429                 3.3098
 Frc consts  --      0.2219                 0.4685                 0.3842
 IR Inten    --      2.3854                 4.2281                 7.4460

                     22                     23                     24
                      A                      A                      A
 Frequencies --    452.7038               494.5864               522.9364
 Red. masses --      3.5512                 3.6235                 3.9691
 Frc consts  --      0.4288                 0.5222                 0.6395
 IR Inten    --      4.6168                 1.0039                14.6468

                     25                     26                     27
                      A                      A                      A
 Frequencies --    556.8508               593.7665               639.5032
 Red. masses --      3.3691                 3.3457                 2.9563
 Frc consts  --      0.6155                 0.6950                 0.7123
 IR Inten    --      1.3488                 5.0348                 4.2110

                     28                     29                     30
                      A                      A                      A
 Frequencies --    747.9260               755.3751               766.7347
 Red. masses --      2.6725                 3.2745                 5.1407
 Frc consts  --      0.8808                 1.1008                 1.7806
 IR Inten    --      6.4769                 6.4604                 6.0276

                     31                     32                     33
                      A                      A                      A
 Frequencies --    772.8125               799.9355               807.2649
 Red. masses --      4.5202                 1.8993                 1.7128
 Frc consts  --      1.5906                 0.7161                 0.6576
 IR Inten    --     11.6395                 7.0967                 4.3532

                     34                     35                     36
                      A                      A                      A
 Frequencies --    830.3972               849.5325               862.1559
 Red. masses --      1.8886                 2.2524                 2.7221
 Frc consts  --      0.7673                 0.9578                 1.1921
 IR Inten    --      2.0528                 1.2206                 3.8907

                     37                     38                     39
                      A                      A                      A
 Frequencies --    876.9958               888.2563               894.1783
 Red. masses --      2.6142                 1.7742                 2.4418
 Frc consts  --      1.1846                 0.8247                 1.1503
 IR Inten    --     11.6941                 1.3630                 9.5637

                     40                     41                     42
                      A                      A                      A
 Frequencies --    898.6712               952.4691               981.0970
 Red. masses --      2.2175                 2.6933                 2.3369
 Frc consts  --      1.0552                 1.4396                 1.3253
 IR Inten    --      4.6894                 7.8363                15.3064

                     43                     44                     45
                      A                      A                      A
 Frequencies --    995.4926              1000.3458              1025.1951
 Red. masses --      2.1243                 2.1381                 2.1624
 Frc consts  --      1.2403                 1.2606                 1.3390
 IR Inten    --      4.8485                 2.7267                10.2672

                     46                     47                     48
                      A                      A                      A
 Frequencies --   1039.7851              1065.9429              1067.3022
 Red. masses --      2.7950                 2.9230                 2.4607
 Frc consts  --      1.7804                 1.9568                 1.6515
 IR Inten    --      5.1357                32.7315                78.8643

                     49                     50                     51
                      A                      A                      A
 Frequencies --   1095.6357              1120.2946              1131.6946
 Red. masses --      1.6016                 2.6116                 1.9546
 Frc consts  --      1.1327                 1.9312                 1.4749
 IR Inten    --      6.5065                58.0487                55.5658

                     52                     53                     54
                      A                      A                      A
 Frequencies --   1136.7259              1145.4835              1153.5714
 Red. masses --      2.0023                 2.1611                 2.0130
 Frc consts  --      1.5243                 1.6707                 1.5783
 IR Inten    --     48.3339               130.4943                30.2526

                     55                     56                     57
                      A                      A                      A
 Frequencies --   1184.2155              1209.5181              1210.0904
 Red. masses --      1.3359                 1.7469                 1.7844
 Frc consts  --      1.1038                 1.5057                 1.5395
 IR Inten    --     44.4488                14.1178                50.3634

                     58                     59                     60
                      A                      A                      A
 Frequencies --   1220.1824              1234.6439              1248.1879
 Red. masses --      1.5781                 2.1579                 2.2042
 Frc consts  --      1.3843                 1.9380                 2.0233
 IR Inten    --    146.6209               257.2220                31.0954

                     61                     62                     63
                      A                      A                      A
 Frequencies --   1270.1542              1285.0041              1303.6774
 Red. masses --      1.4335                 1.3408                 1.5108
 Frc consts  --      1.3626                 1.3044                 1.5129
 IR Inten    --     30.1099                44.5544                 8.8828

                     64                     65                     66
                      A                      A                      A
 Frequencies --   1322.4341              1335.7951              1343.9134
 Red. masses --      1.5865                 1.4188                 1.1424
 Frc consts  --      1.6347                 1.4916                 1.2157
 IR Inten    --     14.7315                13.7083                17.3404

                     67                     68                     69
                      A                      A                      A
 Frequencies --   1345.9070              1355.7922              1365.6390
 Red. masses --      1.1090                 1.5036                 1.5393
 Frc consts  --      1.1836                 1.6285                 1.6914
 IR Inten    --      6.2811                72.8425               158.8254

                     70                     71                     72
                      A                      A                      A
 Frequencies --   1379.1449              1388.8663              1403.0838
 Red. masses --      1.4205                 1.5972                 1.4941
 Frc consts  --      1.5918                 1.8153                 1.7331
 IR Inten    --     17.3531                18.2449                49.4454

                     73                     74                     75
                      A                      A                      A
 Frequencies --   1408.5158              1417.0142              1421.7185
 Red. masses --      1.4692                 1.3312                 1.3467
 Frc consts  --      1.7173                 1.5748                 1.6038
 IR Inten    --      1.6098                 2.7755                19.0786

                     76                     77                     78
                      A                      A                      A
 Frequencies --   1437.2060              1444.2879              1461.2908
 Red. masses --      1.4478                 1.3379                 2.3654
 Frc consts  --      1.7619                 1.6443                 2.9760
 IR Inten    --    119.9201                11.1017               200.7909

                     79                     80                     81
                      A                      A                      A
 Frequencies --   1514.6328              1515.5034              1516.1360
 Red. masses --      1.0558                 1.0896                 1.0514
 Frc consts  --      1.4271                 1.4745                 1.4240
 IR Inten    --     15.3371                 4.2924                 8.9462

                     82                     83                     84
                      A                      A                      A
 Frequencies --   1519.3162              1519.3775              1520.5137
 Red. masses --      1.0891                 1.0840                 1.0785
 Frc consts  --      1.4812                 1.4744                 1.4691
 IR Inten    --     21.8180                 6.1024                 1.2295

                     85                     86                     87
                      A                      A                      A
 Frequencies --   1527.1087              1538.3576              1539.3761
 Red. masses --      1.0937                 1.0567                 1.0607
 Frc consts  --      1.5027                 1.4733                 1.4810
 IR Inten    --      6.4247                 5.5533                11.8144

                     88                     89                     90
                      A                      A                      A
 Frequencies --   1540.7878              1794.8047              1820.4973
 Red. masses --      1.0915                11.3814                11.6090
 Frc consts  --      1.5267                21.6014                22.6687
 IR Inten    --      6.0103               277.4767               239.5305

                     91                     92                     93
                      A                      A                      A
 Frequencies --   3039.6914              3047.8308              3053.1452
 Red. masses --      1.0668                 1.0613                 1.0629
 Frc consts  --      5.8073                 5.8086                 5.8378
 IR Inten    --     17.5271                31.8192                25.6663

                     94                     95                     96
                      A                      A                      A
 Frequencies --   3059.2923              3061.7091              3071.6938
 Red. masses --      1.0366                 1.0362                 1.0832
 Frc consts  --      5.7161                 5.7228                 6.0216
 IR Inten    --     20.3594                17.9960                11.4850

                     97                     98                     99
                      A                      A                      A
 Frequencies --   3080.0973              3089.9554              3090.0877
 Red. masses --      1.0957                 1.0650                 1.0956
 Frc consts  --      6.1245                 5.9910                 6.1635
 IR Inten    --     41.8638                25.0069                21.1427

                    100                    101                    102
                      A                      A                      A
 Frequencies --   3094.5557              3095.7631              3100.9412
 Red. masses --      1.0589                 1.0652                 1.1014
 Frc consts  --      5.9748                 6.0147                 6.2397
 IR Inten    --     27.0482                20.1886                63.8087

                    103                    104                    105
                      A                      A                      A
 Frequencies --   3123.8440              3127.3878              3136.4862
 Red. masses --      1.1023                 1.1019                 1.0989
 Frc consts  --      6.3378                 6.3499                 6.3694
 IR Inten    --     26.3028                24.1205                12.3091

                    106                    107                    108
                      A                      A                      A
 Frequencies --   3137.9515              3140.3520              3144.6924
 Red. masses --      1.1042                 1.1042                 1.0950
 Frc consts  --      6.4062                 6.4157                 6.3800
 IR Inten    --     11.8301                 7.2285                22.5944

                    109                    110                    111
                      A                      A                      A
 Frequencies --   3157.9382              3159.6851              3172.5455
 Red. masses --      1.1060                 1.1075                 1.0875
 Frc consts  --      6.4986                 6.5146                 6.4488
 IR Inten    --     26.7343                28.7912                 1.1885

 - Thermochemistry -
 -------------------
 Temperature   298.150 Kelvin.  Pressure   1.00000 Atm.
 Atom     1 has atomic number  6 and mass  12.00000

 Molecular mass:   255.14706 amu.
 Principal axes and moments of inertia in atomic units:
                           1         2         3
     Eigenvalues --  2729.697047321.645848574.48501
           X            0.99999   0.00268   0.00364
           Y           -0.00274   0.99987   0.01616
           Z           -0.00360  -0.01617   0.99986
 This molecule is an asymmetric top.
 Rotational symmetry number  1.
 Warning -- assumption of classical behavior for rotation
           may cause significant error
 Rotational temperatures (Kelvin)      0.03173     0.01183     0.01010
 Rotational constants (GHZ):           0.66115     0.24649     0.21048
 Zero-point vibrational energy     893238.3 (Joules/Mol)
                                  213.48909 (Kcal/Mol)
 Warning -- explicit consideration of  26 degrees of freedom as
           vibrations may cause significant error
 Vibrational temperatures:     29.62    39.49    78.63    93.80   121.99
          (Kelvin)            136.72   158.80   169.95   205.40   228.43
                              312.21   336.58   342.23   365.04   425.60
                              449.64   484.22   507.54   536.99   622.88
                              638.59   651.34   711.60   752.39   801.18
                              854.30   920.10  1076.10  1086.82  1103.16
                             1111.90  1150.93  1161.47  1194.76  1222.29
                             1240.45  1261.80  1278.00  1286.52  1292.99
                             1370.39  1411.58  1432.29  1439.27  1475.03
                             1496.02  1533.65  1535.61  1576.38  1611.85
                             1628.26  1635.50  1648.10  1659.73  1703.82
                             1740.23  1741.05  1755.57  1776.38  1795.86
                             1827.47  1848.83  1875.70  1902.69  1921.91
                             1933.59  1936.46  1950.68  1964.85  1984.28
                             1998.27  2018.72  2026.54  2038.77  2045.54
                             2067.82  2078.01  2102.47  2179.22  2180.47
                             2181.38  2185.96  2186.05  2187.68  2197.17
                             2213.35  2214.82  2216.85  2582.32  2619.29
                             4373.44  4385.15  4392.79  4401.64  4405.12
                             4419.48  4431.57  4445.76  4445.95  4452.38
                             4454.11  4461.56  4494.51  4499.61  4512.70
                             4514.81  4518.27  4524.51  4543.57  4546.08
                             4564.59

 Zero-point correction=                           0.340217 (Hartree/Particle)
 Thermal correction to Energy=                    0.357978
 Thermal correction to Enthalpy=                  0.358922
 Thermal correction to Gibbs Free Energy=         0.292632
 Sum of electronic and zero-point Energies=           -863.454822
 Sum of electronic and thermal Energies=              -863.437060
 Sum of electronic and thermal Enthalpies=            -863.436116
 Sum of electronic and thermal Free Energies=         -863.502406

                     E (Thermal)             CV                S
                      KCal/Mol        Cal/Mol-Kelvin    Cal/Mol-Kelvin
 Total                  224.634             66.756            139.519
 Electronic               0.000              0.000              0.000
 Translational            0.889              2.981             42.510
 Rotational               0.889              2.981             33.504
 Vibrational            222.857             60.795             63.505
 Vibration     1          0.593              1.986              6.577
 Vibration     2          0.593              1.984              6.006
 Vibration     3          0.596              1.976              4.642
 Vibration     4          0.597              1.971              4.294
 Vibration     5          0.601              1.960              3.777
 Vibration     6          0.603              1.953              3.554
 Vibration     7          0.606              1.941              3.262
 Vibration     8          0.608              1.934              3.131
 Vibration     9          0.616              1.910              2.767
 Vibration    10          0.621              1.893              2.564
 Vibration    11          0.646              1.815              1.984
 Vibration    12          0.654              1.789              1.849
 Vibration    13          0.656              1.783              1.819
 Vibration    14          0.665              1.757              1.705
 Vibration    15          0.690              1.682              1.441
 Vibration    16          0.701              1.650              1.349
 Vibration    17          0.717              1.602              1.228
 Vibration    18          0.729              1.570              1.154
 Vibration    19          0.745              1.527              1.066
 Vibration    20          0.794              1.399              0.849
 Vibration    21          0.803              1.374              0.815
 Vibration    22          0.811              1.355              0.788
 Vibration    23          0.850              1.262              0.672
 Vibration    24          0.878              1.199              0.603
 Vibration    25          0.912              1.125              0.530
 Vibration    26          0.951              1.045              0.461

 Optimization completed.
    -- Stationary point found.
 Normal termination of Gaussian 16 at Fri Dec 11 21:06:53 2020.

 ----------------------------------------------------------------------
 # B3LYP/6-311++G(d,p) empiricaldispersion=gd3bj scf=xqc pop=npa geom=c
 heck
 ----------------------------------------------------------------------

 --------------------------------------
 CID_69589029_JID_8474_Energie_neutraal
 --------------------------------------
 Structure from the checkpoint file:  "JID_8474.chk"
 Charge =  0 Multiplicity = 1

 SCF Done:  E(RB3LYP) =  -864.039999483     A.U. after   15 cycles
 Normal termination of Gaussian 16 at Fri Dec 11 21:13:29 2020.

 ----------------------------------------------------------------------
 # B3LYP/6-311++G(d,p) empiricaldispersion=gd3bj scf=xqc pop=npa geom=c
 heck
 ----------------------------------------------------------------------

 ------------------------------------
 CID_69589029_JID_8474_Energie_kation
 ------------------------------------
 Structure from the checkpoint file:  "JID_8474.chk"
 Charge =  1 Multiplicity = 2

 SCF Done:  E(UB3LYP) =  -863.731238286     A.U. after   24 cycles
 Normal termination of Gaussian 16 at Fri Dec 11 21:27:43 2020.
 Gaussian 16:  ES64L-G16RevA.03 25-Dec-2016

 ----------------------------------------------------------------------
 # B3LYP/6-311++G(d,p) empiricaldispersion=gd3bj scf=xqc pop=npa geom=c
 heck
 ----------------------------------------------------------------------

 -----------------------------------
 CID_69589029_JID_8474_Energie_anion
 -----------------------------------
 Structure from the checkpoint file:  "JID_8474.chk"
 Charge = -1 Multiplicity = 2

                         Standard orientation:
 ---------------------------------------------------------------------
 Center     Atomic      Atomic             Coordinates (Angstroms)
 Number     Number       Type             X           Y           Z
 ---------------------------------------------------------------------
      1          6           0        5.303345   -1.108294    0.329917
      2          6           0        4.226106   -1.373883   -0.708978
      3          8           0        3.243155   -0.311331   -0.727200
      4          6           0        2.261083   -0.387049    0.199598
      5          8           0        2.170815   -1.279091    1.014749
      6          6           0        1.329104    0.807230    0.080995
      7          6           0        0.778219    1.002196   -1.369629
      8          6           0       -0.756318    0.972425   -1.205873
      9          6           0       -1.353976    2.356199   -0.889005
     10          6           0       -0.658302    2.997351    0.328533
     11          6           0       -0.450967    1.996290    1.482863
     12          6           0        0.071466    0.646847    0.960142
     13          7           0       -0.894347    0.122423   -0.014674
     14          6           0       -2.054765   -0.456341    0.407037
     15          8           0       -2.268513   -0.843042    1.544840
     16          8           0       -2.942253   -0.570947   -0.621935
     17          6           0       -4.163177   -1.270840   -0.306126
     18          6           0       -3.969317   -2.777483   -0.363849
     19          1           0        5.777279   -0.136593    0.157106
     20          1           0        6.075468   -1.883826    0.273403
     21          1           0        4.875063   -1.121962    1.335584
     22          1           0        4.635280   -1.379356   -1.721899
     23          1           0        3.715545   -2.320461   -0.516791
     24          1           0        1.912768    1.681825    0.390039
     25          1           0        1.126198    1.935133   -1.820585
     26          1           0        1.106445    0.184061   -2.013905
     27          1           0       -1.260012    0.513259   -2.056729
     28          1           0       -2.423738    2.218609   -0.689789
     29          1           0       -1.270977    3.014152   -1.763240
     30          1           0       -1.233906    3.862204    0.677552
     31          1           0        0.317106    3.392124    0.014632
     32          1           0       -1.397732    1.801233    1.999544
     33          1           0        0.242205    2.411042    2.225299
     34          1           0        0.216922   -0.073932    1.762533
     35          1           0       -4.505069   -0.956270    0.682852
     36          1           0       -4.873142   -0.927008   -1.062700
     37          1           0       -3.264429   -3.096210    0.408417
     38          1           0       -4.925095   -3.285988   -0.192422
     39          1           0       -3.586392   -3.081603   -1.343579
 ---------------------------------------------------------------------

 SCF Done:  E(UB3LYP) =  -864.028745836     A.U. after   33 cycles
 SCF Done:  E(UB3LYP) =  -864.028745836     a.u. after    1 cycles

 The electronic state is 2-A.
 Alpha  occ. eigenvalues --  -19.07222 -19.07002 -19.01700 -19.00142 -14.24082
 Alpha  occ. eigenvalues --  -10.22211 -10.20435 -10.14170 -10.13652 -10.11692
 Alpha  occ. eigenvalues --  -10.11331 -10.09777 -10.08285 -10.08174 -10.07561
 Alpha  occ. eigenvalues --  -10.07519 -10.07477 -10.07436  -1.01433  -1.01247
 Alpha  occ. eigenvalues --   -0.92686  -0.92218  -0.86727  -0.72837  -0.69601
 Alpha  occ. eigenvalues --   -0.68338  -0.67783  -0.66946  -0.59753  -0.57428
 Alpha  occ. eigenvalues --   -0.55570  -0.54241  -0.50445  -0.50158  -0.46671
 Alpha  occ. eigenvalues --   -0.45391  -0.43648  -0.42542  -0.39687  -0.39090
 Alpha  occ. eigenvalues --   -0.38828  -0.37859  -0.36921  -0.36568  -0.35460
 Alpha  occ. eigenvalues --   -0.34470  -0.33446  -0.33137  -0.32148  -0.31702
 Alpha  occ. eigenvalues --   -0.31278  -0.31112  -0.30469  -0.29460  -0.29365
 Alpha  occ. eigenvalues --   -0.28417  -0.27501  -0.26051  -0.25856  -0.25531
 Alpha  occ. eigenvalues --   -0.25088  -0.24310  -0.23083  -0.22892  -0.21425
 Alpha  occ. eigenvalues --   -0.21158  -0.18911  -0.18390  -0.14979   0.03970
 Alpha virt. eigenvalues --    0.05529   0.06072   0.07199   0.07503   0.08126
 Alpha virt. eigenvalues --    0.08539   0.08642   0.09128   0.09439   0.09753
 Alpha virt. eigenvalues --    0.10431   0.10631   0.11160   0.11669   0.11915

  Beta  occ. eigenvalues --  -19.07220 -19.06999 -19.01670 -19.00139 -14.24080
  Beta  occ. eigenvalues --  -10.22210 -10.20396 -10.14158 -10.13635 -10.11687
  Beta  occ. eigenvalues --  -10.11330 -10.09770 -10.08274 -10.08146 -10.07529
  Beta  occ. eigenvalues --  -10.07509 -10.07452 -10.07416  -1.01426  -1.01212
  Beta  occ. eigenvalues --   -0.92646  -0.92212  -0.86719  -0.72812  -0.69555
  Beta  occ. eigenvalues --   -0.68314  -0.67761  -0.66913  -0.59712  -0.57385
  Beta  occ. eigenvalues --   -0.55523  -0.54201  -0.50403  -0.50112  -0.46629
  Beta  occ. eigenvalues --   -0.45372  -0.43614  -0.42504  -0.39664  -0.39054
  Beta  occ. eigenvalues --   -0.38776  -0.37804  -0.36896  -0.36536  -0.35420
  Beta  occ. eigenvalues --   -0.34438  -0.33424  -0.33098  -0.32105  -0.31672
  Beta  occ. eigenvalues --   -0.31247  -0.31088  -0.30442  -0.29409  -0.29331
  Beta  occ. eigenvalues --   -0.28384  -0.27462  -0.26034  -0.25802  -0.25507
  Beta  occ. eigenvalues --   -0.25063  -0.24283  -0.23048  -0.22861  -0.21365
  Beta  occ. eigenvalues --   -0.21150  -0.18904  -0.18361  -0.14969
  Beta virt. eigenvalues --    0.05808   0.06278   0.06868   0.07706   0.07919
  Beta virt. eigenvalues --    0.08449   0.08830   0.09101   0.09451   0.09637
  Beta virt. eigenvalues --    0.10075   0.10635   0.10947   0.11331   0.11969

 Mulliken charges and spin densities:
               1          2
     1  C    0.452383  -0.836974
     2  C    0.005478  -0.110965
     3  O    0.008778   0.051846
     4  C    0.324060  -0.836186
     5  O   -0.218753   0.011874
     6  C   -0.673576   0.391534
     7  C    0.652511  -1.195844
     8  C   -1.401057   1.576227
     9  C    1.236842  -1.801025
    10  C    0.213456  -0.485651
    11  C   -0.210113  -0.248414
    12  C   -0.130894   0.214550
    13  N    0.126387  -0.113312
    14  C    0.164521  -0.254631
    15  O   -0.266882   0.004944
    16  O   -0.012759   0.023861
    17  C    0.159822  -0.232951
    18  C   -0.174273  -0.219471
    19  H   -0.082645   0.228297
    20  H   -0.292509   0.438188
    21  H   -0.017290   0.185745
    22  H   -0.315090   0.478984
    23  H    0.146210   0.018808
    24  H   -0.095330   0.347301
    25  H   -0.287745   0.494650
    26  H   -0.012369   0.220163
    27  H   -0.152002   0.427034
    28  H    0.150566  -0.022435
    29  H   -0.401349   0.579374
    30  H   -0.360030   0.551396
    31  H   -0.040907   0.195320
    32  H    0.126306   0.038058
    33  H   -0.059575   0.229349
    34  H    0.279886   0.037758
    35  H    0.147084   0.019278
    36  H   -0.152210   0.306976
    37  H    0.117966   0.059204
    38  H   -0.022259   0.159039
    39  H    0.067360   0.068100
 Sum of Mulliken charges =  -1.00000   1.00000

 Dipole moment (field-independent basis, Debye):
    X=             -3.8258    Y=             -2.2066    Z=              1.0462  Tot=              4.5388
 Quadrupole moment (field-independent basis, Debye-Ang):
   XX=           -191.7829   YY=           -162.2564   ZZ=           -148.5849
   XY=              4.1570   XZ=              2.4670   YZ=              8.0192

 Summary of Natural Population Analysis:

                                       Natural Population
                Natural  -----------------------------------------------
    Atom  No    Charge         Core      Valence    Rydberg      Total
 -----------------------------------------------------------------------
      C    1   -0.29807      0.99966     2.29423    0.00418     3.29807
      C    2   -0.01624      0.99957     2.00504    0.01162     3.01624
      O    3   -0.28432      0.99986     3.27512    0.00934     4.28432
      C    4    0.42156      0.99965     1.55191    0.02687     2.57844
      O    5   -0.30558      0.99987     3.30066    0.00505     4.30558
      C    6   -0.15899      0.99953     2.14791    0.01155     3.15899
      C    7   -0.18583      0.99960     2.17691    0.00931     3.18583
      C    8   -0.00480      0.99959     1.99183    0.01339     3.00480
      C    9   -0.19463      0.99961     2.18610    0.00892     3.19463
      C   10   -0.19641      0.99963     2.18830    0.00847     3.19641
      C   11   -0.19478      0.99961     2.18640    0.00877     3.19478
      C   12   -0.00385      0.99958     1.99031    0.01396     3.00385
      N   13   -0.26929      0.99962     2.75840    0.01127     3.76929
      C   14    0.46958      0.99964     1.50597    0.02480     2.53042
      O   15   -0.33473      0.99987     3.33033    0.00454     4.33473
      O   16   -0.28989      0.99987     3.28207    0.00796     4.28989
      C   17   -0.01556      0.99958     2.00396    0.01202     3.01556
      C   18   -0.29994      0.99966     2.29600    0.00428     3.29994
      H   19    0.10112      0.00000     0.39741    0.00146     0.39888
      H   20    0.10183      0.00000     0.39680    0.00137     0.39817
      H   21    0.10549      0.00000     0.39338    0.00114     0.39451
      H   22    0.09113      0.00000     0.40746    0.00141     0.40887
      H   23    0.09397      0.00000     0.40478    0.00125     0.40603
      H   24    0.11965      0.00000     0.37856    0.00179     0.38035
      H   25    0.10760      0.00000     0.39074    0.00166     0.39240
      H   26    0.10807      0.00000     0.39032    0.00162     0.39193
      H   27    0.11108      0.00000     0.38744    0.00148     0.38892
      H   28    0.09956      0.00000     0.39906    0.00137     0.40044
      H   29    0.10368      0.00000     0.39482    0.00150     0.39632
      H   30    0.10224      0.00000     0.39673    0.00103     0.39776
      H   31    0.09770      0.00000     0.40056    0.00174     0.40230
      H   32    0.10356      0.00000     0.39540    0.00104     0.39644
      H   33    0.10157      0.00000     0.39751    0.00091     0.39843
      H   34    0.12405      0.00000     0.37454    0.00141     0.37595
      H   35    0.09449      0.00000     0.40429    0.00121     0.40551
      H   36    0.08872      0.00000     0.41004    0.00124     0.41128
      H   37    0.10803      0.00000     0.39083    0.00114     0.39197
      H   38    0.09864      0.00000     0.40042    0.00095     0.40136
      H   39    0.09959      0.00000     0.39917    0.00124     0.40041
 =======================================================================
   * Total *   -0.00000     17.99403    50.78174    0.22424    69.00000

 Normal termination of Gaussian 16 at Fri Dec 11 21:47:21 2020.
