 Gaussian 16, Revision A.03,

 -----------------------------------------------------------
 # opt freq B3LYP/6-31G(d) empiricaldispersion=gd3bj scf=xqc
 -----------------------------------------------------------

 -------------------------------
 CID_133061908_JID_2446_neutraal
 -------------------------------
 Symbolic Z-matrix:
 Charge =  0 Multiplicity = 1

 SCF Done:  E(RB3LYP) =  -532.538848207     A.U. after   15 cycles
 SCF Done:  E(RB3LYP) =  -532.546519535     A.U. after   14 cycles
 SCF Done:  E(RB3LYP) =  -532.548100546     A.U. after   13 cycles
 SCF Done:  E(RB3LYP) =  -532.548297098     A.U. after   11 cycles
 SCF Done:  E(RB3LYP) =  -532.548317355     A.U. after   10 cycles
 Optimization completed.
    -- Stationary point found.
 Normal termination of Gaussian 16 at Wed Dec  9 17:17:49 2020.

 --------------------------------------------------------------------
 #N Geom=AllCheck Guess=TCheck SCRF=Check GenChk RB3LYP/6-31G(d) Freq
 --------------------------------------------------------------------

 Structure from the checkpoint file:  "JID_2446.chk"
 -------------------------------
 CID_133061908_JID_2446_neutraal
 -------------------------------
 Charge =  0 Multiplicity = 1

 SCF Done:  E(RB3LYP) =  -532.548317355     A.U. after    1 cycles

  Exact polarizability: 168.788  -5.965 122.998   0.000   0.000  43.286
 Approx polarizability: 299.546 -16.999 225.239   0.000   0.002  67.571

                      1                      2                      3
                      A                      A                      A
 Frequencies --     97.0515               141.8412               172.7783
 Red. masses --      5.7756                 3.1480                 1.1830
 Frc consts  --      0.0321                 0.0373                 0.0208
 IR Inten    --      2.4537                 0.5209                 0.5462

                      4                      5                      6
                      A                      A                      A
 Frequencies --    238.0109               248.3956               253.2119
 Red. masses --      3.4619                 3.7704                 5.6554
 Frc consts  --      0.1155                 0.1371                 0.2136
 IR Inten    --      0.0050                 0.0339                 4.9443

                      7                      8                      9
                      A                      A                      A
 Frequencies --    379.8797               418.3606               458.9096
 Red. masses --      6.0390                 3.0241                 4.6988
 Frc consts  --      0.5135                 0.3119                 0.5830
 IR Inten    --      1.9985                13.5045                 9.1803

                     10                     11                     12
                      A                      A                      A
 Frequencies --    480.8165               512.1849               517.9593
 Red. masses --      7.2043                 2.8851                 5.3975
 Frc consts  --      0.9813                 0.4459                 0.8532
 IR Inten    --      0.0297                 1.5344                 9.0288

                     13                     14                     15
                      A                      A                      A
 Frequencies --    576.4566               587.8528               688.8227
 Red. masses --      3.7216                 6.0493                 2.2543
 Frc consts  --      0.7286                 1.2317                 0.6302
 IR Inten    --      0.7088                 1.4277                18.6437

                     16                     17                     18
                      A                      A                      A
 Frequencies --    722.1569               750.4224               755.4556
 Red. masses --      5.2216                 7.0286                 2.2583
 Frc consts  --      1.6044                 2.3320                 0.7594
 IR Inten    --     12.8665                 3.1812                57.9972

                     19                     20                     21
                      A                      A                      A
 Frequencies --    789.9238               837.9840               861.1100
 Red. masses --      3.1357                 1.1960                 4.9731
 Frc consts  --      1.1528                 0.4948                 2.1727
 IR Inten    --     22.9910                 6.2710                 4.9964

                     22                     23                     24
                      A                      A                      A
 Frequencies --    878.4734               891.1620               913.4705
 Red. masses --      1.5063                 1.3750                 3.3127
 Frc consts  --      0.6849                 0.6434                 1.6286
 IR Inten    --     21.6556                12.2865                 7.8849

                     25                     26                     27
                      A                      A                      A
 Frequencies --    984.8381               997.4992              1077.6213
 Red. masses --      1.4364                 2.1300                 1.5498
 Frc consts  --      0.8208                 1.2487                 1.0604
 IR Inten    --      0.1817                 0.1358                 2.9024

                     28                     29                     30
                      A                      A                      A
 Frequencies --   1088.9532              1101.6167              1199.3153
 Red. masses --      2.2342                 2.4691                 2.3515
 Frc consts  --      1.5610                 1.7654                 1.9928
 IR Inten    --     16.5234                 2.1669                 3.1658

                     31                     32                     33
                      A                      A                      A
 Frequencies --   1208.2554              1229.9058              1292.0904
 Red. masses --      3.2522                 1.4848                 1.9025
 Frc consts  --      2.7973                 1.3233                 1.8714
 IR Inten    --     31.6754                55.9346                 7.7749

                     34                     35                     36
                      A                      A                      A
 Frequencies --   1307.6143              1412.2169              1430.7038
 Red. masses --      1.9802                 2.1137                 2.4422
 Frc consts  --      1.9949                 2.4836                 2.9453
 IR Inten    --      4.7110                 1.1222                28.6799

                     37                     38                     39
                      A                      A                      A
 Frequencies --   1437.3228              1444.1003              1483.2656
 Red. masses --      1.6128                 1.6249                 3.3086
 Frc consts  --      1.9631                 1.9966                 4.2887
 IR Inten    --     21.4907                 1.5350                36.8564

                     40                     41                     42
                      A                      A                      A
 Frequencies --   1512.1611              1525.0544              1558.3878
 Red. masses --      1.0439                 1.1248                 4.0154
 Frc consts  --      1.4065                 1.5413                 5.7455
 IR Inten    --      9.1607                11.6139                72.8715

                     43                     44                     45
                      A                      A                      A
 Frequencies --   1592.7653              1658.6682              1678.4677
 Red. masses --      6.2606                 5.3290                 6.3755
 Frc consts  --      9.3576                 8.6380                10.5826
 IR Inten    --    100.8562                 2.1539               142.4805

                     46                     47                     48
                      A                      A                      A
 Frequencies --   1797.2789              3045.4171              3096.6254
 Red. masses --      8.3188                 1.0388                 1.1004
 Frc consts  --     15.8323                 5.6765                 6.2169
 IR Inten    --    815.3309                18.0721                14.5437

                     49                     50                     51
                      A                      A                      A
 Frequencies --   3142.9018              3153.4342              3205.8274
 Red. masses --      1.0996                 1.0893                 1.0924
 Frc consts  --      6.3998                 6.3824                 6.6148
 IR Inten    --     14.6537                39.2327                14.8900

                     52                     53                     54
                      A                      A                      A
 Frequencies --   3229.8849              3251.0479              3585.6133
 Red. masses --      1.0920                 1.0914                 1.0781
 Frc consts  --      6.7122                 6.7963                 8.1661
 IR Inten    --      2.2849                 0.5646                73.5313

 - Thermochemistry -
 -------------------
 Temperature   298.150 Kelvin.  Pressure   1.00000 Atm.
 Atom     1 has atomic number  6 and mass  12.00000

 Molecular mass:   160.06366 amu.
 Principal axes and moments of inertia in atomic units:
                           1         2         3
     Eigenvalues --   956.804982382.524963328.10098
           X            0.99981   0.01971  -0.00000
           Y           -0.01971   0.99981   0.00000
           Z            0.00000  -0.00000   1.00000
 This molecule is an asymmetric top.
 Rotational symmetry number  1.
 Warning -- assumption of classical behavior for rotation
           may cause significant error
 Rotational temperatures (Kelvin)      0.09052     0.03635     0.02603
 Rotational constants (GHZ):           1.88622     0.75749     0.54227
 Zero-point vibrational energy     412122.8 (Joules/Mol)
                                   98.49970 (Kcal/Mol)
 Warning -- explicit consideration of  14 degrees of freedom as
           vibrations may cause significant error
 Vibrational temperatures:    139.64   204.08   248.59   342.44   357.39
          (Kelvin)            364.32   546.56   601.93   660.27   691.79
                              736.92   745.23   829.39   845.79   991.06
                             1039.02  1079.69  1086.93  1136.52  1205.67
                             1238.95  1263.93  1282.18  1314.28  1416.96
                             1435.18  1550.46  1566.76  1584.98  1725.55
                             1738.41  1769.56  1859.03  1881.37  2031.87
                             2058.46  2067.99  2077.74  2134.09  2175.66
                             2194.21  2242.17  2291.63  2386.45  2414.94
                             2585.88  4381.68  4455.35  4521.93  4537.09
                             4612.47  4647.08  4677.53  5158.90

 Zero-point correction=                           0.156969 (Hartree/Particle)
 Thermal correction to Energy=                    0.166225
 Thermal correction to Enthalpy=                  0.167170
 Thermal correction to Gibbs Free Energy=         0.122560
 Sum of electronic and zero-point Energies=           -532.391348
 Sum of electronic and thermal Energies=              -532.382092
 Sum of electronic and thermal Enthalpies=            -532.381148
 Sum of electronic and thermal Free Energies=         -532.425757

                     E (Thermal)             CV                S
                      KCal/Mol        Cal/Mol-Kelvin    Cal/Mol-Kelvin
 Total                  104.308             36.947             93.889
 Electronic               0.000              0.000              0.000
 Translational            0.889              2.981             41.120
 Rotational               0.889              2.981             30.407
 Vibrational            102.531             30.986             22.361
 Vibration     1          0.603              1.951              3.513
 Vibration     2          0.615              1.911              2.779
 Vibration     3          0.626              1.876              2.405
 Vibration     4          0.656              1.782              1.818
 Vibration     5          0.662              1.765              1.742
 Vibration     6          0.664              1.757              1.708
 Vibration     7          0.750              1.513              1.040
 Vibration     8          0.781              1.430              0.898
 Vibration     9          0.817              1.341              0.769
 Vibration    10          0.837              1.293              0.708
 Vibration    11          0.867              1.223              0.628
 Vibration    12          0.873              1.210              0.615
 Vibration    13          0.933              1.082              0.492
 Vibration    14          0.945              1.058              0.471

 Optimization completed.
    -- Stationary point found.
 Normal termination of Gaussian 16 at Wed Dec  9 17:22:05 2020.

 ----------------------------------------------------------------------
 # B3LYP/6-311++G(d,p) empiricaldispersion=gd3bj scf=xqc pop=npa geom=c
 heck
 ----------------------------------------------------------------------

 ---------------------------------------
 CID_133061908_JID_2446_Energie_neutraal
 ---------------------------------------
 Structure from the checkpoint file:  "JID_2446.chk"
 Charge =  0 Multiplicity = 1

 SCF Done:  E(RB3LYP) =  -532.692778432     A.U. after   17 cycles
 Normal termination of Gaussian 16 at Wed Dec  9 17:23:57 2020.

 ----------------------------------------------------------------------
 # B3LYP/6-311++G(d,p) empiricaldispersion=gd3bj scf=xqc pop=npa geom=c
 heck
 ----------------------------------------------------------------------

 -------------------------------------
 CID_133061908_JID_2446_Energie_kation
 -------------------------------------
 Structure from the checkpoint file:  "JID_2446.chk"
 Charge =  1 Multiplicity = 2

 SCF Done:  E(UB3LYP) =  -532.409249245     A.U. after   20 cycles
 Normal termination of Gaussian 16 at Wed Dec  9 17:27:17 2020.
 Gaussian 16:  ES64L-G16RevA.03 25-Dec-2016

 ----------------------------------------------------------------------
 # B3LYP/6-311++G(d,p) empiricaldispersion=gd3bj scf=xqc pop=npa geom=c
 heck
 ----------------------------------------------------------------------

 ------------------------------------
 CID_133061908_JID_2446_Energie_anion
 ------------------------------------
 Structure from the checkpoint file:  "JID_2446.chk"
 Charge = -1 Multiplicity = 2

                         Standard orientation:
 ---------------------------------------------------------------------
 Center     Atomic      Atomic             Coordinates (Angstroms)
 Number     Number       Type             X           Y           Z
 ---------------------------------------------------------------------
      1          6           0        2.427638    1.990171   -0.000064
      2          6           0        1.827923    0.610916    0.000018
      3          6           0        2.602420   -0.515962    0.000042
      4          6           0        1.982606   -1.806862    0.000084
      5          7           0        0.696625   -2.031449    0.000010
      6          6           0       -0.138024   -0.926674   -0.000047
      7          6           0       -1.504565   -1.135795   -0.000099
      8          6           0       -2.454138   -0.060925   -0.000215
      9          8           0       -3.680208   -0.114495    0.000128
     10          7           0       -1.826120    1.225644    0.000021
     11          6           0       -0.502144    1.467809    0.000073
     12          6           0        0.402463    0.423060   -0.000003
     13          1           0        2.114404    2.561024    0.882843
     14          1           0        2.115067    2.560563   -0.883512
     15          1           0        3.519231    1.940248    0.000361
     16          1           0        3.685835   -0.446308    0.000053
     17          1           0        2.622900   -2.689529    0.000015
     18          1           0       -1.886834   -2.148715   -0.000056
     19          1           0       -2.486347    1.995769    0.000149
     20          1           0       -0.201201    2.509107    0.000165
 ---------------------------------------------------------------------

 SCF Done:  E(UB3LYP) =  -532.726910821     A.U. after   20 cycles

 The electronic state is 2-A.
 Alpha  occ. eigenvalues --  -18.92628 -14.20631 -14.13750 -10.11201 -10.06124
 Alpha  occ. eigenvalues --  -10.05754 -10.05156 -10.04440 -10.03686 -10.03256
 Alpha  occ. eigenvalues --  -10.02072  -9.99559  -0.88126  -0.80418  -0.77791
 Alpha  occ. eigenvalues --   -0.68056  -0.64081  -0.59262  -0.57618  -0.51699
 Alpha  occ. eigenvalues --   -0.48569  -0.44193  -0.41592  -0.37942  -0.35814
 Alpha  occ. eigenvalues --   -0.33241  -0.30832  -0.30689  -0.29572  -0.28661
 Alpha  occ. eigenvalues --   -0.28132  -0.26113  -0.25374  -0.23730  -0.22689
 Alpha  occ. eigenvalues --   -0.21655  -0.19684  -0.14150  -0.12983  -0.10940
 Alpha  occ. eigenvalues --   -0.10230  -0.05707   0.02727
 Alpha virt. eigenvalues --    0.08032   0.09406   0.10411   0.11775   0.12010
 Alpha virt. eigenvalues --    0.12934   0.13342   0.13806   0.14842   0.15058
 Alpha virt. eigenvalues --    0.16497   0.16783   0.17507   0.18169   0.18547

  Beta  occ. eigenvalues --  -18.92650 -14.20277 -14.13579 -10.11241 -10.05728
  Beta  occ. eigenvalues --  -10.05647 -10.05185 -10.04175 -10.03412 -10.03278
  Beta  occ. eigenvalues --  -10.02136  -9.99365  -0.88018  -0.79870  -0.77331
  Beta  occ. eigenvalues --   -0.67577  -0.63767  -0.58800  -0.57425  -0.51024
  Beta  occ. eigenvalues --   -0.48416  -0.43803  -0.41268  -0.37633  -0.35577
  Beta  occ. eigenvalues --   -0.33043  -0.30476  -0.30305  -0.29397  -0.28057
  Beta  occ. eigenvalues --   -0.27705  -0.26081  -0.25161  -0.22832  -0.22531
  Beta  occ. eigenvalues --   -0.21498  -0.18410  -0.13117  -0.11558  -0.10870
  Beta  occ. eigenvalues --   -0.10033  -0.04409
  Beta virt. eigenvalues --    0.07987   0.08865   0.09350   0.10366   0.11962
  Beta virt. eigenvalues --    0.12069   0.12905   0.13753   0.14038   0.14992
  Beta virt. eigenvalues --    0.15651   0.16434   0.17428   0.17689   0.18134

 Mulliken charges and spin densities:
               1          2
     1  C   -0.634551  -0.031729
     2  C    0.827360   0.208829
     3  C   -0.644804  -0.000169
     4  C   -0.048969   0.209853
     5  N   -0.043013   0.069184
     6  C   -0.780540  -0.027522
     7  C    0.210382   0.191976
     8  C   -0.273021  -0.027325
     9  O   -0.454921  -0.005398
    10  N   -0.206289   0.120232
    11  C   -0.581381   0.382991
    12  C    0.512647  -0.093621
    13  H    0.110355   0.031984
    14  H    0.110426   0.031992
    15  H    0.124019   0.000486
    16  H    0.072834   0.003191
    17  H    0.123244  -0.018961
    18  H    0.163687  -0.010355
    19  H    0.272408  -0.007654
    20  H    0.140127  -0.027985
 Sum of Mulliken charges =  -1.00000   1.00000

 Dipole moment (field-independent basis, Debye):
    X=              4.3258    Y=              4.8041    Z=             -0.0002  Tot=              6.4647
 Quadrupole moment (field-independent basis, Debye-Ang):
   XX=           -110.5675   YY=            -83.0607   ZZ=            -78.6652
   XY=             -2.7794   XZ=              0.0007   YZ=              0.0007

 Summary of Natural Population Analysis:

                                       Natural Population
                Natural  -----------------------------------------------
    Atom  No    Charge         Core      Valence    Rydberg      Total
 -----------------------------------------------------------------------
      C    1   -0.29850      0.99965     2.29424    0.00462     3.29850
      C    2    0.08433      0.99949     1.90612    0.01006     2.91567
      C    3   -0.16788      0.99950     2.15974    0.00864     3.16788
      C    4    0.09601      0.99963     1.88902    0.01534     2.90399
      N    5   -0.23378      0.99969     2.72113    0.01295     3.73378
      C    6    0.10352      0.99948     1.88415    0.01285     2.89648
      C    7   -0.13677      0.99948     2.12726    0.01003     3.13677
      C    8    0.29472      0.99962     1.68342    0.02223     2.70528
      O    9   -0.36587      0.99988     3.35854    0.00746     4.36587
      N   10   -0.22830      0.99967     2.72060    0.00804     3.72830
      C   11    0.13740      0.99957     1.85228    0.01075     2.86260
      C   12   -0.11541      0.99946     2.10663    0.00931     3.11541
      H   13    0.10123      0.00000     0.39730    0.00147     0.39877
      H   14    0.10123      0.00000     0.39729    0.00147     0.39877
      H   15    0.09627      0.00000     0.40286    0.00087     0.40373
      H   16    0.08991      0.00000     0.40905    0.00104     0.41009
      H   17    0.07129      0.00000     0.42686    0.00186     0.42871
      H   18    0.10076      0.00000     0.39704    0.00220     0.39924
      H   19    0.18546      0.00000     0.31164    0.00290     0.31454
      H   20    0.08437      0.00000     0.41455    0.00108     0.41563
 =======================================================================
   * Total *   -0.00000     11.99511    29.85971    0.14517    42.00000

 Normal termination of Gaussian 16 at Wed Dec  9 17:31:06 2020.
