 Gaussian 16, Revision A.03,

 -----------------------------------------------------------
 # opt freq B3LYP/6-31G(d) empiricaldispersion=gd3bj scf=xqc
 -----------------------------------------------------------

 -------------------------------
 CID_108408893_JID_3234_neutraal
 -------------------------------
 Symbolic Z-matrix:
 Charge =  0 Multiplicity = 1

 SCF Done:  E(RB3LYP) =  -522.331658010     A.U. after   13 cycles
 SCF Done:  E(RB3LYP) =  -522.335072235     A.U. after   11 cycles
 SCF Done:  E(RB3LYP) =  -522.335428354     A.U. after   10 cycles
 SCF Done:  E(RB3LYP) =  -522.335516123     A.U. after   10 cycles
 SCF Done:  E(RB3LYP) =  -522.335546801     A.U. after    9 cycles
 SCF Done:  E(RB3LYP) =  -522.335579555     A.U. after    9 cycles
 SCF Done:  E(RB3LYP) =  -522.335602226     A.U. after    9 cycles
 SCF Done:  E(RB3LYP) =  -522.335614805     A.U. after    9 cycles
 SCF Done:  E(RB3LYP) =  -522.335618084     A.U. after    8 cycles
 SCF Done:  E(RB3LYP) =  -522.335618709     A.U. after    7 cycles
 SCF Done:  E(RB3LYP) =  -522.335618823     A.U. after    7 cycles
 SCF Done:  E(RB3LYP) =  -522.335618836     A.U. after    6 cycles
 Optimization completed.
    -- Stationary point found.
 Normal termination of Gaussian 16 at Wed Dec  9 22:30:05 2020.

 --------------------------------------------------------------------
 #N Geom=AllCheck Guess=TCheck SCRF=Check GenChk RB3LYP/6-31G(d) Freq
 --------------------------------------------------------------------

 Structure from the checkpoint file:  "JID_3234.chk"
 -------------------------------
 CID_108408893_JID_3234_neutraal
 -------------------------------
 Charge =  0 Multiplicity = 1

 SCF Done:  E(RB3LYP) =  -522.335618836     A.U. after    1 cycles

  Exact polarizability: 160.385   4.367 150.852   0.229  -0.148  77.750
 Approx polarizability: 225.402   6.368 226.458  -1.697   0.363 122.313

                      1                      2                      3
                      A                      A                      A
 Frequencies --     87.1400               110.7014               126.8979
 Red. masses --      2.5646                 1.6997                 1.4042
 Frc consts  --      0.0115                 0.0123                 0.0133
 IR Inten    --      0.3757                 0.2745                 0.3071

                      4                      5                      6
                      A                      A                      A
 Frequencies --    134.2798               168.0403               183.4766
 Red. masses --      2.3645                 1.1797                 1.2479
 Frc consts  --      0.0251                 0.0196                 0.0247
 IR Inten    --      1.4231                 0.5603                 0.6249

                      7                      8                      9
                      A                      A                      A
 Frequencies --    203.5481               263.5681               294.6136
 Red. masses --      1.5890                 3.3672                 2.6067
 Frc consts  --      0.0388                 0.1378                 0.1333
 IR Inten    --      1.1669                 0.1167                 0.4273

                     10                     11                     12
                      A                      A                      A
 Frequencies --    303.4229               328.8620               351.5876
 Red. masses --      2.7040                 2.3884                 2.6378
 Frc consts  --      0.1467                 0.1522                 0.1921
 IR Inten    --      1.5433                 1.0555                 0.2021

                     13                     14                     15
                      A                      A                      A
 Frequencies --    363.6673               424.7897               451.0276
 Red. masses --      2.4574                 4.0093                 4.2545
 Frc consts  --      0.1915                 0.4263                 0.5099
 IR Inten    --      0.2900                 0.6407                 6.3116

                     16                     17                     18
                      A                      A                      A
 Frequencies --    480.3722               526.9332               536.7543
 Red. masses --      4.2931                 2.6674                 3.3500
 Frc consts  --      0.5837                 0.4364                 0.5687
 IR Inten    --      0.1870                 6.7730                 1.4455

                     19                     20                     21
                      A                      A                      A
 Frequencies --    573.9214               601.4194               632.9276
 Red. masses --      3.0541                 3.9011                 2.4167
 Frc consts  --      0.5927                 0.8314                 0.5704
 IR Inten    --      0.6698                 1.0862                33.1044

                     22                     23                     24
                      A                      A                      A
 Frequencies --    682.6968               733.2963               827.2633
 Red. masses --      3.8126                 3.5194                 2.4081
 Frc consts  --      1.0469                 1.1150                 0.9710
 IR Inten    --      2.1078                 0.4053                49.6876

                     25                     26                     27
                      A                      A                      A
 Frequencies --    840.4660               880.5364               907.6780
 Red. masses --      1.8354                 1.2802                 2.6097
 Frc consts  --      0.7639                 0.5848                 1.2668
 IR Inten    --     21.9617                 2.9973                 6.9856

                     28                     29                     30
                      A                      A                      A
 Frequencies --    941.1208               995.1402              1017.1264
 Red. masses --      2.1849                 2.3852                 1.6097
 Frc consts  --      1.1402                 1.3917                 0.9812
 IR Inten    --      0.2303                16.0174                 0.6225

                     31                     32                     33
                      A                      A                      A
 Frequencies --   1030.5854              1041.6409              1057.9012
 Red. masses --      1.6372                 1.7522                 1.4565
 Frc consts  --      1.0245                 1.1202                 0.9604
 IR Inten    --      0.8525                 6.8234                 3.0236

                     34                     35                     36
                      A                      A                      A
 Frequencies --   1065.1762              1069.2177              1079.1077
 Red. masses --      2.4428                 1.5491                 1.7207
 Frc consts  --      1.6330                 1.0434                 1.1806
 IR Inten    --      2.7264                10.3647                 2.2117

                     37                     38                     39
                      A                      A                      A
 Frequencies --   1081.7376              1106.1324              1116.6957
 Red. masses --      1.6447                 1.9468                 2.2507
 Frc consts  --      1.1339                 1.4034                 1.6536
 IR Inten    --      2.5805                 3.0956                 0.0957

                     40                     41                     42
                      A                      A                      A
 Frequencies --   1185.2820              1235.5533              1237.2958
 Red. masses --      3.1458                 1.1605                 2.0758
 Frc consts  --      2.6039                 1.0438                 1.8723
 IR Inten    --     13.2958                 1.0120                 4.3205

                     43                     44                     45
                      A                      A                      A
 Frequencies --   1252.1441              1275.2364              1307.8176
 Red. masses --      1.5591                 1.5089                 1.3026
 Frc consts  --      1.4402                 1.4457                 1.3127
 IR Inten    --      2.0941                 1.0236                12.5688

                     46                     47                     48
                      A                      A                      A
 Frequencies --   1323.6268              1350.6107              1363.9225
 Red. masses --      3.3516                 2.9296                 1.7006
 Frc consts  --      3.4597                 3.1486                 1.8639
 IR Inten    --      0.3911                 4.0662                16.5834

                     49                     50                     51
                      A                      A                      A
 Frequencies --   1389.0715              1435.9074              1439.5379
 Red. masses --      1.6722                 1.5826                 1.3771
 Frc consts  --      1.9010                 1.9225                 1.6813
 IR Inten    --      7.5422                 4.6840                 7.3003

                     52                     53                     54
                      A                      A                      A
 Frequencies --   1444.8875              1449.7047              1461.5063
 Red. masses --      1.2797                 1.3008                 2.4095
 Frc consts  --      1.5741                 1.6107                 3.0324
 IR Inten    --      2.6962                 0.4376                 0.8735

                     55                     56                     57
                      A                      A                      A
 Frequencies --   1497.0721              1501.2978              1510.7610
 Red. masses --      1.2185                 1.3489                 1.1611
 Frc consts  --      1.6090                 1.7913                 1.5614
 IR Inten    --      4.8491                 1.6357                 1.8918

                     58                     59                     60
                      A                      A                      A
 Frequencies --   1512.2425              1516.2371              1519.5148
 Red. masses --      1.1133                 1.1094                 1.1934
 Frc consts  --      1.5001                 1.5027                 1.6234
 IR Inten    --     13.4690                 6.4808                 2.6074

                     61                     62                     63
                      A                      A                      A
 Frequencies --   1525.7916              1531.7840              1535.5572
 Red. masses --      1.1089                 1.2198                 1.2602
 Frc consts  --      1.5210                 1.6863                 1.7508
 IR Inten    --      4.9033                 8.3308                11.4628

                     64                     65                     66
                      A                      A                      A
 Frequencies --   1538.2240              1543.2048              1632.9957
 Red. masses --      1.1742                 1.1335                 6.3193
 Frc consts  --      1.6369                 1.5904                 9.9286
 IR Inten    --      3.4452                14.3149                 1.6898

                     67                     68                     69
                      A                      A                      A
 Frequencies --   1664.8029              2886.7099              2924.5311
 Red. masses --      6.4554                 1.0744                 1.0735
 Frc consts  --     10.5415                 5.2749                 5.4097
 IR Inten    --      2.3097                75.0181                95.8665

                     70                     71                     72
                      A                      A                      A
 Frequencies --   3029.9988              3035.6498              3036.1530
 Red. masses --      1.0634                 1.0443                 1.0414
 Frc consts  --      5.7521                 5.6701                 5.6559
 IR Inten    --     22.8718                55.1074                15.2071

                     73                     74                     75
                      A                      A                      A
 Frequencies --   3039.9974              3066.2496              3071.3745
 Red. masses --      1.0388                 1.0848                 1.0978
 Frc consts  --      5.6564                 6.0090                 6.1017
 IR Inten    --     33.8029                39.8137                32.0336

                     76                     77                     78
                      A                      A                      A
 Frequencies --   3083.6361              3085.3816              3088.3863
 Red. masses --      1.0994                 1.0953                 1.0890
 Frc consts  --      6.1595                 6.1430                 6.1198
 IR Inten    --     19.2721                26.1371                57.1722

                     79                     80                     81
                      A                      A                      A
 Frequencies --   3089.7739              3123.1333              3124.5856
 Red. masses --      1.1004                 1.0999                 1.0998
 Frc consts  --      6.1897                 6.3207                 6.3261
 IR Inten    --     18.1569                21.1177                18.6819

                     82                     83                     84
                      A                      A                      A
 Frequencies --   3154.5596              3168.0314              3505.1414
 Red. masses --      1.0945                 1.0897                 1.0747
 Frc consts  --      6.4172                 6.4435                 7.7794
 IR Inten    --     18.9620                31.1571                 2.3199

 - Thermochemistry -
 -------------------
 Temperature   298.150 Kelvin.  Pressure   1.00000 Atm.
 Atom     1 has atomic number  6 and mass  12.00000

 Molecular mass:   175.13610 amu.
 Principal axes and moments of inertia in atomic units:
                           1         2         3
     Eigenvalues --  1614.034942477.064393988.45555
           X            0.99942   0.03386   0.00415
           Y           -0.03384   0.99942  -0.00345
           Z           -0.00426   0.00331   0.99999
 This molecule is an asymmetric top.
 Rotational symmetry number  1.
 Warning -- assumption of classical behavior for rotation
           may cause significant error
 Rotational temperatures (Kelvin)      0.05366     0.03497     0.02172
 Rotational constants (GHZ):           1.11815     0.72858     0.45249
 Zero-point vibrational energy     701707.6 (Joules/Mol)
                                  167.71215 (Kcal/Mol)
 Warning -- explicit consideration of  20 degrees of freedom as
           vibrations may cause significant error
 Vibrational temperatures:    125.38   159.27   182.58   193.20   241.77
          (Kelvin)            263.98   292.86   379.22   423.88   436.56
                              473.16   505.86   523.24   611.18   648.93
                              691.15   758.14   772.27   825.74   865.31
                              910.64   982.25  1055.05  1190.25  1209.24
                             1266.90  1305.95  1354.06  1431.78  1463.42
                             1482.78  1498.69  1522.08  1532.55  1538.37
                             1552.60  1556.38  1591.48  1606.68  1705.36
                             1777.69  1780.19  1801.56  1834.78  1881.66
                             1904.40  1943.23  1962.38  1998.56  2065.95
                             2071.17  2078.87  2085.80  2102.78  2153.95
                             2160.03  2173.65  2175.78  2181.53  2186.24
                             2195.27  2203.90  2209.32  2213.16  2220.33
                             2349.52  2395.28  4153.33  4207.75  4359.49
                             4367.62  4368.35  4373.88  4411.65  4419.02
                             4436.66  4439.18  4443.50  4445.50  4493.49
                             4495.58  4538.71  4558.09  5043.12

 Zero-point correction=                           0.267266 (Hartree/Particle)
 Thermal correction to Energy=                    0.279796
 Thermal correction to Enthalpy=                  0.280741
 Thermal correction to Gibbs Free Energy=         0.229514
 Sum of electronic and zero-point Energies=           -522.068353
 Sum of electronic and thermal Energies=              -522.055822
 Sum of electronic and thermal Enthalpies=            -522.054878
 Sum of electronic and thermal Free Energies=         -522.106105

                     E (Thermal)             CV                S
                      KCal/Mol        Cal/Mol-Kelvin    Cal/Mol-Kelvin
 Total                  175.575             49.254            107.815
 Electronic               0.000              0.000              0.000
 Translational            0.889              2.981             41.388
 Rotational               0.889              2.981             31.145
 Vibrational            173.797             43.293             35.282
 Vibration     1          0.601              1.958              3.723
 Vibration     2          0.607              1.941              3.257
 Vibration     3          0.611              1.926              2.993
 Vibration     4          0.613              1.919              2.884
 Vibration     5          0.625              1.882              2.457
 Vibration     6          0.631              1.862              2.293
 Vibration     7          0.639              1.835              2.101
 Vibration     8          0.670              1.740              1.638
 Vibration     9          0.689              1.684              1.447
 Vibration    10          0.695              1.667              1.398
 Vibration    11          0.712              1.618              1.266
 Vibration    12          0.728              1.572              1.159
 Vibration    13          0.737              1.547              1.106
 Vibration    14          0.787              1.416              0.876
 Vibration    15          0.810              1.359              0.793
 Vibration    16          0.837              1.294              0.709
 Vibration    17          0.882              1.190              0.594
 Vibration    18          0.892              1.169              0.572
 Vibration    19          0.930              1.088              0.497
 Vibration    20          0.960              1.029              0.447

 Optimization completed.
    -- Stationary point found.
 Normal termination of Gaussian 16 at Wed Dec  9 22:39:04 2020.

 ----------------------------------------------------------------------
 # B3LYP/6-311++G(d,p) empiricaldispersion=gd3bj scf=xqc pop=npa geom=c
 heck
 ----------------------------------------------------------------------

 ---------------------------------------
 CID_108408893_JID_3234_Energie_neutraal
 ---------------------------------------
 Structure from the checkpoint file:  "JID_3234.chk"
 Charge =  0 Multiplicity = 1

 SCF Done:  E(RB3LYP) =  -522.472466774     A.U. after   14 cycles
 Normal termination of Gaussian 16 at Wed Dec  9 22:43:08 2020.

 ----------------------------------------------------------------------
 # B3LYP/6-311++G(d,p) empiricaldispersion=gd3bj scf=xqc pop=npa geom=c
 heck
 ----------------------------------------------------------------------

 -------------------------------------
 CID_108408893_JID_3234_Energie_kation
 -------------------------------------
 Structure from the checkpoint file:  "JID_3234.chk"
 Charge =  1 Multiplicity = 2

 SCF Done:  E(UB3LYP) =  -522.189293166     A.U. after   24 cycles
 Normal termination of Gaussian 16 at Wed Dec  9 22:53:06 2020.
 Gaussian 16:  ES64L-G16RevA.03 25-Dec-2016

 ----------------------------------------------------------------------
 # B3LYP/6-311++G(d,p) empiricaldispersion=gd3bj scf=xqc pop=npa geom=c
 heck
 ----------------------------------------------------------------------

 ------------------------------------
 CID_108408893_JID_3234_Energie_anion
 ------------------------------------
 Structure from the checkpoint file:  "JID_3234.chk"
 Charge = -1 Multiplicity = 2

                         Standard orientation:
 ---------------------------------------------------------------------
 Center     Atomic      Atomic             Coordinates (Angstroms)
 Number     Number       Type             X           Y           Z
 ---------------------------------------------------------------------
      1          6           0       -3.570921   -0.169800    0.032341
      2          6           0       -2.080540    0.083539    0.014231
      3          6           0       -1.613606    1.400629   -0.016635
      4          6           0       -0.255748    1.710705   -0.029734
      5          6           0        0.681177    0.661425   -0.019329
      6          6           0        2.164184    0.971599   -0.017640
      7          6           0        3.002335   -0.241646    0.374956
      8          7           0        2.560780   -1.375562   -0.429150
      9          6           0        1.225954   -1.811380   -0.032674
     10          6           0        0.229845   -0.666724   -0.017878
     11          6           0       -1.146899   -0.965323    0.018176
     12          6           0       -1.595547   -2.409144    0.046481
     13          6           0        0.190461    3.152269   -0.057525
     14          1           0       -4.121872    0.774596   -0.008392
     15          1           0       -3.888696   -0.696391    0.941163
     16          1           0       -3.895385   -0.778517   -0.820444
     17          1           0       -2.337530    2.212892   -0.026641
     18          1           0        2.375985    1.801164    0.668178
     19          1           0        2.472141    1.306458   -1.018125
     20          1           0        2.899407   -0.423504    1.463365
     21          1           0        4.061728   -0.051785    0.172837
     22          1           0        3.207224   -2.153842   -0.325254
     23          1           0        0.896450   -2.579222   -0.742320
     24          1           0        1.218729   -2.292417    0.968721
     25          1           0       -2.660349   -2.502970    0.265588
     26          1           0       -1.415706   -2.907624   -0.916131
     27          1           0       -1.053131   -2.984938    0.805668
     28          1           0        0.750112    3.425279    0.846842
     29          1           0        0.850401    3.357669   -0.909667
     30          1           0       -0.669136    3.825192   -0.129966
 ---------------------------------------------------------------------

 SCF Done:  E(UB3LYP) =  -522.456917380     A.U. after   33 cycles
 SCF Done:  E(UB3LYP) =  -522.456917380     a.u. after    1 cycles

 The electronic state is 2-A.
 Alpha  occ. eigenvalues --  -14.19140 -10.08890 -10.08545 -10.07310 -10.07276
 Alpha  occ. eigenvalues --  -10.07159 -10.07043 -10.06906 -10.06903 -10.06673
 Alpha  occ. eigenvalues --  -10.06477 -10.06204 -10.06012  -0.81145  -0.75691
 Alpha  occ. eigenvalues --   -0.69815  -0.67148  -0.64855  -0.61939  -0.59473
 Alpha  occ. eigenvalues --   -0.55029  -0.54386  -0.50963  -0.46008  -0.44020
 Alpha  occ. eigenvalues --   -0.40838  -0.37407  -0.36929  -0.35351  -0.34237
 Alpha  occ. eigenvalues --   -0.32784  -0.31991  -0.31677  -0.31042  -0.30280
 Alpha  occ. eigenvalues --   -0.29639  -0.28968  -0.28042  -0.27715  -0.27267
 Alpha  occ. eigenvalues --   -0.26139  -0.25462  -0.22503  -0.21846  -0.21270
 Alpha  occ. eigenvalues --   -0.13550  -0.12565  -0.12022   0.04490
 Alpha virt. eigenvalues --    0.06362   0.06664   0.08134   0.08425   0.08819
 Alpha virt. eigenvalues --    0.09362   0.09609   0.10087   0.10395   0.10507
 Alpha virt. eigenvalues --    0.11388   0.11453   0.12618   0.12686   0.13443

  Beta  occ. eigenvalues --  -14.19111 -10.08866 -10.08518 -10.07307 -10.07276
  Beta  occ. eigenvalues --  -10.07158 -10.07040 -10.06901 -10.06886 -10.06645
  Beta  occ. eigenvalues --  -10.06466 -10.06174 -10.06003  -0.81106  -0.75674
  Beta  occ. eigenvalues --   -0.69794  -0.67120  -0.64819  -0.61901  -0.59428
  Beta  occ. eigenvalues --   -0.54984  -0.54337  -0.50911  -0.45965  -0.43969
  Beta  occ. eigenvalues --   -0.40789  -0.37374  -0.36899  -0.35309  -0.34193
  Beta  occ. eigenvalues --   -0.32755  -0.31961  -0.31646  -0.31008  -0.30248
  Beta  occ. eigenvalues --   -0.29610  -0.28943  -0.28011  -0.27687  -0.27227
  Beta  occ. eigenvalues --   -0.26104  -0.25431  -0.22480  -0.21818  -0.21243
  Beta  occ. eigenvalues --   -0.13514  -0.12538  -0.11978
  Beta virt. eigenvalues --    0.06498   0.07239   0.07488   0.08790   0.08916
  Beta virt. eigenvalues --    0.09151   0.09607   0.09736   0.10394   0.10881
  Beta virt. eigenvalues --    0.10981   0.11663   0.11735   0.12932   0.13078

 Mulliken charges and spin densities:
               1          2
     1  C    1.651148  -2.161174
     2  C    0.028959   0.725610
     3  C   -0.974239  -0.491550
     4  C    0.935841  -0.210957
     5  C    1.444295  -0.793018
     6  C   -2.239656   1.559228
     7  C    1.454849  -1.896606
     8  N   -0.320131   0.235886
     9  C   -0.151857  -0.254141
    10  C   -1.258399   0.887653
    11  C   -2.254963   2.649803
    12  C    1.882822  -2.558743
    13  C    0.934410  -1.481452
    14  H   -0.342408   0.504497
    15  H   -0.047013   0.199461
    16  H   -0.080563   0.237982
    17  H    0.025711   0.007755
    18  H   -0.010118   0.128582
    19  H    0.159400   0.035221
    20  H   -0.018312   0.123123
    21  H   -0.703905   0.891120
    22  H   -0.262632   0.522565
    23  H   -0.002197   0.180715
    24  H   -0.196254   0.364063
    25  H   -0.220022   0.372974
    26  H   -0.065743   0.237951
    27  H   -0.138802   0.295287
    28  H   -0.002414   0.158601
    29  H   -0.006228   0.156847
    30  H   -0.221578   0.372718
 Sum of Mulliken charges =  -1.00000   1.00000

 Dipole moment (field-independent basis, Debye):
    X=             -1.9818    Y=              2.8581    Z=             -0.2013  Tot=              3.4838
 Quadrupole moment (field-independent basis, Debye-Ang):
   XX=           -153.4192   YY=           -130.4386   ZZ=           -108.6393
   XY=              4.3764   XZ=             -0.1190   YZ=              0.5715

 Summary of Natural Population Analysis:

                                       Natural Population
                Natural  -----------------------------------------------
    Atom  No    Charge         Core      Valence    Rydberg      Total
 -----------------------------------------------------------------------
      C    1   -0.29211      0.99964     2.28750    0.00497     3.29211
      C    2   -0.01627      0.99947     2.00637    0.01043     3.01627
      C    3   -0.09960      0.99947     2.09182    0.00831     3.09960
      C    4   -0.01334      0.99947     2.00528    0.00859     3.01334
      C    5   -0.01266      0.99944     2.00433    0.00889     3.01266
      C    6   -0.20036      0.99960     2.19130    0.00946     3.20036
      C    7   -0.08421      0.99963     2.07279    0.01178     3.08421
      N    8   -0.33668      0.99974     2.82456    0.01239     3.83668
      C    9   -0.09283      0.99959     2.08162    0.01163     3.09283
      C   10   -0.00873      0.99944     1.99909    0.01020     3.00873
      C   11   -0.01533      0.99944     2.00558    0.01031     3.01533
      C   12   -0.29856      0.99964     2.29308    0.00584     3.29856
      C   13   -0.29170      0.99964     2.28743    0.00463     3.29170
      H   14    0.10084      0.00000     0.39810    0.00106     0.39916
      H   15    0.10271      0.00000     0.39589    0.00140     0.39729
      H   16    0.10314      0.00000     0.39544    0.00142     0.39686
      H   17    0.09340      0.00000     0.40524    0.00136     0.40660
      H   18    0.10116      0.00000     0.39752    0.00133     0.39884
      H   19    0.10307      0.00000     0.39543    0.00150     0.39693
      H   20    0.07674      0.00000     0.42128    0.00198     0.42326
      H   21    0.09661      0.00000     0.40164    0.00175     0.40339
      H   22    0.17797      0.00000     0.31738    0.00465     0.32203
      H   23    0.10068      0.00000     0.39783    0.00149     0.39932
      H   24    0.08615      0.00000     0.41180    0.00205     0.41385
      H   25    0.10465      0.00000     0.39430    0.00106     0.39535
      H   26    0.10473      0.00000     0.39410    0.00117     0.39527
      H   27    0.10527      0.00000     0.39351    0.00122     0.39473
      H   28    0.10235      0.00000     0.39622    0.00142     0.39765
      H   29    0.10233      0.00000     0.39640    0.00127     0.39767
      H   30    0.10060      0.00000     0.39846    0.00094     0.39940
 =======================================================================
   * Total *   -0.00000     12.99421    34.86129    0.14450    48.00000

 Normal termination of Gaussian 16 at Wed Dec  9 23:06:44 2020.
