 Gaussian 16, Revision A.03,

 -----------------------------------------------------------
 # opt freq B3LYP/6-31G(d) empiricaldispersion=gd3bj scf=xqc
 -----------------------------------------------------------

 -------------------------------
 CID_101141859_JID_9221_neutraal
 -------------------------------
 Symbolic Z-matrix:
 Charge =  0 Multiplicity = 1

 SCF Done:  E(RB3LYP) =  -951.438583263     A.U. after   15 cycles
 SCF Done:  E(RB3LYP) =  -951.442207531     A.U. after   13 cycles
 SCF Done:  E(RB3LYP) =  -951.443537755     A.U. after   13 cycles
 SCF Done:  E(RB3LYP) =  -951.445213142     A.U. after   12 cycles
 SCF Done:  E(RB3LYP) =  -951.444584227     A.U. after   12 cycles
 SCF Done:  E(RB3LYP) =  -951.445429695     A.U. after   11 cycles
 SCF Done:  E(RB3LYP) =  -951.445497853     A.U. after   12 cycles
 SCF Done:  E(RB3LYP) =  -951.445555842     A.U. after   12 cycles
 SCF Done:  E(RB3LYP) =  -951.445598880     A.U. after   10 cycles
 SCF Done:  E(RB3LYP) =  -951.445613660     A.U. after   10 cycles
 SCF Done:  E(RB3LYP) =  -951.445627743     A.U. after    9 cycles
 SCF Done:  E(RB3LYP) =  -951.445628015     A.U. after    7 cycles
 SCF Done:  E(RB3LYP) =  -951.445628142     A.U. after    7 cycles
 SCF Done:  E(RB3LYP) =  -951.445628210     A.U. after    7 cycles
 SCF Done:  E(RB3LYP) =  -951.445628245     A.U. after    7 cycles
 SCF Done:  E(RB3LYP) =  -951.445628268     A.U. after    7 cycles
 Optimization completed.
    -- Stationary point found.
 Normal termination of Gaussian 16 at Sun Dec 13 12:38:31 2020.

 --------------------------------------------------------------------
 #N Geom=AllCheck Guess=TCheck SCRF=Check GenChk RB3LYP/6-31G(d) Freq
 --------------------------------------------------------------------

 Structure from the checkpoint file:  "JID_9221.chk"
 -------------------------------
 CID_101141859_JID_9221_neutraal
 -------------------------------
 Charge =  0 Multiplicity = 1

 SCF Done:  E(RB3LYP) =  -951.445628268     A.U. after    1 cycles

  Exact polarizability: 238.819  -2.425 193.094   3.450  -0.001  76.171
 Approx polarizability: 356.962   4.498 277.558  12.867   2.862 114.834

                      1                      2                      3
                      A                      A                      A
 Frequencies --     21.8356                37.0686                47.3140
 Red. masses --      4.4560                 3.7417                 5.1893
 Frc consts  --      0.0013                 0.0030                 0.0068
 IR Inten    --      2.7329                 1.7376                 1.0580

                      4                      5                      6
                      A                      A                      A
 Frequencies --     66.0982                68.7559                87.1198
 Red. masses --      5.4404                 6.3344                 4.3486
 Frc consts  --      0.0140                 0.0176                 0.0194
 IR Inten    --      1.0674                 0.5141                 0.5755

                      7                      8                      9
                      A                      A                      A
 Frequencies --    109.9301               122.8618               133.0617
 Red. masses --      4.0735                 3.0946                 1.4400
 Frc consts  --      0.0290                 0.0275                 0.0150
 IR Inten    --      2.0209                 1.0588                 0.9026

                     10                     11                     12
                      A                      A                      A
 Frequencies --    146.8454               160.4622               175.6175
 Red. masses --      1.4510                 2.1647                 3.7764
 Frc consts  --      0.0184                 0.0328                 0.0686
 IR Inten    --      0.0541                 0.4074                 5.2335

                     13                     14                     15
                      A                      A                      A
 Frequencies --    198.3294               226.4685               237.4155
 Red. masses --      4.0515                 1.1386                 4.2745
 Frc consts  --      0.0939                 0.0344                 0.1420
 IR Inten    --      1.1056                 0.4422                 7.5193

                     16                     17                     18
                      A                      A                      A
 Frequencies --    248.4294               283.8613               300.1743
 Red. masses --      5.9509                 7.2006                 5.4757
 Frc consts  --      0.2164                 0.3418                 0.2907
 IR Inten    --      1.7511                 2.4017                10.6221

                     19                     20                     21
                      A                      A                      A
 Frequencies --    328.8073               345.4444               393.3083
 Red. masses --      5.4016                 4.4661                 4.6402
 Frc consts  --      0.3441                 0.3140                 0.4229
 IR Inten    --      4.6141                 3.9304                 1.0823

                     22                     23                     24
                      A                      A                      A
 Frequencies --    401.7863               460.2795               486.2622
 Red. masses --      8.1295                 3.2383                 5.3618
 Frc consts  --      0.7732                 0.4042                 0.7470
 IR Inten    --     41.2112                 0.8046                15.6301

                     25                     26                     27
                      A                      A                      A
 Frequencies --    528.3482               545.3443               558.2770
 Red. masses --      3.9977                 2.5056                 3.5513
 Frc consts  --      0.6575                 0.4390                 0.6521
 IR Inten    --     25.2991                 8.5431                 8.6562

                     28                     29                     30
                      A                      A                      A
 Frequencies --    637.0645               657.7011               677.5020
 Red. masses --      5.6763                 6.9956                 1.5346
 Frc consts  --      1.3573                 1.7829                 0.4150
 IR Inten    --      3.3270                 5.0093                78.7144

                     31                     32                     33
                      A                      A                      A
 Frequencies --    694.6591               713.5621               740.0564
 Red. masses --      5.0227                 4.0996                 5.3039
 Frc consts  --      1.4280                 1.2299                 1.7115
 IR Inten    --     13.1204                18.6504                15.8331

                     34                     35                     36
                      A                      A                      A
 Frequencies --    746.2003               767.0990               798.3477
 Red. masses --      6.4905                 4.5564                 4.4397
 Frc consts  --      2.1293                 1.5797                 1.6672
 IR Inten    --     18.2176                 6.1166                 3.5056

                     37                     38                     39
                      A                      A                      A
 Frequencies --    829.0318               836.4016               843.2765
 Red. masses --      1.6472                 1.1664                 5.2990
 Frc consts  --      0.6670                 0.4807                 2.2201
 IR Inten    --      2.1560               114.5934                 9.6897

                     40                     41                     42
                      A                      A                      A
 Frequencies --    858.6519               874.2324               932.3501
 Red. masses --      4.7440                 1.5239                 4.6315
 Frc consts  --      2.0608                 0.6862                 2.3721
 IR Inten    --      4.1478                16.9105                16.1712

                     43                     44                     45
                      A                      A                      A
 Frequencies --    966.3306              1003.3580              1029.0530
 Red. masses --      1.2879                 6.8102                 2.0812
 Frc consts  --      0.7086                 4.0395                 1.2985
 IR Inten    --      1.3370                 2.6352                16.5951

                     46                     47                     48
                      A                      A                      A
 Frequencies --   1054.4668              1068.8109              1093.2063
 Red. masses --      2.0608                 1.7214                 7.2972
 Frc consts  --      1.3501                 1.1586                 5.1382
 IR Inten    --     43.8177                12.7201               151.0144

                     49                     50                     51
                      A                      A                      A
 Frequencies --   1135.5223              1185.5521              1188.9644
 Red. masses --      3.8364                 1.2697                 1.2642
 Frc consts  --      2.9145                 1.0514                 1.0530
 IR Inten    --     18.2661                 0.8150                 1.1042

                     52                     53                     54
                      A                      A                      A
 Frequencies --   1195.0733              1222.1204              1225.9323
 Red. masses --      1.7058                 1.4908                 1.6238
 Frc consts  --      1.4354                 1.3119                 1.4378
 IR Inten    --    159.4704                81.6759                50.1160

                     55                     56                     57
                      A                      A                      A
 Frequencies --   1239.8308              1268.2424              1310.6256
 Red. masses --      1.8176                 1.9673                 4.3132
 Frc consts  --      1.6462                 1.8643                 4.3652
 IR Inten    --    108.5420               150.2105               774.8975

                     58                     59                     60
                      A                      A                      A
 Frequencies --   1339.9101              1360.1470              1377.8481
 Red. masses --      3.2089                 2.3917                 3.9394
 Frc consts  --      3.3944                 2.6069                 4.4064
 IR Inten    --    595.2953               116.5925               230.9130

                     61                     62                     63
                      A                      A                      A
 Frequencies --   1387.6784              1426.0139              1439.6163
 Red. masses --      3.8118                 1.4270                 2.2266
 Frc consts  --      4.3247                 1.7097                 2.7189
 IR Inten    --    223.8651               116.9413                10.5585

                     64                     65                     66
                      A                      A                      A
 Frequencies --   1494.5396              1497.9177              1500.0362
 Red. masses --      1.2326                 1.9011                 1.3140
 Frc consts  --      1.6221                 2.5132                 1.7420
 IR Inten    --     33.6308                70.4433                39.0122

                     67                     68                     69
                      A                      A                      A
 Frequencies --   1504.7618              1511.2619              1511.9364
 Red. masses --      1.1442                 1.0482                 1.0479
 Frc consts  --      1.5265                 1.4105                 1.4113
 IR Inten    --     10.4988                 5.4774                 6.4299

                     70                     71                     72
                      A                      A                      A
 Frequencies --   1516.6383              1524.6834              1527.6633
 Red. masses --      1.0715                 1.0494                 1.0531
 Frc consts  --      1.4521                 1.4373                 1.4481
 IR Inten    --      8.7918                10.9816                 5.2694

                     73                     74                     75
                      A                      A                      A
 Frequencies --   1541.8920              1585.2565              1640.2033
 Red. masses --      2.7443                 2.4628                 3.1743
 Frc consts  --      3.8440                 3.6465                 5.0314
 IR Inten    --     68.9637               168.5376               181.4454

                     76                     77                     78
                      A                      A                      A
 Frequencies --   1671.3062              1755.3198              1797.7657
 Red. masses --      6.0425                 8.5961                 7.7562
 Frc consts  --      9.9444                15.6051                14.7696
 IR Inten    --    378.9855               478.7944               421.5432

                     79                     80                     81
                      A                      A                      A
 Frequencies --   1827.2326              3068.7052              3079.0784
 Red. masses --      7.2891                 1.0396                 1.0293
 Frc consts  --     14.3387                 5.7681                 5.7494
 IR Inten    --    490.1442                 2.4395                42.5971

                     82                     83                     84
                      A                      A                      A
 Frequencies --   3081.8900              3138.3133              3155.2408
 Red. masses --      1.0287                 1.0971                 1.1077
 Frc consts  --      5.7567                 6.3661                 6.4974
 IR Inten    --     37.6439                 7.0374                18.5887

                     85                     86                     87
                      A                      A                      A
 Frequencies --   3161.0488              3176.6252              3183.9334
 Red. masses --      1.1081                 1.1037                 1.1080
 Frc consts  --      6.5238                 6.5621                 6.6177
 IR Inten    --     18.0345                 9.7191                13.7014

                     88                     89                     90
                      A                      A                      A
 Frequencies --   3185.8779              3241.4434              3260.6234
 Red. masses --      1.1074                 1.0883                 1.0931
 Frc consts  --      6.6226                 6.7374                 6.8474
 IR Inten    --     17.0004                 0.6259                 4.7514

                     91                     92                     93
                      A                      A                      A
 Frequencies --   3275.6891              3431.7341              3579.2894
 Red. masses --      1.0895                 1.0790                 1.0754
 Frc consts  --      6.8880                 7.4869                 8.1176
 IR Inten    --      7.4889               275.8358                25.0726

 - Thermochemistry -
 -------------------
 Temperature   298.150 Kelvin.  Pressure   1.00000 Atm.
 Atom     1 has atomic number  6 and mass  12.00000

 Molecular mass:   266.09027 amu.
 Principal axes and moments of inertia in atomic units:
                           1         2         3
     Eigenvalues --  4678.191727050.97595**********
           X            0.99992  -0.01187  -0.00398
           Y            0.01186   0.99992  -0.00342
           Z            0.00402   0.00337   0.99999
 This molecule is an asymmetric top.
 Rotational symmetry number  1.
 Warning -- assumption of classical behavior for rotation
           may cause significant error
 Rotational temperatures (Kelvin)      0.01851     0.01228     0.00748
 Rotational constants (GHZ):           0.38578     0.25596     0.15588
 Zero-point vibrational energy     683497.5 (Joules/Mol)
                                  163.35982 (Kcal/Mol)
 Warning -- explicit consideration of  27 degrees of freedom as
           vibrations may cause significant error
 Vibrational temperatures:     31.42    53.33    68.07    95.10    98.92
          (Kelvin)            125.35   158.16   176.77   191.45   211.28
                              230.87   252.67   285.35   325.84   341.59
                              357.43   408.41   431.88   473.08   497.02
                              565.88   578.08   662.24   699.62   760.18
                              784.63   803.24   916.59   946.29   974.77
                              999.46  1026.66  1064.78  1073.62  1103.68
                             1148.64  1192.79  1203.40  1213.29  1235.41
                             1257.83  1341.44  1390.33  1443.61  1480.58
                             1517.14  1537.78  1572.88  1633.76  1705.74
                             1710.65  1719.44  1758.36  1763.84  1783.84
                             1824.72  1885.70  1927.83  1956.95  1982.42
                             1996.56  2051.72  2071.29  2150.31  2155.17
                             2158.22  2165.02  2174.37  2175.34  2182.10
                             2193.68  2197.97  2218.44  2280.83  2359.89
                             2404.64  2525.51  2586.58  2628.98  4415.18
                             4430.11  4434.15  4515.33  4539.69  4548.04
                             4570.46  4580.97  4583.77  4663.71  4691.31
                             4712.99  4937.50  5149.80

 Zero-point correction=                           0.260330 (Hartree/Particle)
 Thermal correction to Energy=                    0.279253
 Thermal correction to Enthalpy=                  0.280197
 Thermal correction to Gibbs Free Energy=         0.211031
 Sum of electronic and zero-point Energies=           -951.185298
 Sum of electronic and thermal Energies=              -951.166376
 Sum of electronic and thermal Enthalpies=            -951.165431
 Sum of electronic and thermal Free Energies=         -951.234597

                     E (Thermal)             CV                S
                      KCal/Mol        Cal/Mol-Kelvin    Cal/Mol-Kelvin
 Total                  175.234             68.042            145.572
 Electronic               0.000              0.000              0.000
 Translational            0.889              2.981             42.635
 Rotational               0.889              2.981             34.301
 Vibrational            173.456             62.080             68.636
 Vibration     1          0.593              1.985              6.460
 Vibration     2          0.594              1.982              5.410
 Vibration     3          0.595              1.979              4.927
 Vibration     4          0.597              1.970              4.266
 Vibration     5          0.598              1.969              4.189
 Vibration     6          0.601              1.958              3.724
 Vibration     7          0.606              1.941              3.270
 Vibration     8          0.610              1.930              3.055
 Vibration     9          0.613              1.920              2.901
 Vibration    10          0.617              1.906              2.713
 Vibration    11          0.622              1.891              2.544
 Vibration    12          0.628              1.872              2.374
 Vibration    13          0.637              1.842              2.149
 Vibration    14          0.650              1.801              1.907
 Vibration    15          0.656              1.783              1.822
 Vibration    16          0.662              1.765              1.742
 Vibration    17          0.682              1.704              1.510
 Vibration    18          0.693              1.673              1.416
 Vibration    19          0.712              1.618              1.266
 Vibration    20          0.724              1.585              1.187
 Vibration    21          0.761              1.484              0.988
 Vibration    22          0.767              1.466              0.956
 Vibration    23          0.818              1.338              0.765
 Vibration    24          0.842              1.281              0.693
 Vibration    25          0.883              1.187              0.591
 Vibration    26          0.901              1.150              0.554
 Vibration    27          0.914              1.122              0.527

 Optimization completed.
    -- Stationary point found.
 Normal termination of Gaussian 16 at Sun Dec 13 12:53:11 2020.

 ----------------------------------------------------------------------
 # B3LYP/6-311++G(d,p) empiricaldispersion=gd3bj scf=xqc pop=npa geom=c
 heck
 ----------------------------------------------------------------------

 ---------------------------------------
 CID_101141859_JID_9221_Energie_neutraal
 ---------------------------------------
 Structure from the checkpoint file:  "JID_9221.chk"
 Charge =  0 Multiplicity = 1

 SCF Done:  E(RB3LYP) =  -951.724595000     A.U. after   16 cycles
 Normal termination of Gaussian 16 at Sun Dec 13 12:59:45 2020.

 ----------------------------------------------------------------------
 # B3LYP/6-311++G(d,p) empiricaldispersion=gd3bj scf=xqc pop=npa geom=c
 heck
 ----------------------------------------------------------------------

 -------------------------------------
 CID_101141859_JID_9221_Energie_kation
 -------------------------------------
 Structure from the checkpoint file:  "JID_9221.chk"
 Charge =  1 Multiplicity = 2

 SCF Done:  E(UB3LYP) =  -951.423630865     A.U. after   27 cycles
 Normal termination of Gaussian 16 at Sun Dec 13 13:15:54 2020.
 Gaussian 16:  ES64L-G16RevA.03 25-Dec-2016

 ----------------------------------------------------------------------
 # B3LYP/6-311++G(d,p) empiricaldispersion=gd3bj scf=xqc pop=npa geom=c
 heck
 ----------------------------------------------------------------------

 ------------------------------------
 CID_101141859_JID_9221_Energie_anion
 ------------------------------------
 Structure from the checkpoint file:  "JID_9221.chk"
 Charge = -1 Multiplicity = 2

                         Standard orientation:
 ---------------------------------------------------------------------
 Center     Atomic      Atomic             Coordinates (Angstroms)
 Number     Number       Type             X           Y           Z
 ---------------------------------------------------------------------
      1          6           0       -4.299582   -1.783258    0.767672
      2          6           0       -4.285208   -0.447702    0.054205
      3          8           0       -5.305143    0.192746   -0.146169
      4          7           0       -3.070215    0.081432   -0.364498
      5          6           0       -1.747738   -0.372543   -0.256861
      6          6           0       -0.751626    0.601552   -0.136986
      7          6           0        0.603085    0.257510   -0.058064
      8          6           0        0.958155   -1.125532   -0.086455
      9          6           0       -0.062106   -2.079676   -0.219824
     10          6           0       -1.397178   -1.731021   -0.317627
     11          6           0        2.361550   -1.571200    0.007820
     12          8           0        3.340743   -0.840567    0.123734
     13          8           0        2.491286   -2.913290   -0.044167
     14          6           0        3.837768   -3.404176    0.042651
     15          7           0        1.622827    1.197225    0.064297
     16          6           0        1.645189    2.575118    0.093423
     17          8           0        2.679877    3.201757    0.206030
     18          8           0        0.424817    3.149995   -0.015309
     19          6           0        0.444847    4.586417    0.015507
     20          1           0       -5.222788   -1.829597    1.347037
     21          1           0       -3.435679   -1.921545    1.422599
     22          1           0       -4.313263   -2.604336    0.042169
     23          1           0       -3.185088    1.033834   -0.692935
     24          1           0       -1.034448    1.642089   -0.087688
     25          1           0        0.219181   -3.124123   -0.266886
     26          1           0       -2.144703   -2.495651   -0.475418
     27          1           0        4.439932   -3.019433   -0.784105
     28          1           0        4.295806   -3.100951    0.987317
     29          1           0        3.752703   -4.489346   -0.014266
     30          1           0        2.556674    0.789355    0.132777
     31          1           0        0.866825    4.942724    0.957934
     32          1           0        1.038890    4.978101   -0.813267
     33          1           0       -0.597908    4.890225   -0.079583
 ---------------------------------------------------------------------

 SCF Done:  E(UB3LYP) =  -951.741867983     A.U. after   24 cycles

 The electronic state is 2-A.
 Alpha  occ. eigenvalues --  -19.06644 -19.02907 -18.98554 -18.96979 -18.95446
 Alpha  occ. eigenvalues --  -14.22514 -14.21829 -10.20783 -10.15441 -10.13727
 Alpha  occ. eigenvalues --  -10.13709 -10.11407 -10.08866 -10.07079 -10.07005
 Alpha  occ. eigenvalues --  -10.03592 -10.03366 -10.03276 -10.03184  -1.00874
 Alpha  occ. eigenvalues --   -0.96933  -0.92582  -0.91198  -0.87463  -0.81960
 Alpha  occ. eigenvalues --   -0.81127  -0.71063  -0.64342  -0.63903  -0.63121
 Alpha  occ. eigenvalues --   -0.61142  -0.59566  -0.51970  -0.51440  -0.47931
 Alpha  occ. eigenvalues --   -0.46408  -0.44974  -0.42166  -0.41205  -0.39827
 Alpha  occ. eigenvalues --   -0.39188  -0.36984  -0.36310  -0.36219  -0.35404
 Alpha  occ. eigenvalues --   -0.34740  -0.34066  -0.33406  -0.31767  -0.31609
 Alpha  occ. eigenvalues --   -0.30582  -0.30082  -0.29213  -0.28958  -0.28217
 Alpha  occ. eigenvalues --   -0.27236  -0.26656  -0.26048  -0.24495  -0.23293
 Alpha  occ. eigenvalues --   -0.21810  -0.21263  -0.20417  -0.18092  -0.17769
 Alpha  occ. eigenvalues --   -0.16636  -0.14799  -0.14055  -0.10719  -0.09382
 Alpha  occ. eigenvalues --    0.03843
 Alpha virt. eigenvalues --    0.07095   0.07759   0.08216   0.10058   0.10268
 Alpha virt. eigenvalues --    0.10668   0.11002   0.11140   0.11481   0.11972
 Alpha virt. eigenvalues --    0.12100   0.12664   0.13201   0.13432   0.14377

  Beta  occ. eigenvalues --  -19.06644 -19.02819 -18.98507 -18.96810 -18.95091
  Beta  occ. eigenvalues --  -14.22597 -14.21840 -10.20736 -10.15290 -10.13727
  Beta  occ. eigenvalues --  -10.13410 -10.11412 -10.08681 -10.07018 -10.06629
  Beta  occ. eigenvalues --  -10.03690 -10.03340 -10.03163 -10.03043  -1.00836
  Beta  occ. eigenvalues --   -0.96602  -0.92287  -0.91136  -0.86937  -0.81808
  Beta  occ. eigenvalues --   -0.80946  -0.70753  -0.64088  -0.63812  -0.62885
  Beta  occ. eigenvalues --   -0.60923  -0.59347  -0.51670  -0.51109  -0.47736
  Beta  occ. eigenvalues --   -0.46234  -0.44757  -0.42014  -0.41129  -0.39626
  Beta  occ. eigenvalues --   -0.39118  -0.36854  -0.36149  -0.35787  -0.35331
  Beta  occ. eigenvalues --   -0.34393  -0.33831  -0.33299  -0.31551  -0.31435
  Beta  occ. eigenvalues --   -0.30468  -0.29952  -0.29061  -0.28766  -0.27258
  Beta  occ. eigenvalues --   -0.26956  -0.26288  -0.25806  -0.23611  -0.23101
  Beta  occ. eigenvalues --   -0.21674  -0.20975  -0.19817  -0.17726  -0.16835
  Beta  occ. eigenvalues --   -0.15960  -0.14650  -0.13731  -0.10009  -0.08324
  Beta virt. eigenvalues --    0.07059   0.07742   0.08190   0.09451   0.10229
  Beta virt. eigenvalues --    0.10279   0.10869   0.11008   0.11263   0.11650
  Beta virt. eigenvalues --    0.11996   0.12181   0.13183   0.13384   0.13920

 Mulliken charges and spin densities:
               1          2
     1  C   -0.471685  -0.007589
     2  C    0.078315   0.078424
     3  O   -0.379303   0.058342
     4  N   -0.192238  -0.037985
     5  C    0.147256   0.240960
     6  C   -0.785683  -0.069379
     7  C    0.043503   0.122869
     8  C    0.428639   0.093641
     9  C   -0.498462   0.209152
    10  C   -0.376220  -0.044911
    11  C    0.071130   0.149069
    12  O   -0.378219   0.116876
    13  O   -0.150374   0.016154
    14  C   -0.210807  -0.002899
    15  N   -0.430853  -0.000312
    16  C    0.229028   0.020748
    17  O   -0.329608   0.016408
    18  O   -0.145335   0.000671
    19  C   -0.219980  -0.002653
    20  H    0.157987   0.000522
    21  H    0.166656   0.000627
    22  H    0.140450   0.015951
    23  H    0.245391   0.024387
    24  H    0.267557  -0.000440
    25  H    0.180139  -0.009298
    26  H    0.091191   0.003153
    27  H    0.160306   0.002549
    28  H    0.160221   0.002518
    29  H    0.117458  -0.000448
    30  H    0.429597  -0.000818
    31  H    0.172373   0.000152
    32  H    0.167794   0.001200
    33  H    0.113777   0.002356
 Sum of Mulliken charges =  -1.00000   1.00000

 Dipole moment (field-independent basis, Debye):
    X=              0.4965    Y=             -0.1240    Z=              0.3335  Tot=              0.6108
 Quadrupole moment (field-independent basis, Debye-Ang):
   XX=           -189.0882   YY=           -120.1655   ZZ=           -117.1981
   XY=             -6.7499   XZ=             -4.1585   YZ=             -1.8716

 Summary of Natural Population Analysis:

                                       Natural Population
                Natural  -----------------------------------------------
    Atom  No    Charge         Core      Valence    Rydberg      Total
 -----------------------------------------------------------------------
      C    1   -0.33534      0.99963     2.33156    0.00414     3.33534
      C    2    0.36026      0.99972     1.61929    0.02073     2.63974
      O    3   -0.31583      0.99988     3.30921    0.00674     4.31583
      N    4   -0.31777      0.99965     2.80831    0.00981     3.81777
      C    5    0.16066      0.99949     1.83044    0.00941     2.83934
      C    6   -0.16542      0.99953     2.15818    0.00770     3.16542
      C    7    0.14566      0.99940     1.84447    0.01047     2.85434
      C    8   -0.08325      0.99946     2.07473    0.00906     3.08325
      C    9   -0.02929      0.99956     2.02134    0.00839     3.02929
      C   10   -0.16353      0.99954     2.15564    0.00836     3.16353
      C   11    0.43748      0.99963     1.54049    0.02239     2.56252
      O   12   -0.31335      0.99987     3.30693    0.00656     4.31335
      O   13   -0.27938      0.99986     3.27076    0.00876     4.27938
      C   14   -0.10399      0.99961     2.09576    0.00862     3.10399
      N   15   -0.31805      0.99961     2.81028    0.00816     3.81805
      C   16    0.46686      0.99972     1.51000    0.02342     2.53314
      O   17   -0.33165      0.99987     3.32604    0.00574     4.33165
      O   18   -0.28696      0.99986     3.27794    0.00916     4.28696
      C   19   -0.10222      0.99961     2.09442    0.00819     3.10222
      H   20    0.10670      0.00000     0.39221    0.00109     0.39330
      H   21    0.11161      0.00000     0.38741    0.00098     0.38839
      H   22    0.10706      0.00000     0.39212    0.00082     0.39294
      H   23    0.19536      0.00000     0.30305    0.00158     0.30464
      H   24    0.11061      0.00000     0.38854    0.00085     0.38939
      H   25    0.10110      0.00000     0.39792    0.00097     0.39890
      H   26    0.09538      0.00000     0.40322    0.00140     0.40462
      H   27    0.08734      0.00000     0.41138    0.00128     0.41266
      H   28    0.08740      0.00000     0.41132    0.00128     0.41260
      H   29    0.08169      0.00000     0.41743    0.00088     0.41831
      H   30    0.22499      0.00000     0.27321    0.00181     0.27501
      H   31    0.08950      0.00000     0.40938    0.00112     0.41050
      H   32    0.08946      0.00000     0.40942    0.00112     0.41054
      H   33    0.08694      0.00000     0.41225    0.00080     0.41306
 =======================================================================
   * Total *    0.00004     18.99349    50.79468    0.21179    69.99996

 Normal termination of Gaussian 16 at Sun Dec 13 13:30:04 2020.
