 Gaussian 16, Revision A.03,

 -----------------------------------------------------------
 # opt freq B3LYP/6-31G(d) empiricaldispersion=gd3bj scf=xqc
 -----------------------------------------------------------

 ------------------------------
 CID_64522335_JID_2131_neutraal
 ------------------------------
 Symbolic Z-matrix:
 Charge =  0 Multiplicity = 1

 SCF Done:  E(RB3LYP) =  -518.917844183     A.U. after   15 cycles
 SCF Done:  E(RB3LYP) =  -518.920107701     A.U. after   13 cycles
 SCF Done:  E(RB3LYP) =  -518.919617631     A.U. after   13 cycles
 SCF Done:  E(RB3LYP) =  -518.920333963     A.U. after   12 cycles
 SCF Done:  E(RB3LYP) =  -518.920375099     A.U. after   11 cycles
 SCF Done:  E(RB3LYP) =  -518.920385382     A.U. after   11 cycles
 SCF Done:  E(RB3LYP) =  -518.920395645     A.U. after   11 cycles
 SCF Done:  E(RB3LYP) =  -518.920402783     A.U. after   12 cycles
 SCF Done:  E(RB3LYP) =  -518.920414016     A.U. after   12 cycles
 SCF Done:  E(RB3LYP) =  -518.920469934     A.U. after   13 cycles
 SCF Done:  E(RB3LYP) =  -518.921177796     A.U. after   11 cycles
 SCF Done:  E(RB3LYP) =  -518.921196570     A.U. after   11 cycles
 SCF Done:  E(RB3LYP) =  -518.921196765     A.U. after    9 cycles
 SCF Done:  E(RB3LYP) =  -518.921197042     A.U. after    9 cycles
 SCF Done:  E(RB3LYP) =  -518.921197061     A.U. after    7 cycles
 Optimization completed.
    -- Stationary point found.
 Normal termination of Gaussian 16 at Wed Dec  9 17:04:43 2020.

 --------------------------------------------------------------------
 #N Geom=AllCheck Guess=TCheck SCRF=Check GenChk RB3LYP/6-31G(d) Freq
 --------------------------------------------------------------------

 Structure from the checkpoint file:  "JID_2131.chk"
 ------------------------------
 CID_64522335_JID_2131_neutraal
 ------------------------------
 Charge =  0 Multiplicity = 1

 SCF Done:  E(RB3LYP) =  -518.921197061     A.U. after    1 cycles

  Exact polarizability: 134.231  11.892 102.211 -10.648  11.544  87.253
 Approx polarizability: 177.522  20.768 166.523 -23.241  35.736 145.719

                      1                      2                      3
                      A                      A                      A
 Frequencies --     31.2528                35.5606                53.2505
 Red. masses --      3.6945                 3.3848                 1.1154
 Frc consts  --      0.0021                 0.0025                 0.0019
 IR Inten    --      0.1598                 2.6098                 0.8936

                      4                      5                      6
                      A                      A                      A
 Frequencies --     77.6793               108.5863               137.3260
 Red. masses --      4.6470                 2.6144                 1.1584
 Frc consts  --      0.0165                 0.0182                 0.0129
 IR Inten    --      2.6748                 1.7578                 0.1323

                      7                      8                      9
                      A                      A                      A
 Frequencies --    181.9949               232.0608               308.3971
 Red. masses --      3.8411                 3.6310                 2.2002
 Frc consts  --      0.0750                 0.1152                 0.1233
 IR Inten    --      1.7380                 3.0412                 3.2643

                     10                     11                     12
                      A                      A                      A
 Frequencies --    341.2797               390.3039               421.1856
 Red. masses --      3.0536                 2.5522                 3.2746
 Frc consts  --      0.2095                 0.2291                 0.3423
 IR Inten    --      0.9520                 1.1868                 6.5965

                     13                     14                     15
                      A                      A                      A
 Frequencies --    430.8925               468.1328               490.5850
 Red. masses --      2.9013                 2.3377                 3.0377
 Frc consts  --      0.3174                 0.3018                 0.4307
 IR Inten    --      0.2026                 0.1488                 4.1066

                     16                     17                     18
                      A                      A                      A
 Frequencies --    555.4343               608.6532               661.1766
 Red. masses --      3.4319                 3.0878                 7.5055
 Frc consts  --      0.6238                 0.6740                 1.9331
 IR Inten    --     11.2087                 2.1503                 2.6149

                     19                     20                     21
                      A                      A                      A
 Frequencies --    719.8565               752.9100               760.8025
 Red. masses --      3.4838                 3.1564                 2.8757
 Frc consts  --      1.0636                 1.0542                 0.9807
 IR Inten    --      0.0680                 7.0457                 2.4583

                     22                     23                     24
                      A                      A                      A
 Frequencies --    833.7629               850.6628               885.7281
 Red. masses --      1.5367                 2.7779                 1.9269
 Frc consts  --      0.6294                 1.1843                 0.8907
 IR Inten    --      7.1133                 3.5964                 2.7196

                     25                     26                     27
                      A                      A                      A
 Frequencies --    946.5639               966.6855               977.8233
 Red. masses --      1.6341                 1.4749                 1.6033
 Frc consts  --      0.8626                 0.8121                 0.9032
 IR Inten    --      5.0833                 1.5784                 2.2391

                     28                     29                     30
                      A                      A                      A
 Frequencies --    981.2646              1016.6029              1038.0811
 Red. masses --      1.7427                 1.5697                 1.8887
 Frc consts  --      0.9886                 0.9558                 1.1991
 IR Inten    --      5.6342                 0.5952                 9.3828

                     31                     32                     33
                      A                      A                      A
 Frequencies --   1055.6245              1074.7025              1079.1821
 Red. masses --      2.7186                 1.6003                 2.0961
 Frc consts  --      1.7849                 1.0890                 1.4383
 IR Inten    --      7.8464                 7.3178                 5.8585

                     34                     35                     36
                      A                      A                      A
 Frequencies --   1168.9636              1188.9785              1214.0169
 Red. masses --      1.2817                 1.6070                 1.6120
 Frc consts  --      1.0319                 1.3385                 1.3998
 IR Inten    --      3.1204                39.5376                34.0847

                     37                     38                     39
                      A                      A                      A
 Frequencies --   1237.7170              1256.7387              1273.8198
 Red. masses --      2.4342                 1.6856                 2.3034
 Frc consts  --      2.1971                 1.5685                 2.2021
 IR Inten    --      9.8830                 1.6498                11.1470

                     40                     41                     42
                      A                      A                      A
 Frequencies --   1319.1314              1344.9761              1381.6716
 Red. masses --      4.2512                 1.4861                 1.4545
 Frc consts  --      4.3586                 1.5839                 1.6360
 IR Inten    --      3.4143                 9.3858                 7.1239

                     43                     44                     45
                      A                      A                      A
 Frequencies --   1394.5544              1414.4221              1438.5892
 Red. masses --      1.5043                 1.4481                 1.2759
 Frc consts  --      1.7237                 1.7069                 1.5558
 IR Inten    --      8.6916                40.0905                 0.1701

                     46                     47                     48
                      A                      A                      A
 Frequencies --   1442.8561              1483.4698              1493.8821
 Red. masses --      2.2280                 1.0853                 1.0543
 Frc consts  --      2.7329                 1.4071                 1.3862
 IR Inten    --     16.8673                11.2254                10.6747

                     49                     50                     51
                      A                      A                      A
 Frequencies --   1504.6137              1506.6125              1513.8726
 Red. masses --      1.0533                 1.0456                 1.1059
 Frc consts  --      1.4050                 1.3984                 1.4932
 IR Inten    --     11.0774                 4.6863                11.3666

                     52                     53                     54
                      A                      A                      A
 Frequencies --   1518.4608              1537.4552              1626.2173
 Red. masses --      1.1456                 2.5251                 5.1080
 Frc consts  --      1.5563                 3.5167                 7.9591
 IR Inten    --     16.7728                45.0978                13.9743

                     55                     56                     57
                      A                      A                      A
 Frequencies --   1661.1685              1815.8429              3023.7396
 Red. masses --      5.9008                10.1478                 1.0659
 Frc consts  --      9.5937                19.7142                 5.7417
 IR Inten    --     25.0808               107.7133                22.6879

                     58                     59                     60
                      A                      A                      A
 Frequencies --   3048.2025              3055.3039              3064.2824
 Red. masses --      1.0393                 1.0358                 1.0643
 Frc consts  --      5.6896                 5.6970                 5.8879
 IR Inten    --      3.4578                22.5012                27.2628

                     61                     62                     63
                      A                      A                      A
 Frequencies --   3075.2045              3106.9343              3114.9454
 Red. masses --      1.0945                 1.0986                 1.1008
 Frc consts  --      6.0984                 6.2483                 6.2930
 IR Inten    --     17.7038                11.3222                13.9041

                     64                     65                     66
                      A                      A                      A
 Frequencies --   3118.7961              3135.0422              3167.6775
 Red. masses --      1.0994                 1.1032                 1.1020
 Frc consts  --      6.3006                 6.3883                 6.5151
 IR Inten    --      9.0030                18.4031                 9.4321

                     67                     68                     69
                      A                      A                      A
 Frequencies --   3170.9787              3190.0652              3199.9885
 Red. masses --      1.0886                 1.0908                 1.0939
 Frc consts  --      6.4489                 6.5405                 6.5998
 IR Inten    --     15.9296                15.9654                16.6890

 - Thermochemistry -
 -------------------
 Temperature   298.150 Kelvin.  Pressure   1.00000 Atm.
 Atom     1 has atomic number  6 and mass  12.00000

 Molecular mass:   163.09971 amu.
 Principal axes and moments of inertia in atomic units:
                           1         2         3
     Eigenvalues --   972.247593601.553813881.64010
           X            0.99993   0.01066   0.00532
           Y           -0.01041   0.99888  -0.04626
           Z           -0.00581   0.04620   0.99892
 This molecule is an asymmetric top.
 Rotational symmetry number  1.
 Warning -- assumption of classical behavior for rotation
           may cause significant error
 Rotational temperatures (Kelvin)      0.08909     0.02405     0.02231
 Rotational constants (GHZ):           1.85626     0.50110     0.46494
 Zero-point vibrational energy     554368.6 (Joules/Mol)
                                  132.49728 (Kcal/Mol)
 Warning -- explicit consideration of  17 degrees of freedom as
           vibrations may cause significant error
 Vibrational temperatures:     44.97    51.16    76.62   111.76   156.23
          (Kelvin)            197.58   261.85   333.88   443.71   491.03
                              561.56   605.99   619.96   673.54   705.84
                              799.15   875.72   951.29  1035.71  1083.27
                             1094.63  1199.60  1223.91  1274.37  1361.89
                             1390.84  1406.87  1411.82  1462.66  1493.57
                             1518.81  1546.26  1552.70  1681.88  1710.67
                             1746.70  1780.80  1808.17  1832.74  1897.94
                             1935.12  1987.92  2006.45  2035.04  2069.81
                             2075.95  2134.38  2149.36  2164.80  2167.68
                             2178.13  2184.73  2212.06  2339.76  2390.05
                             2612.59  4350.49  4385.68  4395.90  4408.82
                             4424.53  4470.19  4481.71  4487.25  4510.63
                             4557.58  4562.33  4589.79  4604.07

 Zero-point correction=                           0.211148 (Hartree/Particle)
 Thermal correction to Energy=                    0.223417
 Thermal correction to Enthalpy=                  0.224362
 Thermal correction to Gibbs Free Energy=         0.170694
 Sum of electronic and zero-point Energies=           -518.710049
 Sum of electronic and thermal Energies=              -518.697780
 Sum of electronic and thermal Enthalpies=            -518.696835
 Sum of electronic and thermal Free Energies=         -518.750503

                     E (Thermal)             CV                S
                      KCal/Mol        Cal/Mol-Kelvin    Cal/Mol-Kelvin
 Total                  140.197             44.335            112.954
 Electronic               0.000              0.000              0.000
 Translational            0.889              2.981             41.176
 Rotational               0.889              2.981             30.986
 Vibrational            138.419             38.373             40.791
 Vibration     1          0.594              1.983              5.748
 Vibration     2          0.594              1.982              5.492
 Vibration     3          0.596              1.976              4.693
 Vibration     4          0.599              1.964              3.949
 Vibration     5          0.606              1.942              3.294
 Vibration     6          0.614              1.916              2.841
 Vibration     7          0.630              1.864              2.308
 Vibration     8          0.653              1.792              1.863
 Vibration     9          0.698              1.658              1.371
 Vibration    10          0.721              1.593              1.206
 Vibration    11          0.758              1.491              0.999
 Vibration    12          0.784              1.424              0.888
 Vibration    13          0.792              1.403              0.856
 Vibration    14          0.825              1.321              0.743
 Vibration    15          0.846              1.271              0.682
 Vibration    16          0.911              1.128              0.533
 Vibration    17          0.968              1.013              0.435

 Optimization completed.
    -- Stationary point found.
 Normal termination of Gaussian 16 at Wed Dec  9 17:10:07 2020.

 ----------------------------------------------------------------------
 # B3LYP/6-311++G(d,p) empiricaldispersion=gd3bj scf=xqc pop=npa geom=c
 heck
 ----------------------------------------------------------------------

 --------------------------------------
 CID_64522335_JID_2131_Energie_neutraal
 --------------------------------------
 Structure from the checkpoint file:  "JID_2131.chk"
 Charge =  0 Multiplicity = 1

 SCF Done:  E(RB3LYP) =  -519.063315141     A.U. after   15 cycles
 Normal termination of Gaussian 16 at Wed Dec  9 17:12:32 2020.

 ----------------------------------------------------------------------
 # B3LYP/6-311++G(d,p) empiricaldispersion=gd3bj scf=xqc pop=npa geom=c
 heck
 ----------------------------------------------------------------------

 ------------------------------------
 CID_64522335_JID_2131_Energie_kation
 ------------------------------------
 Structure from the checkpoint file:  "JID_2131.chk"
 Charge =  1 Multiplicity = 2

 SCF Done:  E(UB3LYP) =  -518.749325458     A.U. after   26 cycles
 Normal termination of Gaussian 16 at Wed Dec  9 17:17:12 2020.
 Gaussian 16:  ES64L-G16RevA.03 25-Dec-2016

 ----------------------------------------------------------------------
 # B3LYP/6-311++G(d,p) empiricaldispersion=gd3bj scf=xqc pop=npa geom=c
 heck
 ----------------------------------------------------------------------

 -----------------------------------
 CID_64522335_JID_2131_Energie_anion
 -----------------------------------
 Structure from the checkpoint file:  "JID_2131.chk"
 Charge = -1 Multiplicity = 2

                         Standard orientation:
 ---------------------------------------------------------------------
 Center     Atomic      Atomic             Coordinates (Angstroms)
 Number     Number       Type             X           Y           Z
 ---------------------------------------------------------------------
      1          6           0       -3.953392   -1.017326    0.415558
      2          6           0       -2.638507   -0.335398    0.136891
      3          7           0       -1.810679   -0.959223   -0.718238
      4          6           0       -0.635754   -0.387852   -0.995392
      5          6           0       -0.200084    0.830109   -0.455163
      6          6           0       -1.071482    1.467847    0.430498
      7          6           0       -2.299149    0.884566    0.731770
      8          6           0        1.157571    1.405406   -0.781875
      9          6           0        2.230499    0.986992    0.235516
     10          6           0        2.658508   -0.470992    0.099021
     11          8           0        2.498143   -1.091760   -0.934981
     12          6           0        3.310123   -1.097034    1.315384
     13          1           0       -3.783903   -2.028668    0.801074
     14          1           0       -4.552878   -0.460691    1.142117
     15          1           0       -4.533024   -1.121042   -0.508643
     16          1           0        0.011036   -0.927543   -1.683505
     17          1           0       -0.792738    2.419953    0.878076
     18          1           0       -2.990712    1.369401    1.414736
     19          1           0        1.476791    1.076148   -1.775021
     20          1           0        1.097226    2.499621   -0.800825
     21          1           0        3.140816    1.590878    0.098001
     22          1           0        1.895165    1.178086    1.262804
     23          1           0        4.066156   -0.430881    1.747716
     24          1           0        2.546540   -1.258557    2.087634
     25          1           0        3.759130   -2.055973    1.050096
 ---------------------------------------------------------------------

 SCF Done:  E(UB3LYP) =  -519.054330969     A.U. after   33 cycles
 SCF Done:  E(UB3LYP) =  -519.054330969     a.u. after    1 cycles

 The electronic state is 2-A.
 Alpha  occ. eigenvalues --  -18.99659 -14.18843 -10.14413 -10.09860 -10.08605
 Alpha  occ. eigenvalues --  -10.06865 -10.06816 -10.06763 -10.06706 -10.06511
 Alpha  occ. eigenvalues --  -10.06438 -10.06270  -0.93083  -0.82846  -0.70947
 Alpha  occ. eigenvalues --   -0.67742  -0.66270  -0.63132  -0.59158  -0.53401
 Alpha  occ. eigenvalues --   -0.51631  -0.47974  -0.41532  -0.39155  -0.38760
 Alpha  occ. eigenvalues --   -0.35808  -0.35498  -0.34100  -0.33458  -0.32824
 Alpha  occ. eigenvalues --   -0.31160  -0.30458  -0.29418  -0.28171  -0.27594
 Alpha  occ. eigenvalues --   -0.26913  -0.25579  -0.25054  -0.24685  -0.22857
 Alpha  occ. eigenvalues --   -0.17361  -0.14434  -0.14313  -0.13521   0.04549
 Alpha virt. eigenvalues --    0.06715   0.07237   0.07928   0.08149   0.08906
 Alpha virt. eigenvalues --    0.09567   0.10104   0.10628   0.11133   0.11348
 Alpha virt. eigenvalues --    0.11909   0.12395   0.12736   0.13544   0.14386

  Beta  occ. eigenvalues --  -18.99578 -14.18746 -10.14329 -10.09804 -10.08613
  Beta  occ. eigenvalues --  -10.06865 -10.06782 -10.06741 -10.06626 -10.06484
  Beta  occ. eigenvalues --  -10.06411 -10.06256  -0.92921  -0.82701  -0.70816
  Beta  occ. eigenvalues --   -0.67621  -0.66151  -0.63049  -0.59100  -0.53334
  Beta  occ. eigenvalues --   -0.51491  -0.47853  -0.41351  -0.39080  -0.38689
  Beta  occ. eigenvalues --   -0.35632  -0.35411  -0.33988  -0.33369  -0.32691
  Beta  occ. eigenvalues --   -0.31091  -0.30404  -0.29348  -0.28087  -0.27517
  Beta  occ. eigenvalues --   -0.26766  -0.25464  -0.24918  -0.24462  -0.22681
  Beta  occ. eigenvalues --   -0.16869  -0.14315  -0.14192  -0.13310
  Beta virt. eigenvalues --    0.06774   0.07661   0.08047   0.08487   0.08681
  Beta virt. eigenvalues --    0.09273   0.09934   0.10602   0.10962   0.11384
  Beta virt. eigenvalues --    0.11664   0.12144   0.12872   0.12938   0.13747

 Mulliken charges and spin densities:
               1          2
     1  C    0.126018  -0.693713
     2  C    0.158675  -0.306750
     3  N   -0.061681   0.091328
     4  C   -1.389000   0.871335
     5  C    0.431527   0.494528
     6  C    0.795802  -1.275740
     7  C   -0.265833   0.221200
     8  C    0.042344  -0.375023
     9  C    1.516830  -1.859969
    10  C   -1.284011   1.532236
    11  O   -0.285022   0.022550
    12  C    0.959735  -1.618567
    13  H    0.137154   0.008460
    14  H    0.035113   0.091493
    15  H    0.085065   0.060245
    16  H    0.167671   0.058947
    17  H   -0.475837   0.640136
    18  H   -0.290652   0.447845
    19  H    0.216693  -0.040123
    20  H   -0.537137   0.720142
    21  H   -0.705737   0.910480
    22  H    0.078505   0.065420
    23  H   -0.493927   0.667485
    24  H    0.088008   0.071005
    25  H   -0.050301   0.195051
 Sum of Mulliken charges =  -1.00000   1.00000

 Dipole moment (field-independent basis, Debye):
    X=             -5.5671    Y=             -3.1675    Z=              0.0610  Tot=              6.4054
 Quadrupole moment (field-independent basis, Debye-Ang):
   XX=           -138.1926   YY=           -113.2835   ZZ=            -96.6073
   XY=             -6.8639   XZ=             -4.9958   YZ=             -5.2525

 Summary of Natural Population Analysis:

                                       Natural Population
                Natural  -----------------------------------------------
    Atom  No    Charge         Core      Valence    Rydberg      Total
 -----------------------------------------------------------------------
      C    1   -0.29611      0.99964     2.29111    0.00537     3.29611
      C    2    0.10534      0.99955     1.88062    0.01449     2.89466
      N    3   -0.23327      0.99968     2.72258    0.01101     3.73327
      C    4    0.03264      0.99953     1.95483    0.01300     2.96736
      C    5   -0.03387      0.99950     2.02399    0.01038     3.03387
      C    6   -0.06145      0.99951     2.05180    0.01014     3.06145
      C    7   -0.12837      0.99951     2.11984    0.00902     3.12837
      C    8   -0.20087      0.99960     2.18923    0.01204     3.20087
      C    9   -0.23270      0.99957     2.22411    0.00902     3.23270
      C   10    0.30431      0.99969     1.67525    0.02076     2.69569
      O   11   -0.28849      0.99987     3.28198    0.00664     4.28849
      C   12   -0.33354      0.99962     2.32852    0.00539     3.33354
      H   13    0.10425      0.00000     0.39455    0.00120     0.39575
      H   14    0.09620      0.00000     0.40305    0.00074     0.40380
      H   15    0.10393      0.00000     0.39474    0.00133     0.39607
      H   16    0.09721      0.00000     0.40123    0.00156     0.40279
      H   17    0.09978      0.00000     0.39891    0.00131     0.40022
      H   18    0.09909      0.00000     0.39988    0.00102     0.40091
      H   19    0.10881      0.00000     0.38985    0.00134     0.39119
      H   20    0.10577      0.00000     0.39223    0.00200     0.39423
      H   21    0.12089      0.00000     0.37126    0.00785     0.37911
      H   22    0.10309      0.00000     0.39546    0.00145     0.39691
      H   23    0.11201      0.00000     0.38520    0.00279     0.38799
      H   24    0.10894      0.00000     0.39014    0.00091     0.39106
      H   25    0.10640      0.00000     0.39263    0.00098     0.39360
 =======================================================================
   * Total *    0.00000     11.99526    31.85300    0.15174    44.00000

 Normal termination of Gaussian 16 at Wed Dec  9 17:23:09 2020.
