 Gaussian 16, Revision A.03,

 -----------------------------------------------------------
 # opt freq B3LYP/6-31G(d) empiricaldispersion=gd3bj scf=xqc
 -----------------------------------------------------------

 -----------------------------
 CID_2975576_JID_8044_neutraal
 -----------------------------
 Symbolic Z-matrix:
 Charge =  0 Multiplicity = 1

 SCF Done:  E(RB3LYP) =  -1127.33620932     A.U. after   16 cycles
 SCF Done:  E(RB3LYP) =  -1127.34304392     A.U. after   14 cycles
 SCF Done:  E(RB3LYP) =  -1127.34382391     A.U. after   13 cycles
 SCF Done:  E(RB3LYP) =  -1127.34492888     A.U. after   13 cycles
 SCF Done:  E(RB3LYP) =  -1127.34575490     A.U. after   12 cycles
 SCF Done:  E(RB3LYP) =  -1127.34655740     A.U. after   13 cycles
 SCF Done:  E(RB3LYP) =  -1127.34696802     A.U. after   13 cycles
 SCF Done:  E(RB3LYP) =  -1127.34698807     A.U. after   12 cycles
 SCF Done:  E(RB3LYP) =  -1127.34703167     A.U. after   12 cycles
 SCF Done:  E(RB3LYP) =  -1127.34706501     A.U. after   10 cycles
 SCF Done:  E(RB3LYP) =  -1127.34708667     A.U. after   10 cycles
 SCF Done:  E(RB3LYP) =  -1127.34708725     A.U. after    9 cycles
 SCF Done:  E(RB3LYP) =  -1127.34708791     A.U. after    9 cycles
 SCF Done:  E(RB3LYP) =  -1127.34708837     A.U. after    8 cycles
 SCF Done:  E(RB3LYP) =  -1127.34708843     A.U. after    7 cycles
 Optimization completed.
    -- Stationary point found.
 Normal termination of Gaussian 16 at Fri Dec 11 18:43:45 2020.

 --------------------------------------------------------------------
 #N Geom=AllCheck Guess=TCheck SCRF=Check GenChk RB3LYP/6-31G(d) Freq
 --------------------------------------------------------------------

 Structure from the checkpoint file:  "JID_8044.chk"
 -----------------------------
 CID_2975576_JID_8044_neutraal
 -----------------------------
 Charge =  0 Multiplicity = 1

 SCF Done:  E(RB3LYP) =  -1127.34708843     A.U. after    1 cycles

  Exact polarizability: 221.306   0.496 179.537  15.772   3.376 140.381
 Approx polarizability: 319.098   3.850 285.276  44.835  10.616 235.477

                      1                      2                      3
                      A                      A                      A
 Frequencies --     17.0934                21.1373                34.1135
 Red. masses --      1.3436                 2.0886                 4.0228
 Frc consts  --      0.0002                 0.0005                 0.0028
 IR Inten    --      0.4205                 0.2547                 0.4842

                      4                      5                      6
                      A                      A                      A
 Frequencies --     45.4834                61.8425                74.5338
 Red. masses --      4.0117                 4.3670                 4.4370
 Frc consts  --      0.0049                 0.0098                 0.0145
 IR Inten    --      0.7207                 0.9597                 0.5288

                      7                      8                      9
                      A                      A                      A
 Frequencies --    102.6751               144.2320               161.5896
 Red. masses --      5.6094                 4.7430                 4.7072
 Frc consts  --      0.0348                 0.0581                 0.0724
 IR Inten    --      2.2242                 0.3612                 1.6901

                     10                     11                     12
                      A                      A                      A
 Frequencies --    205.8897               230.7368               257.1512
 Red. masses --      3.5393                 4.3391                 3.9627
 Frc consts  --      0.0884                 0.1361                 0.1544
 IR Inten    --      8.0674                 2.2907                 0.3455

                     13                     14                     15
                      A                      A                      A
 Frequencies --    286.1506               322.1548               331.6499
 Red. masses --      2.5957                 3.4054                 4.3292
 Frc consts  --      0.1252                 0.2082                 0.2806
 IR Inten    --      0.4636                 5.4429                 4.9868

                     16                     17                     18
                      A                      A                      A
 Frequencies --    362.8944               383.0054               402.3513
 Red. masses --      5.7098                 3.5947                 2.9503
 Frc consts  --      0.4430                 0.3107                 0.2814
 IR Inten    --      2.4411                 1.0900                 4.2058

                     19                     20                     21
                      A                      A                      A
 Frequencies --    418.1707               421.3068               460.4877
 Red. masses --      2.1144                 3.0470                 3.0000
 Frc consts  --      0.2178                 0.3187                 0.3748
 IR Inten    --      1.8265                 0.2717                 2.8244

                     22                     23                     24
                      A                      A                      A
 Frequencies --    480.8445               513.7854               548.1348
 Red. masses --      3.2438                 2.5644                 2.7085
 Frc consts  --      0.4419                 0.3988                 0.4795
 IR Inten    --      5.7435                 6.8597                 2.0970

                     25                     26                     27
                      A                      A                      A
 Frequencies --    578.0350               609.9727               641.8396
 Red. masses --      2.3611                 1.7932                 3.5112
 Frc consts  --      0.4648                 0.3931                 0.8522
 IR Inten    --     40.5709                39.3127                10.3270

                     28                     29                     30
                      A                      A                      A
 Frequencies --    656.7580               698.0358               719.5563
 Red. masses --      7.0449                 5.8661                 3.6913
 Frc consts  --      1.7903                 1.6841                 1.1260
 IR Inten    --      2.5224                 8.1604                 5.1953

                     31                     32                     33
                      A                      A                      A
 Frequencies --    749.4909               802.9824               820.1333
 Red. masses --      6.0739                 3.9223                 1.5220
 Frc consts  --      2.0103                 1.4901                 0.6031
 IR Inten    --     49.3253                 3.3108                 0.5052

                     34                     35                     36
                      A                      A                      A
 Frequencies --    827.3522               835.4252               837.8331
 Red. masses --      1.8252                 2.1141                 1.4547
 Frc consts  --      0.7361                 0.8693                 0.6017
 IR Inten    --     18.1103                 6.8357                 1.6856

                     37                     38                     39
                      A                      A                      A
 Frequencies --    869.4070               886.7913               914.8265
 Red. masses --      1.4343                 3.5655                 2.5557
 Frc consts  --      0.6388                 1.6520                 1.2602
 IR Inten    --      8.2730                 7.5663                 3.1721

                     40                     41                     42
                      A                      A                      A
 Frequencies --    924.6166               950.5257               953.1791
 Red. masses --      3.6484                 1.3223                 1.2927
 Frc consts  --      1.8377                 0.7039                 0.6920
 IR Inten    --      8.7859                 0.9984                 1.0396

                     43                     44                     45
                      A                      A                      A
 Frequencies --    973.5859              1021.4358              1029.2752
 Red. masses --      1.3280                 1.4209                 2.4691
 Frc consts  --      0.7417                 0.8734                 1.5411
 IR Inten    --      2.5073                 1.2989                21.1894

                     46                     47                     48
                      A                      A                      A
 Frequencies --   1043.5205              1049.4746              1070.8099
 Red. masses --      2.7424                 2.1374                 2.4326
 Frc consts  --      1.7595                 1.3870                 1.6434
 IR Inten    --      2.2123                12.3040                10.3782

                     49                     50                     51
                      A                      A                      A
 Frequencies --   1076.6626              1102.2572              1155.9202
 Red. masses --      1.5126                 2.8222                 1.3394
 Frc consts  --      1.0331                 2.0203                 1.0544
 IR Inten    --     12.0638                 7.0351                 4.0829

                     52                     53                     54
                      A                      A                      A
 Frequencies --   1161.9446              1169.1215              1194.2029
 Red. masses --      1.8748                 1.9985                 1.2817
 Frc consts  --      1.4913                 1.6094                 1.0770
 IR Inten    --     17.5459                37.7998                 4.3639

                     55                     56                     57
                      A                      A                      A
 Frequencies --   1221.1624              1248.3802              1255.6002
 Red. masses --      1.1315                 3.2497                 2.2531
 Frc consts  --      0.9942                 2.9840                 2.0929
 IR Inten    --      3.4924                13.4360                58.3215

                     58                     59                     60
                      A                      A                      A
 Frequencies --   1277.1568              1289.3819              1303.9403
 Red. masses --      1.8282                 1.7747                 1.2866
 Frc consts  --      1.7570                 1.7384                 1.2889
 IR Inten    --    104.4531                81.8543                48.2678

                     61                     62                     63
                      A                      A                      A
 Frequencies --   1325.3388              1351.8279              1353.8372
 Red. masses --      1.2664                 1.7100                 3.8881
 Frc consts  --      1.3106                 1.8412                 4.1988
 IR Inten    --     41.6911                14.4791                 0.0398

                     64                     65                     66
                      A                      A                      A
 Frequencies --   1371.8251              1388.5540              1397.3952
 Red. masses --      1.2913                 3.4578                 1.3605
 Frc consts  --      1.4317                 3.9281                 1.5652
 IR Inten    --      6.7691               282.0275                 2.2688

                     67                     68                     69
                      A                      A                      A
 Frequencies --   1403.0210              1405.2039              1420.8824
 Red. masses --      1.4816                 1.5078                 1.3468
 Frc consts  --      1.7183                 1.7542                 1.6020
 IR Inten    --      1.0010                 5.4608                 7.7966

                     70                     71                     72
                      A                      A                      A
 Frequencies --   1443.7115              1445.3478              1498.9493
 Red. masses --      1.3674                 1.9458                 1.7355
 Frc consts  --      1.6793                 2.3950                 2.2975
 IR Inten    --      0.9913                 2.3473                25.1787

                     73                     74                     75
                      A                      A                      A
 Frequencies --   1508.0198              1510.9423              1515.5250
 Red. masses --      1.2126                 1.2840                 1.0896
 Frc consts  --      1.6248                 1.7271                 1.4745
 IR Inten    --     46.0145                79.0767                 8.4244

                     76                     77                     78
                      A                      A                      A
 Frequencies --   1517.4992              1518.3342              1527.3008
 Red. masses --      1.1712                 1.0494                 1.2636
 Frc consts  --      1.5890                 1.4253                 1.7367
 IR Inten    --     38.5069                 7.0551                14.3981

                     79                     80                     81
                      A                      A                      A
 Frequencies --   1529.3618              1539.6661              1572.6936
 Red. masses --      1.2896                 1.4659                 2.7025
 Frc consts  --      1.7771                 2.0475                 3.9382
 IR Inten    --     26.4014                76.5848               103.6180

                     82                     83                     84
                      A                      A                      A
 Frequencies --   1644.7256              1679.9614              1759.2292
 Red. masses --      5.7417                 5.9183                 8.2617
 Frc consts  --      9.1511                 9.8411                15.0649
 IR Inten    --      3.2553                16.8849               489.5408

                     85                     86                     87
                      A                      A                      A
 Frequencies --   3030.8115              3032.0168              3038.3072
 Red. masses --      1.0710                 1.0694                 1.0738
 Frc consts  --      5.7964                 5.7925                 5.8401
 IR Inten    --      8.2116                26.6654                36.9746

                     88                     89                     90
                      A                      A                      A
 Frequencies --   3040.8677              3048.6811              3050.8377
 Red. masses --      1.0414                 1.0621                 1.0622
 Frc consts  --      5.6739                 5.8164                 5.8251
 IR Inten    --     37.4165                16.9171                39.9954

                     91                     92                     93
                      A                      A                      A
 Frequencies --   3088.1256              3093.6345              3098.2949
 Red. masses --      1.0940                 1.1020                 1.1044
 Frc consts  --      6.1470                 6.2139                 6.2463
 IR Inten    --     47.7789                30.0887                78.3554

                     94                     95                     96
                      A                      A                      A
 Frequencies --   3098.8552              3126.7195              3160.3770
 Red. masses --      1.0947                 1.1027                 1.0930
 Frc consts  --      6.1938                 6.3518                 6.4320
 IR Inten    --     19.6939                15.3565                 3.9877

                     97                     98                     99
                      A                      A                      A
 Frequencies --   3180.3191              3182.9584              3183.1749
 Red. masses --      1.0872                 1.0902                 1.0906
 Frc consts  --      6.4790                 6.5074                 6.5107
 IR Inten    --     14.2419                 8.0033                14.1179

                    100                    101                    102
                      A                      A                      A
 Frequencies --   3197.5014              3239.4363              3577.1476
 Red. masses --      1.0947                 1.0909                 1.0752
 Frc consts  --      6.5942                 6.7450                 8.1063
 IR Inten    --     16.3416                 6.7471                31.7128

 - Thermochemistry -
 -------------------
 Temperature   298.150 Kelvin.  Pressure   1.00000 Atm.
 Atom     1 has atomic number  6 and mass  12.00000

 Molecular mass:   262.11399 amu.
 Principal axes and moments of inertia in atomic units:
                           1         2         3
     Eigenvalues --  3317.357536875.162808074.25121
           X            0.99991  -0.01149   0.00709
           Y            0.01137   0.99979   0.01701
           Z           -0.00728  -0.01693   0.99983
 This molecule is an asymmetric top.
 Rotational symmetry number  1.
 Warning -- assumption of classical behavior for rotation
           may cause significant error
 Rotational temperatures (Kelvin)      0.02611     0.01260     0.01073
 Rotational constants (GHZ):           0.54403     0.26250     0.22352
 Zero-point vibrational energy     797342.3 (Joules/Mol)
                                  190.56939 (Kcal/Mol)
 Warning -- explicit consideration of  26 degrees of freedom as
           vibrations may cause significant error
 Vibrational temperatures:     24.59    30.41    49.08    65.44    88.98
          (Kelvin)            107.24   147.73   207.52   232.49   296.23
                              331.98   369.98   411.71   463.51   477.17
                              522.12   551.06   578.89   601.65   606.17
                              662.54   691.83   739.22   788.64   831.66
                              877.61   923.46   944.93  1004.32  1035.28
                             1078.35  1155.31  1179.99  1190.38  1201.99
                             1205.45  1250.88  1275.89  1316.23  1330.32
                             1367.59  1371.41  1400.77  1469.62  1480.90
                             1501.39  1509.96  1540.66  1549.08  1585.90
                             1663.11  1671.78  1682.11  1718.19  1756.98
                             1796.14  1806.53  1837.54  1855.13  1876.08
                             1906.87  1944.98  1947.87  1973.75  1997.82
                             2010.54  2018.63  2021.78  2044.33  2077.18
                             2079.53  2156.65  2169.70  2173.91  2180.50
                             2183.34  2184.54  2197.45  2200.41  2215.24
                             2262.76  2366.39  2417.09  2531.14  4360.66
                             4362.40  4371.45  4375.13  4386.37  4389.47
                             4443.12  4451.05  4457.76  4458.56  4498.65
                             4547.08  4575.77  4579.57  4579.88  4600.49
                             4660.83  5146.72

 Zero-point correction=                           0.303692 (Hartree/Particle)
 Thermal correction to Energy=                    0.320970
 Thermal correction to Enthalpy=                  0.321914
 Thermal correction to Gibbs Free Energy=         0.255345
 Sum of electronic and zero-point Energies=          -1127.043397
 Sum of electronic and thermal Energies=             -1127.026119
 Sum of electronic and thermal Enthalpies=           -1127.025175
 Sum of electronic and thermal Free Energies=        -1127.091744

                     E (Thermal)             CV                S
                      KCal/Mol        Cal/Mol-Kelvin    Cal/Mol-Kelvin
 Total                  201.412             65.069            140.106
 Electronic               0.000              0.000              0.000
 Translational            0.889              2.981             42.590
 Rotational               0.889              2.981             33.576
 Vibrational            199.634             59.107             63.940
 Vibration     1          0.593              1.986              6.946
 Vibration     2          0.593              1.985              6.524
 Vibration     3          0.594              1.983              5.575
 Vibration     4          0.595              1.979              5.005
 Vibration     5          0.597              1.973              4.398
 Vibration     6          0.599              1.966              4.030
 Vibration     7          0.605              1.947              3.403
 Vibration     8          0.616              1.909              2.747
 Vibration     9          0.622              1.889              2.531
 Vibration    10          0.640              1.831              2.080
 Vibration    11          0.652              1.794              1.873
 Vibration    12          0.667              1.751              1.681
 Vibration    13          0.684              1.699              1.497
 Vibration    14          0.707              1.631              1.299
 Vibration    15          0.714              1.612              1.252
 Vibration    16          0.737              1.549              1.110
 Vibration    17          0.752              1.506              1.027
 Vibration    18          0.768              1.465              0.954
 Vibration    19          0.781              1.431              0.898
 Vibration    20          0.784              1.424              0.888
 Vibration    21          0.818              1.338              0.765
 Vibration    22          0.837              1.293              0.708
 Vibration    23          0.869              1.219              0.625
 Vibration    24          0.903              1.144              0.548
 Vibration    25          0.935              1.079              0.489
 Vibration    26          0.969              1.011              0.433

                           ! Non-Optimized Parameters !
 Normal termination of Gaussian 16 at Fri Dec 11 18:59:26 2020.

 ----------------------------------------------------------------------
 # B3LYP/6-311++G(d,p) empiricaldispersion=gd3bj scf=xqc pop=npa geom=c
 heck
 ----------------------------------------------------------------------

 -------------------------------------
 CID_2975576_JID_8044_Energie_neutraal
 -------------------------------------
 Structure from the checkpoint file:  "JID_8044.chk"
 Charge =  0 Multiplicity = 1

 SCF Done:  E(RB3LYP) =  -1127.57069025     A.U. after   16 cycles
 Normal termination of Gaussian 16 at Fri Dec 11 19:06:06 2020.

 ----------------------------------------------------------------------
 # B3LYP/6-311++G(d,p) empiricaldispersion=gd3bj scf=xqc pop=npa geom=c
 heck
 ----------------------------------------------------------------------

 -----------------------------------
 CID_2975576_JID_8044_Energie_kation
 -----------------------------------
 Structure from the checkpoint file:  "JID_8044.chk"
 Charge =  1 Multiplicity = 2

 SCF Done:  E(UB3LYP) =  -1127.29051607     A.U. after   31 cycles
 Normal termination of Gaussian 16 at Fri Dec 11 19:23:28 2020.
 Gaussian 16:  ES64L-G16RevA.03 25-Dec-2016

 ----------------------------------------------------------------------
 # B3LYP/6-311++G(d,p) empiricaldispersion=gd3bj scf=xqc pop=npa geom=c
 heck
 ----------------------------------------------------------------------

 ----------------------------------
 CID_2975576_JID_8044_Energie_anion
 ----------------------------------
 Structure from the checkpoint file:  "JID_8044.chk"
 Charge = -1 Multiplicity = 2

                         Standard orientation:
 ---------------------------------------------------------------------
 Center     Atomic      Atomic             Coordinates (Angstroms)
 Number     Number       Type             X           Y           Z
 ---------------------------------------------------------------------
      1          6           0        4.713967    2.108178    0.350601
      2          6           0        3.644749    1.092888    0.030323
      3          6           0        2.298668    1.463160   -0.063140
      4          6           0        1.310246    0.541729   -0.396075
      5          6           0        1.647622   -0.797678   -0.611200
      6          6           0        2.988703   -1.183902   -0.522209
      7          6           0        3.969512   -0.247124   -0.211537
      8          7           0        0.683237   -1.770724   -0.962306
      9          6           0       -0.594875   -1.963233   -0.507462
     10          8           0       -1.295677   -2.875669   -0.928091
     11          6           0       -1.121742   -1.046278    0.583319
     12         16           0       -0.517301   -1.292936    2.116877
     13          7           0       -2.096339   -0.194799    0.218766
     14          6           0       -2.598082   -0.053078   -1.155949
     15          6           0       -2.508231    1.404873   -1.620494
     16          6           0       -3.205674    2.348921   -0.634071
     17          6           0       -2.677504    2.127530    0.788365
     18          6           0       -2.788074    0.655229    1.193224
     19          1           0        5.138851    2.543581   -0.563685
     20          1           0        4.314508    2.933170    0.949311
     21          1           0        5.540221    1.655078    0.908423
     22          1           0        2.015845    2.497629    0.115660
     23          1           0        0.280189    0.864077   -0.481440
     24          1           0        3.257330   -2.225553   -0.676864
     25          1           0        5.005834   -0.567999   -0.141507
     26          1           0        1.002237   -2.546172   -1.532418
     27          1           0       -3.644607   -0.388069   -1.165157
     28          1           0       -2.044110   -0.715447   -1.817548
     29          1           0       -2.955029    1.483537   -2.618561
     30          1           0       -1.451279    1.684172   -1.720108
     31          1           0       -3.066486    3.391889   -0.940413
     32          1           0       -4.287613    2.154480   -0.651557
     33          1           0       -1.624077    2.430623    0.850902
     34          1           0       -3.232427    2.738233    1.509802
     35          1           0       -2.349026    0.466312    2.172134
     36          1           0       -3.842129    0.344153    1.220352
 ---------------------------------------------------------------------

 SCF Done:  E(UB3LYP) =  -1127.57409291     A.U. after   33 cycles
 SCF Done:  E(UB3LYP) =  -1127.57409291     a.u. after    1 cycles

 The electronic state is 2-A.
 Alpha  occ. eigenvalues --  -88.65334 -18.97028 -14.23574 -14.22893 -10.15333
 Alpha  occ. eigenvalues --  -10.11465 -10.10170 -10.09802 -10.08701 -10.08426
 Alpha  occ. eigenvalues --  -10.08161 -10.07767 -10.07382 -10.07216 -10.07133
 Alpha  occ. eigenvalues --  -10.07107 -10.06930 -10.06618  -7.74095  -5.70455
 Alpha  occ. eigenvalues --   -5.69984  -5.69658  -0.92596  -0.84752  -0.82854
 Alpha  occ. eigenvalues --   -0.75375  -0.70832  -0.67380  -0.65926  -0.65139
 Alpha  occ. eigenvalues --   -0.63323  -0.59599  -0.54986  -0.54065  -0.52299
 Alpha  occ. eigenvalues --   -0.50667  -0.48781  -0.47733  -0.44391  -0.43025
 Alpha  occ. eigenvalues --   -0.39725  -0.37594  -0.36652  -0.36424  -0.35043
 Alpha  occ. eigenvalues --   -0.34807  -0.34111  -0.33563  -0.32606  -0.32101
 Alpha  occ. eigenvalues --   -0.31539  -0.31371  -0.30182  -0.29691  -0.28268
 Alpha  occ. eigenvalues --   -0.26760  -0.26073  -0.25402  -0.25189  -0.24879
 Alpha  occ. eigenvalues --   -0.23517  -0.22831  -0.21776  -0.20179  -0.18826
 Alpha  occ. eigenvalues --   -0.15829  -0.14809  -0.11936  -0.09416  -0.07509
 Alpha  occ. eigenvalues --    0.03916
 Alpha virt. eigenvalues --    0.06304   0.06608   0.07692   0.07871   0.08218
 Alpha virt. eigenvalues --    0.08392   0.08591   0.09430   0.10297   0.10443
 Alpha virt. eigenvalues --    0.10516   0.11520   0.11770   0.12333   0.12785

  Beta  occ. eigenvalues --  -88.65289 -18.96888 -14.23587 -14.22794 -10.15243
  Beta  occ. eigenvalues --  -10.11438 -10.09803 -10.09713 -10.08701 -10.08427
  Beta  occ. eigenvalues --  -10.08119 -10.07774 -10.07325 -10.07188 -10.07132
  Beta  occ. eigenvalues --  -10.07090 -10.06908 -10.06594  -7.74055  -5.70446
  Beta  occ. eigenvalues --   -5.69829  -5.69633  -0.92324  -0.84458  -0.82766
  Beta  occ. eigenvalues --   -0.75303  -0.70671  -0.67309  -0.65885  -0.65058
  Beta  occ. eigenvalues --   -0.62826  -0.59541  -0.54857  -0.53941  -0.52229
  Beta  occ. eigenvalues --   -0.50526  -0.48599  -0.47613  -0.44298  -0.42887
  Beta  occ. eigenvalues --   -0.39486  -0.37527  -0.36594  -0.36358  -0.34835
  Beta  occ. eigenvalues --   -0.34667  -0.34055  -0.33499  -0.32577  -0.31956
  Beta  occ. eigenvalues --   -0.31434  -0.31146  -0.30043  -0.29575  -0.28164
  Beta  occ. eigenvalues --   -0.26667  -0.25875  -0.25256  -0.24923  -0.24831
  Beta  occ. eigenvalues --   -0.23285  -0.22763  -0.21584  -0.19306  -0.18399
  Beta  occ. eigenvalues --   -0.15612  -0.14468  -0.11689  -0.08545  -0.07386
  Beta virt. eigenvalues --    0.06191   0.06783   0.07526   0.07918   0.08059
  Beta virt. eigenvalues --    0.08476   0.08729   0.09317   0.09885   0.10525
  Beta virt. eigenvalues --    0.10568   0.11225   0.11628   0.11859   0.12387

 Mulliken charges and spin densities:
               1          2
     1  C   -0.355171  -0.205312
     2  C    0.702338  -0.001978
     3  C   -0.750152   0.457834
     4  C   -0.269309  -0.053995
     5  C    0.744742  -0.249117
     6  C   -0.317314   0.128633
     7  C   -0.583817  -0.046413
     8  N   -0.129690  -0.009572
     9  C   -0.665572  -0.062177
    10  O   -0.295414   0.058873
    11  C    0.480532   0.177919
    12  S   -0.599352   0.053513
    13  N    0.360374   0.025003
    14  C    0.052970  -0.295187
    15  C   -0.558203   0.450277
    16  C    0.865485  -1.407779
    17  C   -0.329425   0.143931
    18  C   -0.192971  -0.016723
    19  H    0.156368  -0.004780
    20  H    0.083865   0.055214
    21  H    0.106753   0.023375
    22  H    0.025709   0.121585
    23  H    0.171845  -0.185277
    24  H    0.133805  -0.004319
    25  H    0.112323   0.013318
    26  H    0.273494   0.015324
    27  H    0.003450   0.178296
    28  H    0.185789   0.058619
    29  H   -0.151932   0.313101
    30  H    0.042521   0.104437
    31  H   -0.149664   0.294070
    32  H   -0.085898   0.218339
    33  H    0.039132   0.098943
    34  H   -0.194336   0.364022
    35  H    0.088064   0.021400
    36  H   -0.001337   0.166604
 Sum of Mulliken charges =  -1.00000   1.00000

 Dipole moment (field-independent basis, Debye):
    X=              5.9186    Y=              2.6806    Z=             -3.1816  Tot=              7.2345
 Quadrupole moment (field-independent basis, Debye-Ang):
   XX=           -159.1923   YY=           -154.1970   ZZ=           -146.7135
   XY=             -0.7690   XZ=             -3.8368   YZ=              5.0000

 Summary of Natural Population Analysis:

                                       Natural Population
                Natural  -----------------------------------------------
    Atom  No    Charge         Core      Valence    Rydberg      Total
 -----------------------------------------------------------------------
      C    1   -0.29031      0.99964     2.28580    0.00488     3.29031
      C    2   -0.02436      0.99952     2.01708    0.00777     3.02436
      C    3   -0.08866      0.99952     2.07970    0.00944     3.08866
      C    4   -0.10382      0.99952     2.09520    0.00910     3.10382
      C    5    0.08649      0.99946     1.90243    0.01161     2.91351
      C    6   -0.09849      0.99953     2.09126    0.00770     3.09849
      C    7   -0.10109      0.99953     2.09379    0.00777     3.10109
      N    8   -0.31134      0.99963     2.80228    0.00944     3.81134
      C    9    0.33362      0.99958     1.64098    0.02581     2.66638
      O   10   -0.30597      0.99988     3.30025    0.00584     4.30597
      C   11    0.10005      0.99954     1.88073    0.01968     2.89995
      S   12   -0.09662      4.99956     3.08401    0.01304     8.09662
      N   13   -0.23142      0.99960     2.71779    0.01403     3.73142
      C   14   -0.08199      0.99960     2.07178    0.01061     3.08199
      C   15   -0.19468      0.99962     2.18691    0.00814     3.19468
      C   16   -0.19065      0.99963     2.18301    0.00801     3.19065
      C   17   -0.19419      0.99963     2.18616    0.00841     3.19419
      C   18   -0.09034      0.99961     2.07994    0.01079     3.09034
      H   19    0.09894      0.00000     0.39990    0.00116     0.40106
      H   20    0.10164      0.00000     0.39740    0.00096     0.39836
      H   21    0.09920      0.00000     0.39978    0.00103     0.40080
      H   22    0.09688      0.00000     0.40213    0.00099     0.40312
      H   23    0.10723      0.00000     0.39030    0.00248     0.39277
      H   24    0.09713      0.00000     0.40165    0.00121     0.40287
      H   25    0.09361      0.00000     0.40516    0.00123     0.40639
      H   26    0.19335      0.00000     0.30495    0.00171     0.30665
      H   27    0.09336      0.00000     0.40538    0.00126     0.40664
      H   28    0.10969      0.00000     0.38909    0.00122     0.39031
      H   29    0.09965      0.00000     0.39932    0.00104     0.40035
      H   30    0.09459      0.00000     0.40400    0.00141     0.40541
      H   31    0.09703      0.00000     0.40201    0.00096     0.40297
      H   32    0.09445      0.00000     0.40382    0.00173     0.40555
      H   33    0.09720      0.00000     0.40123    0.00157     0.40280
      H   34    0.09935      0.00000     0.39961    0.00104     0.40065
      H   35    0.11976      0.00000     0.37854    0.00169     0.38024
      H   36    0.09069      0.00000     0.40810    0.00121     0.40931
 =======================================================================
   * Total *   -0.00000     21.99258    47.79146    0.21596    70.00000

 Normal termination of Gaussian 16 at Fri Dec 11 19:42:09 2020.
