 Gaussian 16, Revision A.03,

 -----------------------------------------------------------
 # opt freq B3LYP/6-31G(d) empiricaldispersion=gd3bj scf=xqc
 -----------------------------------------------------------

 ------------------------------
 CID_81212834_JID_4153_neutraal
 ------------------------------
 Symbolic Z-matrix:
 Charge =  0 Multiplicity = 1

 SCF Done:  E(RB3LYP) =  -653.073003398     A.U. after   14 cycles
 SCF Done:  E(RB3LYP) =  -653.080048577     A.U. after   12 cycles
 SCF Done:  E(RB3LYP) =  -653.079701580     A.U. after   12 cycles
 SCF Done:  E(RB3LYP) =  -653.080549912     A.U. after   12 cycles
 SCF Done:  E(RB3LYP) =  -653.082179653     A.U. after   11 cycles
 SCF Done:  E(RB3LYP) =  -653.082427205     A.U. after   11 cycles
 SCF Done:  E(RB3LYP) =  -653.082486433     A.U. after   10 cycles
 SCF Done:  E(RB3LYP) =  -653.082503505     A.U. after    9 cycles
 SCF Done:  E(RB3LYP) =  -653.082509335     A.U. after    8 cycles
 SCF Done:  E(RB3LYP) =  -653.082511338     A.U. after    8 cycles
 SCF Done:  E(RB3LYP) =  -653.082512591     A.U. after    8 cycles
 SCF Done:  E(RB3LYP) =  -653.082513055     A.U. after    7 cycles
 SCF Done:  E(RB3LYP) =  -653.082513385     A.U. after    7 cycles
 SCF Done:  E(RB3LYP) =  -653.082513495     A.U. after    7 cycles
 Optimization completed.
    -- Stationary point found.
 Normal termination of Gaussian 16 at Thu Dec 10 09:21:24 2020.

 --------------------------------------------------------------------
 #N Geom=AllCheck Guess=TCheck SCRF=Check GenChk RB3LYP/6-31G(d) Freq
 --------------------------------------------------------------------

 Structure from the checkpoint file:  "JID_4153.chk"
 ------------------------------
 CID_81212834_JID_4153_neutraal
 ------------------------------
 Charge =  0 Multiplicity = 1

 SCF Done:  E(RB3LYP) =  -653.082513495     A.U. after    1 cycles

  Exact polarizability: 140.142   1.180 122.700   2.969   4.853 104.414
 Approx polarizability: 172.294  -1.664 186.328   4.820  13.279 155.115

                      1                      2                      3
                      A                      A                      A
 Frequencies --     50.0463                75.5894                96.9896
 Red. masses --      4.1617                 2.9854                 4.1853
 Frc consts  --      0.0061                 0.0101                 0.0232
 IR Inten    --      0.3890                 0.2782                 1.4763

                      4                      5                      6
                      A                      A                      A
 Frequencies --    101.6723               111.4895               158.6146
 Red. masses --      2.9005                 3.9070                 2.7908
 Frc consts  --      0.0177                 0.0286                 0.0414
 IR Inten    --      1.1305                 1.0813                 5.9896

                      7                      8                      9
                      A                      A                      A
 Frequencies --    192.4534               201.2034               209.8255
 Red. masses --      2.2551                 1.4863                 1.2564
 Frc consts  --      0.0492                 0.0355                 0.0326
 IR Inten    --      1.8948                 0.8124                 1.7527

                     10                     11                     12
                      A                      A                      A
 Frequencies --    223.0592               231.6059               241.9158
 Red. masses --      1.1636                 1.6089                 1.7630
 Frc consts  --      0.0341                 0.0508                 0.0608
 IR Inten    --      3.9959                56.6081                16.1731

                     13                     14                     15
                      A                      A                      A
 Frequencies --    258.1037               273.5142               308.6718
 Red. masses --      1.5083                 2.6921                 2.6750
 Frc consts  --      0.0592                 0.1187                 0.1502
 IR Inten    --     44.9977                 3.1597                 4.5286

                     16                     17                     18
                      A                      A                      A
 Frequencies --    343.0550               367.6873               407.3270
 Red. masses --      3.4323                 2.7091                 3.4780
 Frc consts  --      0.2380                 0.2158                 0.3400
 IR Inten    --      7.4389                 0.7532                 0.1682

                     19                     20                     21
                      A                      A                      A
 Frequencies --    423.7831               457.3063               494.8910
 Red. masses --      2.9002                 3.5243                 2.2318
 Frc consts  --      0.3069                 0.4342                 0.3220
 IR Inten    --      0.6643                13.3454                 0.8141

                     22                     23                     24
                      A                      A                      A
 Frequencies --    529.6671               551.8275               594.9646
 Red. masses --      3.8941                 3.2959                 2.9797
 Frc consts  --      0.6437                 0.5913                 0.6214
 IR Inten    --     18.1445                 6.9323                 1.4692

                     25                     26                     27
                      A                      A                      A
 Frequencies --    649.2081               717.1761               778.4033
 Red. masses --      4.2135                 3.6162                 2.1327
 Frc consts  --      1.0463                 1.0958                 0.7613
 IR Inten    --      1.9586                 5.3154                 4.7575

                     28                     29                     30
                      A                      A                      A
 Frequencies --    837.9031               873.4080               893.4469
 Red. masses --      2.8531                 1.8243                 2.0435
 Frc consts  --      1.1802                 0.8199                 0.9611
 IR Inten    --      3.5137                30.1999                 6.1115

                     31                     32                     33
                      A                      A                      A
 Frequencies --    907.8481               940.2150               946.0626
 Red. masses --      2.0036                 1.8037                 1.2271
 Frc consts  --      0.9729                 0.9394                 0.6471
 IR Inten    --     39.0390                 5.1904                 2.4535

                     34                     35                     36
                      A                      A                      A
 Frequencies --    960.9898               972.5737               981.9640
 Red. masses --      1.6233                 1.8849                 1.4138
 Frc consts  --      0.8833                 1.0504                 0.8032
 IR Inten    --      2.0102                21.0211                 0.5947

                     37                     38                     39
                      A                      A                      A
 Frequencies --   1006.1971              1071.9942              1080.4657
 Red. masses --      2.1909                 2.1819                 1.9164
 Frc consts  --      1.3069                 1.4773                 1.3181
 IR Inten    --     28.6121                81.7126                 3.1273

                     40                     41                     42
                      A                      A                      A
 Frequencies --   1097.6728              1108.4757              1137.6101
 Red. masses --      3.7343                 2.0424                 1.8192
 Frc consts  --      2.6510                 1.4786                 1.3871
 IR Inten    --     24.9305                78.1213                38.6746

                     43                     44                     45
                      A                      A                      A
 Frequencies --   1147.1514              1148.8568              1160.9310
 Red. masses --      2.1611                 2.1125                 2.1933
 Frc consts  --      1.6756                 1.6428                 1.7417
 IR Inten    --      5.6976                13.2811                 2.6321

                     46                     47                     48
                      A                      A                      A
 Frequencies --   1178.6357              1206.4628              1228.0008
 Red. masses --      3.4935                 2.0022                 1.9132
 Frc consts  --      2.8594                 1.7171                 1.6999
 IR Inten    --     76.5962                35.3436                 9.9496

                     49                     50                     51
                      A                      A                      A
 Frequencies --   1231.0029              1244.7297              1265.9028
 Red. masses --      2.9231                 1.1883                 1.2457
 Frc consts  --      2.6098                 1.0848                 1.1762
 IR Inten    --     36.7900                 3.1880                68.5121

                     52                     53                     54
                      A                      A                      A
 Frequencies --   1298.2228              1322.5178              1349.4887
 Red. masses --      1.2386                 1.2212                 1.2656
 Frc consts  --      1.2299                 1.2584                 1.3580
 IR Inten    --     16.7287                 8.5908                27.8754

                     55                     56                     57
                      A                      A                      A
 Frequencies --   1359.6931              1367.5069              1377.9239
 Red. masses --      1.5019                 1.4406                 1.3132
 Frc consts  --      1.6359                 1.5873                 1.4691
 IR Inten    --      2.8924                 8.4039                 4.6146

                     58                     59                     60
                      A                      A                      A
 Frequencies --   1388.4068              1391.4763              1420.4424
 Red. masses --      1.3009                 1.3657                 1.6681
 Frc consts  --      1.4776                 1.5580                 1.9830
 IR Inten    --     39.5107                16.6994                86.6473

                     61                     62                     63
                      A                      A                      A
 Frequencies --   1425.2285              1430.2519              1436.8064
 Red. masses --      1.4136                 1.2405                 1.4703
 Frc consts  --      1.6918                 1.4951                 1.7884
 IR Inten    --     53.2503                10.5439                 3.1801

                     64                     65                     66
                      A                      A                      A
 Frequencies --   1445.7639              1455.2840              1484.2488
 Red. masses --      1.3495                 1.3128                 1.6112
 Frc consts  --      1.6619                 1.6381                 2.0912
 IR Inten    --     15.9268                38.2455                 0.4380

                     67                     68                     69
                      A                      A                      A
 Frequencies --   1513.6791              1517.3493              1523.5807
 Red. masses --      1.0741                 1.0486                 1.0764
 Frc consts  --      1.4500                 1.4224                 1.4722
 IR Inten    --      6.2342                 0.1819                 3.0392

                     70                     71                     72
                      A                      A                      A
 Frequencies --   1524.3949              1528.7001              1536.4854
 Red. masses --      1.0623                 1.0549                 1.0464
 Frc consts  --      1.4544                 1.4525                 1.4555
 IR Inten    --      2.5812                 2.1759                 6.6334

                     73                     74                     75
                      A                      A                      A
 Frequencies --   1537.8911              1542.7545              1555.1907
 Red. masses --      1.0651                 1.0654                 1.0834
 Frc consts  --      1.4843                 1.4940                 1.5439
 IR Inten    --      8.9114                 4.1188                 4.7254

                     76                     77                     78
                      A                      A                      A
 Frequencies --   1683.2478              2982.5632              2998.6891
 Red. masses --      8.0139                 1.0725                 1.0774
 Frc consts  --     13.3780                 5.6212                 5.7080
 IR Inten    --    154.1052                21.3376                 3.2608

                     79                     80                     81
                      A                      A                      A
 Frequencies --   3006.1040              3009.2674              3048.2611
 Red. masses --      1.0661                 1.0660                 1.1063
 Frc consts  --      5.6763                 5.6877                 6.0568
 IR Inten    --     28.6828               107.2758                71.5891

                     82                     83                     84
                      A                      A                      A
 Frequencies --   3052.2725              3056.2690              3059.6803
 Red. masses --      1.0356                 1.0364                 1.0375
 Frc consts  --      5.6844                 5.7038                 5.7227
 IR Inten    --     23.3217                23.1792                19.4374

                     85                     86                     87
                      A                      A                      A
 Frequencies --   3081.7948              3114.4152              3115.1866
 Red. masses --      1.0862                 1.0980                 1.0986
 Frc consts  --      6.0778                 6.2749                 6.2814
 IR Inten    --      1.3434                11.6367                20.0014

                     88                     89                     90
                      A                      A                      A
 Frequencies --   3119.6554              3125.5451              3127.9519
 Red. masses --      1.0997                 1.0987                 1.1023
 Frc consts  --      6.3060                 6.3241                 6.3543
 IR Inten    --     78.5870                32.7062                14.4798

                     91                     92                     93
                      A                      A                      A
 Frequencies --   3130.5028              3133.8476              3141.3421
 Red. masses --      1.1005                 1.0899                 1.0986
 Frc consts  --      6.3545                 6.3066                 6.3875
 IR Inten    --     14.6994                 8.1573                28.6657

                     94                     95                     96
                      A                      A                      A
 Frequencies --   3156.5903              3459.2546              3769.2764
 Red. masses --      1.0891                 1.0732                 1.0667
 Frc consts  --      6.3936                 7.5667                 8.9287
 IR Inten    --     32.7672                10.4053                24.0163

 - Thermochemistry -
 -------------------
 Temperature   298.150 Kelvin.  Pressure   1.00000 Atm.
 Atom     1 has atomic number  6 and mass  12.00000

 Molecular mass:   200.15248 amu.
 Principal axes and moments of inertia in atomic units:
                           1         2         3
     Eigenvalues --  1621.396164158.338234800.30867
           X            0.99989   0.01205   0.00821
           Y           -0.01189   0.99973  -0.01992
           Z           -0.00845   0.01982   0.99977
 This molecule is an asymmetric top.
 Rotational symmetry number  1.
 Warning -- assumption of classical behavior for rotation
           may cause significant error
 Rotational temperatures (Kelvin)      0.05342     0.02083     0.01804
 Rotational constants (GHZ):           1.11308     0.43401     0.37596
 Zero-point vibrational energy     800203.4 (Joules/Mol)
                                  191.25320 (Kcal/Mol)
 Warning -- explicit consideration of  24 degrees of freedom as
           vibrations may cause significant error
 Vibrational temperatures:     72.01   108.76   139.55   146.28   160.41
          (Kelvin)            228.21   276.90   289.49   301.89   320.93
                              333.23   348.06   371.35   393.53   444.11
                              493.58   529.02   586.05   609.73   657.96
                              712.04   762.07   793.96   856.02   934.07
                             1031.86  1119.95  1205.56  1256.64  1285.47
                             1306.19  1352.76  1361.17  1382.65  1399.32
                             1412.83  1447.69  1542.36  1554.55  1579.31
                             1594.85  1636.77  1650.50  1652.95  1670.32
                             1695.79  1735.83  1766.82  1771.14  1790.89
                             1821.35  1867.85  1902.81  1941.61  1956.30
                             1967.54  1982.53  1997.61  2002.02  2043.70
                             2050.59  2057.81  2067.24  2080.13  2093.83
                             2135.50  2177.85  2183.13  2192.09  2193.26
                             2199.46  2210.66  2212.68  2219.68  2237.57
                             2421.82  4291.24  4314.44  4325.11  4329.66
                             4385.77  4391.54  4397.29  4402.20  4434.02
                             4480.95  4482.06  4488.49  4496.96  4500.43
                             4504.10  4508.91  4519.69  4541.63  4977.10
                             5423.15

 Zero-point correction=                           0.304781 (Hartree/Particle)
 Thermal correction to Energy=                    0.320183
 Thermal correction to Enthalpy=                  0.321127
 Thermal correction to Gibbs Free Energy=         0.263106
 Sum of electronic and zero-point Energies=           -652.777732
 Sum of electronic and thermal Energies=              -652.762330
 Sum of electronic and thermal Enthalpies=            -652.761386
 Sum of electronic and thermal Free Energies=         -652.819407

                     E (Thermal)             CV                S
                      KCal/Mol        Cal/Mol-Kelvin    Cal/Mol-Kelvin
 Total                  200.918             58.177            122.115
 Electronic               0.000              0.000              0.000
 Translational            0.889              2.981             41.786
 Rotational               0.889              2.981             31.848
 Vibrational            199.140             52.216             48.480
 Vibration     1          0.595              1.978              4.816
 Vibration     2          0.599              1.965              4.002
 Vibration     3          0.603              1.951              3.514
 Vibration     4          0.604              1.948              3.422
 Vibration     5          0.607              1.940              3.243
 Vibration     6          0.621              1.893              2.566
 Vibration     7          0.634              1.850              2.204
 Vibration     8          0.638              1.838              2.122
 Vibration     9          0.642              1.826              2.045
 Vibration    10          0.649              1.806              1.934
 Vibration    11          0.653              1.793              1.866
 Vibration    12          0.658              1.776              1.789
 Vibration    13          0.667              1.749              1.675
 Vibration    14          0.676              1.722              1.574
 Vibration    15          0.698              1.657              1.369
 Vibration    16          0.722              1.589              1.198
 Vibration    17          0.740              1.539              1.089
 Vibration    18          0.772              1.454              0.936
 Vibration    19          0.786              1.419              0.879
 Vibration    20          0.815              1.345              0.774
 Vibration    21          0.850              1.261              0.671
 Vibration    22          0.885              1.184              0.588
 Vibration    23          0.907              1.136              0.540
 Vibration    24          0.953              1.043              0.458

 Optimization completed.
    -- Stationary point found.
 Normal termination of Gaussian 16 at Thu Dec 10 09:32:10 2020.

 ----------------------------------------------------------------------
 # B3LYP/6-311++G(d,p) empiricaldispersion=gd3bj scf=xqc pop=npa geom=c
 heck
 ----------------------------------------------------------------------

 --------------------------------------
 CID_81212834_JID_4153_Energie_neutraal
 --------------------------------------
 Structure from the checkpoint file:  "JID_4153.chk"
 Charge =  0 Multiplicity = 1

 SCF Done:  E(RB3LYP) =  -653.282629595     A.U. after   14 cycles
 Normal termination of Gaussian 16 at Thu Dec 10 09:36:34 2020.

 ----------------------------------------------------------------------
 # B3LYP/6-311++G(d,p) empiricaldispersion=gd3bj scf=xqc pop=npa geom=c
 heck
 ----------------------------------------------------------------------

 ------------------------------------
 CID_81212834_JID_4153_Energie_kation
 ------------------------------------
 Structure from the checkpoint file:  "JID_4153.chk"
 Charge =  1 Multiplicity = 2

 SCF Done:  E(UB3LYP) =  -652.985688568     A.U. after   24 cycles
 Normal termination of Gaussian 16 at Thu Dec 10 09:45:58 2020.
 Gaussian 16:  ES64L-G16RevA.03 25-Dec-2016

 ----------------------------------------------------------------------
 # B3LYP/6-311++G(d,p) empiricaldispersion=gd3bj scf=xqc pop=npa geom=c
 heck
 ----------------------------------------------------------------------

 -----------------------------------
 CID_81212834_JID_4153_Energie_anion
 -----------------------------------
 Structure from the checkpoint file:  "JID_4153.chk"
 Charge = -1 Multiplicity = 2

                         Standard orientation:
 ---------------------------------------------------------------------
 Center     Atomic      Atomic             Coordinates (Angstroms)
 Number     Number       Type             X           Y           Z
 ---------------------------------------------------------------------
      1          6           0        0.494610    1.734156   -1.549023
      2          6           0        0.473154    1.250474   -0.091883
      3          6           0       -0.642802    1.919569    0.713220
      4          8           0       -1.925922    1.504691    0.269960
      5          6           0       -2.082583    0.100687    0.440912
      6          6           0       -1.025730   -0.678852   -0.340413
      7          7           0        0.311346   -0.211743    0.018032
      8          6           0        1.389852   -1.060145   -0.274166
      9          7           0        1.314750   -2.164491   -0.926469
     10          6           0        2.761946   -0.738774    0.325469
     11          6           0        3.606241    0.233631   -0.519834
     12          6           0        2.713389   -0.350412    1.810657
     13          6           0       -3.494764   -0.231440   -0.015275
     14          8           0       -3.689536   -1.624976    0.187704
     15          1           0        1.233554    1.175790   -2.131463
     16          1           0        0.754413    2.797965   -1.594089
     17          1           0       -0.485726    1.610338   -2.017310
     18          1           0        1.414970    1.519014    0.385401
     19          1           0       -0.518837    1.678346    1.780769
     20          1           0       -0.607445    3.005466    0.587400
     21          1           0       -1.977424   -0.151107    1.508740
     22          1           0       -1.226933   -0.586654   -1.420952
     23          1           0       -1.117130   -1.733524   -0.073753
     24          1           0        0.387541   -2.304969   -1.334439
     25          1           0        3.267568   -1.706578    0.257474
     26          1           0        3.250526    1.267822   -0.475647
     27          1           0        4.641120    0.230569   -0.158866
     28          1           0        3.614346   -0.079846   -1.568737
     29          1           0        2.129604   -1.077594    2.384040
     30          1           0        3.729313   -0.330160    2.221662
     31          1           0        2.272521    0.636753    1.982408
     32          1           0       -4.203106    0.375356    0.567021
     33          1           0       -3.600628    0.047927   -1.075084
     34          1           0       -4.577129   -1.852353   -0.124806
 ---------------------------------------------------------------------

 SCF Done:  E(UB3LYP) =  -653.271802050     A.U. after   32 cycles

 The electronic state is 2-A.
 Alpha  occ. eigenvalues --  -19.03863 -19.02581 -14.23953 -14.18273 -10.14594
 Alpha  occ. eigenvalues --  -10.13080 -10.12756 -10.12049 -10.11919 -10.10686
 Alpha  occ. eigenvalues --  -10.08974 -10.07283 -10.07219 -10.07016  -0.95927
 Alpha  occ. eigenvalues --   -0.92645  -0.87011  -0.77935  -0.71193  -0.69854
 Alpha  occ. eigenvalues --   -0.65095  -0.60535  -0.59989  -0.58572  -0.53600
 Alpha  occ. eigenvalues --   -0.52764  -0.48255  -0.45284  -0.43076  -0.41916
 Alpha  occ. eigenvalues --   -0.39370  -0.38761  -0.37576  -0.37318  -0.35579
 Alpha  occ. eigenvalues --   -0.34994  -0.34922  -0.33041  -0.32461  -0.31319
 Alpha  occ. eigenvalues --   -0.30252  -0.29795  -0.29295  -0.27594  -0.26581
 Alpha  occ. eigenvalues --   -0.26324  -0.25775  -0.24741  -0.24294  -0.22533
 Alpha  occ. eigenvalues --   -0.21939  -0.18275  -0.17773  -0.17388  -0.13592
 Alpha  occ. eigenvalues --    0.04066
 Alpha virt. eigenvalues --    0.05443   0.06904   0.07450   0.08617   0.09026
 Alpha virt. eigenvalues --    0.09138   0.09628   0.10086   0.10291   0.11205
 Alpha virt. eigenvalues --    0.11285   0.11793   0.12242   0.13432   0.13566

  Beta  occ. eigenvalues --  -19.03856 -19.02525 -14.23952 -14.18271 -10.14594
  Beta  occ. eigenvalues --  -10.13076 -10.12738 -10.12040 -10.11890 -10.10675
  Beta  occ. eigenvalues --  -10.08970 -10.07260 -10.07200 -10.06993  -0.95907
  Beta  occ. eigenvalues --   -0.92527  -0.87004  -0.77927  -0.71166  -0.69833
  Beta  occ. eigenvalues --   -0.65056  -0.60503  -0.59947  -0.58512  -0.53564
  Beta  occ. eigenvalues --   -0.52712  -0.48215  -0.45258  -0.42966  -0.41895
  Beta  occ. eigenvalues --   -0.39351  -0.38732  -0.37532  -0.37285  -0.35551
  Beta  occ. eigenvalues --   -0.34974  -0.34896  -0.33015  -0.32430  -0.31284
  Beta  occ. eigenvalues --   -0.30226  -0.29763  -0.29263  -0.27568  -0.26559
  Beta  occ. eigenvalues --   -0.26296  -0.25749  -0.24681  -0.24274  -0.22513
  Beta  occ. eigenvalues --   -0.21914  -0.18223  -0.17749  -0.17382  -0.13587
  Beta virt. eigenvalues --    0.06207   0.07097   0.07644   0.07778   0.08894
  Beta virt. eigenvalues --    0.09240   0.09490   0.09890   0.10344   0.10500
  Beta virt. eigenvalues --    0.11473   0.11747   0.12008   0.12358   0.13623

 Mulliken charges and spin densities:
               1          2
     1  C    1.132683  -1.753462
     2  C   -1.294470   1.386410
     3  C   -0.036700  -0.361360
     4  O   -0.060308   0.020592
     5  C   -1.556998   0.961955
     6  C    0.245482  -0.402888
     7  N    0.319354  -0.000050
     8  C    0.444632  -0.761108
     9  N   -0.267514  -0.005372
    10  C   -1.132319   1.310884
    11  C    0.231124  -0.821953
    12  C    0.030672  -0.603560
    13  C    2.250296  -2.531942
    14  O   -0.334434   0.075124
    15  H    0.169179  -0.007513
    16  H   -0.312110   0.473249
    17  H    0.177519   0.002852
    18  H   -0.104679   0.250607
    19  H    0.186551  -0.057419
    20  H   -0.455553   0.654384
    21  H    0.122588   0.073976
    22  H    0.098076   0.104107
    23  H    0.294151  -0.120770
    24  H    0.184614   0.034499
    25  H    0.167083   0.054864
    26  H   -0.251490   0.402428
    27  H   -0.228204   0.378596
    28  H    0.081330   0.067133
    29  H    0.042743   0.100673
    30  H   -0.136994   0.286215
    31  H   -0.130134   0.289088
    32  H   -0.204168   0.370250
    33  H   -0.349824   0.528290
    34  H   -0.322178   0.601221
 Sum of Mulliken charges =  -1.00000   1.00000

 Dipole moment (field-independent basis, Debye):
    X=              3.6029    Y=              0.0567    Z=              0.5944  Tot=              3.6520
 Quadrupole moment (field-independent basis, Debye-Ang):
   XX=           -179.4066   YY=           -140.9985   ZZ=           -116.0486
   XY=            -13.4150   XZ=             -2.9487   YZ=             -1.6707

 Summary of Natural Population Analysis:

                                       Natural Population
                Natural  -----------------------------------------------
    Atom  No    Charge         Core      Valence    Rydberg      Total
 -----------------------------------------------------------------------
      C    1   -0.29615      0.99964     2.29066    0.00585     3.29615
      C    2   -0.02397      0.99958     2.01092    0.01348     3.02397
      C    3   -0.00867      0.99954     1.99573    0.01340     3.00867
      O    4   -0.30047      0.99988     3.29169    0.00890     4.30047
      C    5    0.05761      0.99954     1.92783    0.01502     2.94239
      C    6   -0.10719      0.99958     2.09532    0.01229     3.10719
      N    7   -0.27327      0.99963     2.76267    0.01097     3.77327
      C    8    0.24641      0.99959     1.73550    0.01851     2.75359
      N    9   -0.35965      0.99972     2.85270    0.00724     3.85965
      C   10   -0.13977      0.99956     2.12987    0.01034     3.13977
      C   11   -0.28137      0.99964     2.27624    0.00549     3.28137
      C   12   -0.28228      0.99965     2.27695    0.00568     3.28228
      C   13   -0.01028      0.99957     1.99702    0.01369     3.01028
      O   14   -0.37298      0.99989     3.36628    0.00681     4.37298
      H   15    0.10236      0.00000     0.39681    0.00082     0.39764
      H   16    0.10418      0.00000     0.39472    0.00110     0.39582
      H   17    0.10379      0.00000     0.39499    0.00122     0.39621
      H   18    0.10530      0.00000     0.39190    0.00280     0.39470
      H   19    0.08273      0.00000     0.41581    0.00146     0.41727
      H   20    0.09587      0.00000     0.40285    0.00128     0.40413
      H   21    0.08320      0.00000     0.41505    0.00175     0.41680
      H   22    0.09063      0.00000     0.40806    0.00131     0.40937
      H   23    0.11379      0.00000     0.38475    0.00146     0.38621
      H   24    0.16210      0.00000     0.33580    0.00210     0.33790
      H   25    0.10986      0.00000     0.38808    0.00206     0.39014
      H   26    0.09697      0.00000     0.40182    0.00121     0.40303
      H   27    0.09938      0.00000     0.39975    0.00088     0.40062
      H   28    0.10272      0.00000     0.39637    0.00091     0.39728
      H   29    0.10200      0.00000     0.39713    0.00088     0.39800
      H   30    0.09878      0.00000     0.40040    0.00082     0.40122
      H   31    0.09705      0.00000     0.40186    0.00108     0.40295
      H   32    0.08306      0.00000     0.41508    0.00186     0.41694
      H   33    0.07965      0.00000     0.41832    0.00203     0.42035
      H   34    0.23865      0.00000     0.24280    0.01855     0.26135
 =======================================================================
   * Total *    0.00000     13.99499    40.81174    0.19327    55.00000

 Normal termination of Gaussian 16 at Thu Dec 10 09:58:35 2020.
