 Gaussian 16, Revision A.03,

 -----------------------------------------------------------
 # opt freq B3LYP/6-31G(d) empiricaldispersion=gd3bj scf=xqc
 -----------------------------------------------------------

 ------------------------------
 CID_144702939_JID_284_neutraal
 ------------------------------
 Symbolic Z-matrix:
 Charge =  0 Multiplicity = 1

 SCF Done:  E(RB3LYP) =  -406.719001352     A.U. after   14 cycles
 SCF Done:  E(RB3LYP) =  -406.724042130     A.U. after   13 cycles
 SCF Done:  E(RB3LYP) =  -406.724411823     A.U. after   12 cycles
 SCF Done:  E(RB3LYP) =  -406.724488981     A.U. after   12 cycles
 SCF Done:  E(RB3LYP) =  -406.724567782     A.U. after   12 cycles
 SCF Done:  E(RB3LYP) =  -406.724620079     A.U. after   12 cycles
 SCF Done:  E(RB3LYP) =  -406.724661906     A.U. after   12 cycles
 SCF Done:  E(RB3LYP) =  -406.724698962     A.U. after   11 cycles
 SCF Done:  E(RB3LYP) =  -406.724705742     A.U. after   11 cycles
 SCF Done:  E(RB3LYP) =  -406.724710426     A.U. after   10 cycles
 SCF Done:  E(RB3LYP) =  -406.724749391     A.U. after   11 cycles
 SCF Done:  E(RB3LYP) =  -406.724745526     A.U. after   11 cycles
 SCF Done:  E(RB3LYP) =  -406.724749519     A.U. after   11 cycles
 SCF Done:  E(RB3LYP) =  -406.724749533     A.U. after    8 cycles
 SCF Done:  E(RB3LYP) =  -406.724749538     A.U. after    8 cycles
 Optimization completed on the basis of negligible forces.
    -- Stationary point found.

 1\1\GINC-NODE109\FOpt\RB3LYP\6-31G(d)\C9H15N1\VSC10255\08-Dec-2020\0\\
 # opt freq B3LYP/6-31G(d) empiricaldispersion=gd3bj scf=xqc\\CID_14470
 2939_JID_284_neutraal\\0,1\C,1.0072914377,0.0981485478,-0.174202233\C,
 0.6636944504,0.2278311685,-1.6665790921\C,1.1086985311,-0.9548624644,-
 2.4963073065\C,0.2376537855,-1.725726683,-3.1518949837\C,2.6019607305,
 -1.2185551121,-2.5681463115\C,3.3573688473,-0.0613030207,-3.1885324976
 \C,4.2425643974,0.6855079431,-2.5072324247\C,5.0824142281,1.8106732136
 ,-3.0385111881\N,3.0908509733,0.0857204785,-4.5665139853\C,2.515272976

 Normal termination of Gaussian 16 at Tue Dec  8 10:37:03 2020.

 --------------------------------------------------------------------
 #N Geom=AllCheck Guess=TCheck SCRF=Check GenChk RB3LYP/6-31G(d) Freq
 --------------------------------------------------------------------

 Structure from the checkpoint file:  "JID_284.chk"
 ------------------------------
 CID_144702939_JID_284_neutraal
 ------------------------------
 Charge =  0 Multiplicity = 1

 SCF Done:  E(RB3LYP) =  -406.724749538     A.U. after    1 cycles

  Exact polarizability: 105.061 -15.719 112.010   2.776   2.567  85.391
 Approx polarizability: 133.373 -29.531 169.383   5.181   3.135 132.669

                      1                      2                      3
                      A                      A                      A
 Frequencies --     18.6404                51.1384                77.5054
 Red. masses --      3.2332                 3.0997                 3.1528
 Frc consts  --      0.0007                 0.0048                 0.0112
 IR Inten    --      0.6775                 0.2440                 4.2711

                      4                      5                      6
                      A                      A                      A
 Frequencies --     98.0619               129.8654               163.0854
 Red. masses --      2.1180                 2.3634                 1.2284
 Frc consts  --      0.0120                 0.0235                 0.0192
 IR Inten    --      0.8665                 2.7100                 3.0125

                      7                      8                      9
                      A                      A                      A
 Frequencies --    221.5089               229.5754               249.4063
 Red. masses --      1.4416                 2.5384                 2.7779
 Frc consts  --      0.0417                 0.0788                 0.1018
 IR Inten    --      0.7395                 0.9033                 5.5153

                     10                     11                     12
                      A                      A                      A
 Frequencies --    277.8813               316.8271               362.6217
 Red. masses --      2.1590                 2.4851                 2.7595
 Frc consts  --      0.0982                 0.1470                 0.2138
 IR Inten    --      0.6252                 6.5491                 4.9567

                     13                     14                     15
                      A                      A                      A
 Frequencies --    417.1254               448.8726               525.8672
 Red. masses --      2.0578                 2.3328                 2.1037
 Frc consts  --      0.2110                 0.2769                 0.3428
 IR Inten    --      0.4599                 2.2366                 0.4319

                     16                     17                     18
                      A                      A                      A
 Frequencies --    615.2628               631.0901               728.1655
 Red. masses --      2.3557                 3.0178                 1.2108
 Frc consts  --      0.5254                 0.7082                 0.3782
 IR Inten    --      7.8565                 0.7168                 1.0670

                     19                     20                     21
                      A                      A                      A
 Frequencies --    781.3537               805.1756               806.9529
 Red. masses --      1.8380                 1.3629                 1.9841
 Frc consts  --      0.6611                 0.5206                 0.7612
 IR Inten    --      7.4538                 1.8475                 5.5995

                     22                     23                     24
                      A                      A                      A
 Frequencies --    841.8740               846.6622               927.9155
 Red. masses --      1.2257                 2.4193                 1.3844
 Frc consts  --      0.5118                 1.0218                 0.7023
 IR Inten    --      9.1628                 6.5158                36.3216

                     25                     26                     27
                      A                      A                      A
 Frequencies --    936.0180               961.5995              1023.3695
 Red. masses --      1.8814                 1.7988                 1.5727
 Frc consts  --      0.9712                 0.9800                 0.9704
 IR Inten    --      3.8721                 0.8353                20.3712

                     28                     29                     30
                      A                      A                      A
 Frequencies --   1035.9848              1064.2652              1071.1763
 Red. masses --      2.0230                 1.3632                 1.4533
 Frc consts  --      1.2793                 0.9097                 0.9825
 IR Inten    --     10.9909                11.6740                 3.7121

                     31                     32                     33
                      A                      A                      A
 Frequencies --   1090.9181              1103.6496              1117.0780
 Red. masses --      1.8061                 3.1426                 1.5687
 Frc consts  --      1.2664                 2.2553                 1.1534
 IR Inten    --      5.4025                 0.9303                 1.2391

                     34                     35                     36
                      A                      A                      A
 Frequencies --   1201.0168              1228.8135              1236.7848
 Red. masses --      1.7284                 1.5468                 1.4846
 Frc consts  --      1.4689                 1.3761                 1.3380
 IR Inten    --      5.2538                 9.1636                 9.3479

                     37                     38                     39
                      A                      A                      A
 Frequencies --   1291.4753              1329.2765              1339.5400
 Red. masses --      1.5259                 1.4838                 1.4725
 Frc consts  --      1.4995                 1.5447                 1.5568
 IR Inten    --      1.5787                 3.5957                 7.4311

                     40                     41                     42
                      A                      A                      A
 Frequencies --   1374.7341              1389.7538              1434.3961
 Red. masses --      1.5074                 1.3990                 1.2269
 Frc consts  --      1.6785                 1.5920                 1.4873
 IR Inten    --      1.1896                10.4474                 2.7760

                     43                     44                     45
                      A                      A                      A
 Frequencies --   1445.0743              1474.2424              1498.7073
 Red. masses --      1.2705                 1.1614                 1.0996
 Frc consts  --      1.5632                 1.4872                 1.4552
 IR Inten    --      1.4081                 1.8383                12.4678

                     46                     47                     48
                      A                      A                      A
 Frequencies --   1511.1858              1517.1472              1518.5875
 Red. masses --      1.0833                 1.0460                 1.1099
 Frc consts  --      1.4575                 1.4186                 1.5081
 IR Inten    --      2.6687                 4.3798                 6.3295

                     49                     50                     51
                      A                      A                      A
 Frequencies --   1528.6980              1530.7089              1538.7081
 Red. masses --      1.1192                 1.0536                 1.0655
 Frc consts  --      1.5410                 1.4544                 1.4864
 IR Inten    --      4.4487                 4.2155                 1.9479

                     52                     53                     54
                      A                      A                      A
 Frequencies --   1724.9804              1739.7587              1745.9391
 Red. masses --      6.0999                 5.3640                 6.8377
 Frc consts  --     10.6941                 9.5657                12.2805
 IR Inten    --     14.7842                 8.9742                28.7513

                     55                     56                     57
                      A                      A                      A
 Frequencies --   3032.2973              3033.3116              3045.6953
 Red. masses --      1.0628                 1.0419                 1.0609
 Frc consts  --      5.7576                 5.6482                 5.7982
 IR Inten    --     28.7979                34.4501                38.3097

                     58                     59                     60
                      A                      A                      A
 Frequencies --   3051.0946              3055.5938              3075.2448
 Red. masses --      1.0439                 1.0496                 1.0998
 Frc consts  --      5.7254                 5.7740                 6.1281
 IR Inten    --     12.4641                31.7079                27.7106

                     61                     62                     63
                      A                      A                      A
 Frequencies --   3081.1516              3098.0339              3120.0488
 Red. masses --      1.0978                 1.1038                 1.1027
 Frc consts  --      6.1406                 6.2419                 6.3245
 IR Inten    --     14.8639                20.1652                32.4822

                     64                     65                     66
                      A                      A                      A
 Frequencies --   3125.9606              3134.4517              3155.7269
 Red. masses --      1.1023                 1.0959                 1.0601
 Frc consts  --      6.3465                 6.3438                 6.2203
 IR Inten    --     46.1391                 7.2565                12.0578

                     67                     68                     69
                      A                      A                      A
 Frequencies --   3162.2669              3163.3500              3232.6464
 Red. masses --      1.0953                 1.1026                 1.1159
 Frc consts  --      6.4535                 6.5009                 6.8706
 IR Inten    --     59.0247                 7.0224                19.1617

 - Thermochemistry -
 -------------------
 Temperature   298.150 Kelvin.  Pressure   1.00000 Atm.
 Atom     1 has atomic number  6 and mass  12.00000

 Molecular mass:   137.12045 amu.
 Principal axes and moments of inertia in atomic units:
                           1         2         3
     Eigenvalues --  1018.692501971.220552444.70028
           X            0.99995  -0.00880   0.00453
           Y            0.00878   0.99996   0.00313
           Z           -0.00456  -0.00309   0.99998
 This molecule is an asymmetric top.
 Rotational symmetry number  1.
 Warning -- assumption of classical behavior for rotation
           may cause significant error
 Rotational temperatures (Kelvin)      0.08502     0.04394     0.03543
 Rotational constants (GHZ):           1.77163     0.91555     0.73823
 Zero-point vibrational energy     581043.6 (Joules/Mol)
                                  138.87274 (Kcal/Mol)
 Warning -- explicit consideration of  16 degrees of freedom as
           vibrations may cause significant error
 Vibrational temperatures:     26.82    73.58   111.51   141.09   186.85
          (Kelvin)            234.64   318.70   330.31   358.84   399.81
                              455.84   521.73   600.15   645.83   756.61
                              885.23   908.00  1047.67  1124.19  1158.47
                             1161.03  1211.27  1218.16  1335.06  1346.72
                             1383.53  1472.40  1490.55  1531.24  1541.18
                             1569.59  1587.91  1607.23  1728.00  1767.99
                             1779.46  1858.14  1912.53  1927.30  1977.94
                             1999.55  2063.78  2079.14  2121.11  2156.31
                             2174.26  2182.84  2184.91  2199.46  2202.35
                             2213.86  2481.86  2503.12  2512.02  4362.80
                             4364.26  4382.08  4389.84  4396.32  4424.59
                             4433.09  4457.38  4489.05  4497.56  4509.78
                             4540.39  4549.80  4551.36  4651.06

 Zero-point correction=                           0.221308 (Hartree/Particle)
 Thermal correction to Energy=                    0.233432
 Thermal correction to Enthalpy=                  0.234377
 Thermal correction to Gibbs Free Energy=         0.182010
 Sum of electronic and zero-point Energies=           -406.503442
 Sum of electronic and thermal Energies=              -406.491317
 Sum of electronic and thermal Enthalpies=            -406.490373
 Sum of electronic and thermal Free Energies=         -406.542739

                     E (Thermal)             CV                S
                      KCal/Mol        Cal/Mol-Kelvin    Cal/Mol-Kelvin
 Total                  146.481             43.324            110.214
 Electronic               0.000              0.000              0.000
 Translational            0.889              2.981             40.659
 Rotational               0.889              2.981             29.974
 Vibrational            144.704             37.362             39.581
 Vibration     1          0.593              1.986              6.774
 Vibration     2          0.595              1.977              4.773
 Vibration     3          0.599              1.964              3.953
 Vibration     4          0.604              1.951              3.492
 Vibration     5          0.612              1.923              2.948
 Vibration     6          0.623              1.888              2.514
 Vibration     7          0.648              1.808              1.947
 Vibration     8          0.652              1.796              1.882
 Vibration     9          0.662              1.764              1.735
 Vibration    10          0.679              1.714              1.547
 Vibration    11          0.704              1.641              1.326
 Vibration    12          0.736              1.549              1.111
 Vibration    13          0.780              1.433              0.902
 Vibration    14          0.808              1.363              0.799
 Vibration    15          0.881              1.193              0.597
 Vibration    16          0.975              1.000              0.424

 Optimization completed on the basis of negligible forces.
    -- Stationary point found.

 1\1\GINC-NODE109\Freq\RB3LYP\6-31G(d)\C9H15N1\VSC10255\08-Dec-2020\0\\
 #N Geom=AllCheck Guess=TCheck SCRF=Check GenChk RB3LYP/6-31G(d) Freq\\
 CID_144702939_JID_284_neutraal\\0,1\C,1.0072914377,0.0981485478,-0.174
 202233\C,0.6636944504,0.2278311685,-1.6665790921\C,1.1086985311,-0.954
 8624644,-2.4963073065\C,0.2376537855,-1.725726683,-3.1518949837\C,2.60
 19607305,-1.2185551121,-2.5681463115\C,3.3573688473,-0.0613030207,-3.1
 885324976\C,4.2425643974,0.6855079431,-2.5072324247\C,5.0824142281,1.8
 106732136,-3.0385111881\N,3.0908509733,0.0857204785,-4.5665139853\C,2.

 Normal termination of Gaussian 16 at Tue Dec  8 10:44:34 2020.

 ----------------------------------------------------------------------
 # B3LYP/6-311++G(d,p) empiricaldispersion=gd3bj scf=xqc pop=npa geom=c
 heck
 ----------------------------------------------------------------------

 --------------------------------------
 CID_144702939_JID_284_Energie_neutraal
 --------------------------------------
 Structure from the checkpoint file:  "JID_284.chk"
 Charge =  0 Multiplicity = 1

 SCF Done:  E(RB3LYP) =  -406.838421860     A.U. after   14 cycles
 Normal termination of Gaussian 16 at Tue Dec  8 10:48:01 2020.

 ----------------------------------------------------------------------
 # B3LYP/6-311++G(d,p) empiricaldispersion=gd3bj scf=xqc pop=npa geom=c
 heck
 ----------------------------------------------------------------------

 ------------------------------------
 CID_144702939_JID_284_Energie_kation
 ------------------------------------
 Structure from the checkpoint file:  "JID_284.chk"
 Charge =  1 Multiplicity = 2

 SCF Done:  E(UB3LYP) =  -406.536799401     A.U. after   22 cycles
 Normal termination of Gaussian 16 at Tue Dec  8 10:55:13 2020.
 Gaussian 16:  ES64L-G16RevA.03 25-Dec-2016

 -----------------------------------
 CID_144702939_JID_284_Energie_anion
 -----------------------------------
 Structure from the checkpoint file:  "JID_284.chk"
 Charge = -1 Multiplicity = 2

                         Standard orientation:
 ---------------------------------------------------------------------
 Center     Atomic      Atomic             Coordinates (Angstroms)
 Number     Number       Type             X           Y           Z
 ---------------------------------------------------------------------
      1          6           0       -2.167592   -1.947535    0.392872
      2          6           0       -1.761855   -0.551316    0.890883
      3          6           0       -1.571229    0.456800   -0.219345
      4          6           0       -2.326341    1.553807   -0.314885
      5          6           0       -0.462631    0.175505   -1.217548
      6          6           0        0.900875    0.129143   -0.559175
      7          6           0        1.646130   -0.987067   -0.494844
      8          6           0        3.025934   -1.127266    0.079688
      9          7           0        1.327843    1.394561   -0.103219
     10          6           0        1.498568    1.591883    1.138684
     11          1           0       -3.084525   -1.897925   -0.204817
     12          1           0       -2.346649   -2.622144    1.237174
     13          1           0       -1.384061   -2.396082   -0.226770
     14          1           0       -2.519322   -0.177800    1.589405
     15          1           0       -0.824806   -0.645056    1.457539
     16          1           0       -2.178608    2.281632   -1.108617
     17          1           0       -3.119609    1.764242    0.398501
     18          1           0       -0.639229   -0.781640   -1.721955
     19          1           0       -0.459915    0.958768   -1.984030
     20          1           0        1.229996   -1.876826   -0.964675
     21          1           0        3.032444   -1.798303    0.949376
     22          1           0        3.710682   -1.564556   -0.658701
     23          1           0        3.439693   -0.166345    0.396673
     24          1           0        1.317925    0.825763    1.904557
     25          1           0        1.839928    2.570631    1.480893
 ---------------------------------------------------------------------

 SCF Done:  E(UB3LYP) =  -406.821837090     A.U. after   33 cycles
 SCF Done:  E(UB3LYP) =  -406.821837090     a.u. after    1 cycles

 The electronic state is 2-A.
 Alpha  occ. eigenvalues --  -14.19025 -10.08646 -10.08285 -10.07530 -10.06417
 Alpha  occ. eigenvalues --  -10.06303 -10.05309 -10.05259 -10.04732 -10.04594
 Alpha  occ. eigenvalues --   -0.81410  -0.71459  -0.66682  -0.63330  -0.60673
 Alpha  occ. eigenvalues --   -0.54298  -0.52085  -0.50739  -0.42478  -0.40898
 Alpha  occ. eigenvalues --   -0.36310  -0.36112  -0.35428  -0.33896  -0.32677
 Alpha  occ. eigenvalues --   -0.31196  -0.29458  -0.28927  -0.27889  -0.26331
 Alpha  occ. eigenvalues --   -0.25399  -0.24376  -0.23296  -0.22787  -0.20335
 Alpha  occ. eigenvalues --   -0.16791  -0.14811  -0.10748   0.05123
 Alpha virt. eigenvalues --    0.07021   0.08043   0.08103   0.08360   0.09545
 Alpha virt. eigenvalues --    0.10110   0.10511   0.10761   0.10959   0.11419
 Alpha virt. eigenvalues --    0.12866   0.13044   0.13937   0.14068   0.14365

  Beta  occ. eigenvalues --  -14.18865 -10.08505 -10.08296 -10.07531 -10.06398
  Beta  occ. eigenvalues --  -10.06293 -10.05275 -10.05251 -10.04699 -10.04528
  Beta  occ. eigenvalues --   -0.81125  -0.71428  -0.66580  -0.63284  -0.60616
  Beta  occ. eigenvalues --   -0.54178  -0.52024  -0.50463  -0.42394  -0.40733
  Beta  occ. eigenvalues --   -0.36272  -0.36075  -0.35296  -0.33809  -0.32563
  Beta  occ. eigenvalues --   -0.31156  -0.29396  -0.28860  -0.27820  -0.26266
  Beta  occ. eigenvalues --   -0.25341  -0.24237  -0.23267  -0.22754  -0.19651
  Beta  occ. eigenvalues --   -0.16564  -0.14797  -0.10516
  Beta virt. eigenvalues --    0.07435   0.08253   0.08492   0.08550   0.09272
  Beta virt. eigenvalues --    0.09859   0.10349   0.10827   0.11149   0.11414
  Beta virt. eigenvalues --    0.11869   0.13137   0.13528   0.14253   0.14479

 Mulliken charges and spin densities:
               1          2
     1  C    1.058604  -1.655853
     2  C   -1.706212   1.225729
     3  C    0.400670   0.586626
     4  C    0.752557  -1.306799
     5  C    0.103707  -0.680958
     6  C   -0.295940   0.280036
     7  C   -1.306803   1.295685
     8  C    1.986974  -2.717929
     9  N   -0.070721   0.124262
    10  C   -0.065085  -0.060023
    11  H   -0.123370   0.262677
    12  H   -0.595090   0.731489
    13  H   -0.109064   0.244808
    14  H   -0.257621   0.405179
    15  H    0.537318  -0.411758
    16  H    0.094054   0.023837
    17  H    0.003215   0.106339
    18  H    0.027814   0.139874
    19  H   -0.066527   0.251129
    20  H   -0.369344   0.511992
    21  H   -0.357044   0.516192
    22  H   -0.085764   0.200581
    23  H   -0.262429   0.408291
    24  H   -0.176833   0.255413
    25  H   -0.117068   0.263180
 Sum of Mulliken charges =  -1.00000   1.00000

 Dipole moment (field-independent basis, Debye):
    X=             -2.0266    Y=              3.1238    Z=             -1.4234  Tot=              3.9864
 Quadrupole moment (field-independent basis, Debye-Ang):
   XX=           -120.7706   YY=           -103.8338   ZZ=            -92.9548
   XY=             -6.4379   XZ=             -2.4130   YZ=              3.9853

 Summary of Natural Population Analysis:

                                       Natural Population
                Natural  -----------------------------------------------
    Atom  No    Charge         Core      Valence    Rydberg      Total
 -----------------------------------------------------------------------
      C    1   -0.28171      0.99966     2.27701    0.00504     3.28171
      C    2   -0.20751      0.99958     2.19799    0.00994     3.20751
      C    3    0.01158      0.99951     1.97617    0.01275     2.98842
      C    4   -0.19944      0.99947     2.19264    0.00733     3.19944
      C    5   -0.21541      0.99953     2.20482    0.01106     3.21541
      C    6    0.06745      0.99941     1.91689    0.01625     2.93255
      C    7   -0.10516      0.99945     2.09615    0.00956     3.10516
      C    8   -0.30118      0.99965     2.29538    0.00615     3.30118
      N    9   -0.21014      0.99966     2.69701    0.01347     3.71014
      C   10    0.00928      0.99963     1.97885    0.01224     2.99072
      H   11    0.09562      0.00000     0.40306    0.00132     0.40438
      H   12    0.10022      0.00000     0.39836    0.00142     0.39978
      H   13    0.09790      0.00000     0.40062    0.00148     0.40210
      H   14    0.09623      0.00000     0.40255    0.00122     0.40377
      H   15    0.10427      0.00000     0.39359    0.00213     0.39573
      H   16    0.09156      0.00000     0.40735    0.00109     0.40844
      H   17    0.09019      0.00000     0.40879    0.00102     0.40981
      H   18    0.10765      0.00000     0.39082    0.00153     0.39235
      H   19    0.10545      0.00000     0.39275    0.00180     0.39455
      H   20    0.09226      0.00000     0.40645    0.00129     0.40774
      H   21    0.10413      0.00000     0.39377    0.00210     0.39587
      H   22    0.09725      0.00000     0.40178    0.00097     0.40275
      H   23    0.10550      0.00000     0.39319    0.00132     0.39450
      H   24    0.06865      0.00000     0.42939    0.00197     0.43135
      H   25    0.07535      0.00000     0.42343    0.00122     0.42465
 =======================================================================
   * Total *   -0.00000      9.99556    27.87878    0.12566    38.00000

 Normal termination of Gaussian 16 at Tue Dec  8 11:09:09 2020.
