 Gaussian 16, Revision A.03,

 -----------------------------------------------------------
 # opt freq B3LYP/6-31G(d) empiricaldispersion=gd3bj scf=xqc
 -----------------------------------------------------------

 -------------------------------
 CID_106915769_JID_4289_neutraal
 -------------------------------
 Symbolic Z-matrix:
 Charge =  0 Multiplicity = 1

 SCF Done:  E(RB3LYP) =  -669.123076226     A.U. after   14 cycles
 SCF Done:  E(RB3LYP) =  -669.127683860     A.U. after   13 cycles
 SCF Done:  E(RB3LYP) =  -669.128769824     A.U. after   13 cycles
 SCF Done:  E(RB3LYP) =  -669.130112744     A.U. after   12 cycles
 SCF Done:  E(RB3LYP) =  -669.130803746     A.U. after   12 cycles
 SCF Done:  E(RB3LYP) =  -669.130991966     A.U. after   10 cycles
 SCF Done:  E(RB3LYP) =  -669.131052080     A.U. after   10 cycles
 SCF Done:  E(RB3LYP) =  -669.131085038     A.U. after   10 cycles
 SCF Done:  E(RB3LYP) =  -669.131109882     A.U. after   10 cycles
 SCF Done:  E(RB3LYP) =  -669.131153164     A.U. after   10 cycles
 SCF Done:  E(RB3LYP) =  -669.131365927     A.U. after   10 cycles
 SCF Done:  E(RB3LYP) =  -669.131367469     A.U. after    8 cycles
 SCF Done:  E(RB3LYP) =  -669.131367869     A.U. after    7 cycles
 SCF Done:  E(RB3LYP) =  -669.131367981     A.U. after    7 cycles
 SCF Done:  E(RB3LYP) =  -669.131368086     A.U. after    8 cycles
 SCF Done:  E(RB3LYP) =  -669.131368131     A.U. after    7 cycles
 Optimization completed.
    -- Stationary point found.
 Normal termination of Gaussian 16 at Thu Dec 10 09:37:45 2020.

 --------------------------------------------------------------------
 #N Geom=AllCheck Guess=TCheck SCRF=Check GenChk RB3LYP/6-31G(d) Freq
 --------------------------------------------------------------------

 Structure from the checkpoint file:  "JID_4289.chk"
 -------------------------------
 CID_106915769_JID_4289_neutraal
 -------------------------------
 Charge =  0 Multiplicity = 1

 SCF Done:  E(RB3LYP) =  -669.131368131     A.U. after    1 cycles

  Exact polarizability: 123.911  -3.315 114.132  -2.665  -3.842 111.305
 Approx polarizability: 160.593  -8.184 174.458  -1.000  -2.986 161.334

                      1                      2                      3
                      A                      A                      A
 Frequencies --     38.6283                47.2210                56.4460
 Red. masses --      3.5045                 5.0426                 3.6267
 Frc consts  --      0.0031                 0.0066                 0.0068
 IR Inten    --      2.7179                 2.3449                 0.8947

                      4                      5                      6
                      A                      A                      A
 Frequencies --     65.1961                94.2641                97.5980
 Red. masses --      3.2926                 1.8378                 2.9579
 Frc consts  --      0.0082                 0.0096                 0.0166
 IR Inten    --      6.8020                 1.1009                 0.4230

                      7                      8                      9
                      A                      A                      A
 Frequencies --    158.7776               167.1279               195.9938
 Red. masses --      3.1016                 2.5194                 3.5134
 Frc consts  --      0.0461                 0.0415                 0.0795
 IR Inten    --      5.9621                 2.3230                 3.5604

                     10                     11                     12
                      A                      A                      A
 Frequencies --    220.3447               248.3190               293.9252
 Red. masses --      1.5668                 1.4927                 2.3535
 Frc consts  --      0.0448                 0.0542                 0.1198
 IR Inten    --      0.4221                 0.7040                 3.3179

                     13                     14                     15
                      A                      A                      A
 Frequencies --    313.2643               348.2956               350.4837
 Red. masses --      2.4381                 2.8225                 2.5963
 Frc consts  --      0.1410                 0.2017                 0.1879
 IR Inten    --      2.0614                 2.2843                 7.5549

                     16                     17                     18
                      A                      A                      A
 Frequencies --    421.0278               436.5458               458.0847
 Red. masses --      2.8995                 3.2431                 2.7459
 Frc consts  --      0.3028                 0.3641                 0.3395
 IR Inten    --      6.7759                10.5126                 1.1671

                     19                     20                     21
                      A                      A                      A
 Frequencies --    499.5112               529.3728               558.4975
 Red. masses --      2.7668                 1.5469                 1.6059
 Frc consts  --      0.4067                 0.2554                 0.2951
 IR Inten    --      4.2514                73.9019                29.7255

                     22                     23                     24
                      A                      A                      A
 Frequencies --    571.7479               615.2303               640.3691
 Red. masses --      3.3109                 1.7045                 2.5426
 Frc consts  --      0.6377                 0.3801                 0.6143
 IR Inten    --      1.3932                67.1428                 5.3478

                     25                     26                     27
                      A                      A                      A
 Frequencies --    696.4483               725.9189               781.6658
 Red. masses --      2.6179                 2.7993                 2.8402
 Frc consts  --      0.7481                 0.8691                 1.0224
 IR Inten    --      0.6308                47.9553                 1.9513

                     28                     29                     30
                      A                      A                      A
 Frequencies --    814.8578               835.0530               859.3391
 Red. masses --      3.6532                 1.5810                 2.9277
 Frc consts  --      1.4292                 0.6495                 1.2738
 IR Inten    --     15.9020               132.6931                19.0227

                     31                     32                     33
                      A                      A                      A
 Frequencies --    910.4342               958.2303               978.4291
 Red. masses --      2.3833                 2.3883                 2.3321
 Frc consts  --      1.1639                 1.2920                 1.3154
 IR Inten    --      9.7133                 2.3078                 0.7742

                     34                     35                     36
                      A                      A                      A
 Frequencies --    989.2772              1016.3629              1032.3455
 Red. masses --      2.4038                 2.0638                 1.8123
 Frc consts  --      1.3860                 1.2561                 1.1379
 IR Inten    --     14.7550                 7.2640                 2.0977

                     37                     38                     39
                      A                      A                      A
 Frequencies --   1053.7962              1077.4819              1084.5076
 Red. masses --      1.8683                 2.1499                 2.0460
 Frc consts  --      1.2224                 1.4706                 1.4178
 IR Inten    --     11.3063                 8.5901                38.5265

                     40                     41                     42
                      A                      A                      A
 Frequencies --   1090.8306              1108.9829              1125.7466
 Red. masses --      2.0320                 3.1093                 4.6478
 Frc consts  --      1.4246                 2.2530                 3.4704
 IR Inten    --     60.4109                29.1092                16.2965

                     43                     44                     45
                      A                      A                      A
 Frequencies --   1161.9388              1163.2985              1164.8259
 Red. masses --      1.7144                 1.3567                 1.3794
 Frc consts  --      1.3637                 1.0817                 1.1027
 IR Inten    --      1.8620                10.4602                 1.6915

                     46                     47                     48
                      A                      A                      A
 Frequencies --   1207.1839              1219.0737              1247.2634
 Red. masses --      2.1281                 1.2500                 1.5735
 Frc consts  --      1.8272                 1.0945                 1.4423
 IR Inten    --      2.3956                16.9339                21.9268

                     49                     50                     51
                      A                      A                      A
 Frequencies --   1258.0428              1283.2966              1312.6920
 Red. masses --      1.5587                 1.5842                 1.2706
 Frc consts  --      1.4535                 1.5371                 1.2899
 IR Inten    --     28.7069                20.5791                 3.8110

                     52                     53                     54
                      A                      A                      A
 Frequencies --   1321.1362              1335.1014              1339.2206
 Red. masses --      1.5801                 1.3706                 1.4584
 Frc consts  --      1.6249                 1.4394                 1.5411
 IR Inten    --     15.7303                17.1544                 2.2338

                     55                     56                     57
                      A                      A                      A
 Frequencies --   1352.0230              1372.0196              1390.0229
 Red. masses --      1.4048                 1.4041                 1.2959
 Frc consts  --      1.5130                 1.5573                 1.4752
 IR Inten    --     24.0853                 8.0112                 8.9031

                     58                     59                     60
                      A                      A                      A
 Frequencies --   1411.0881              1416.0181              1420.5302
 Red. masses --      1.3327                 1.3290                 1.6966
 Frc consts  --      1.5635                 1.5700                 2.0171
 IR Inten    --      7.0155                 8.4175                46.1255

                     61                     62                     63
                      A                      A                      A
 Frequencies --   1460.8355              1482.1372              1485.6993
 Red. masses --      1.2728                 1.5292                 1.1833
 Frc consts  --      1.6004                 1.9792                 1.5389
 IR Inten    --     94.1712                17.3500                 5.9252

                     64                     65                     66
                      A                      A                      A
 Frequencies --   1490.2194              1504.8664              1512.9012
 Red. masses --      1.1500                 1.3239                 1.1224
 Frc consts  --      1.5047                 1.7665                 1.5136
 IR Inten    --      6.0548                20.5293                 7.4837

                     67                     68                     69
                      A                      A                      A
 Frequencies --   1519.6483              1527.3181              1528.3951
 Red. masses --      1.0807                 1.0705                 1.0708
 Frc consts  --      1.4705                 1.4713                 1.4737
 IR Inten    --      2.6386                 2.5075                29.5298

                     70                     71                     72
                      A                      A                      A
 Frequencies --   1532.0351              1534.7620              1539.4558
 Red. masses --      1.0995                 1.0600                 1.0948
 Frc consts  --      1.5206                 1.4711                 1.5287
 IR Inten    --      2.7429                 9.9437                 8.8386

                     73                     74                     75
                      A                      A                      A
 Frequencies --   1550.7640              1778.4348              2948.1424
 Red. masses --      1.0862                 7.4953                 1.0829
 Frc consts  --      1.5390                13.9674                 5.5456
 IR Inten    --     42.3873               286.2905                48.8212

                     76                     77                     78
                      A                      A                      A
 Frequencies --   2975.0749              2995.4068              3032.3152
 Red. masses --      1.0589                 1.0740                 1.0866
 Frc consts  --      5.5218                 5.6777                 5.8867
 IR Inten    --     63.4818                91.3837                66.3662

                     79                     80                     81
                      A                      A                      A
 Frequencies --   3051.2316              3065.2162              3070.2656
 Red. masses --      1.0393                 1.0612                 1.0613
 Frc consts  --      5.7011                 5.8746                 5.8946
 IR Inten    --     31.8251                31.6301                25.8883

                     82                     83                     84
                      A                      A                      A
 Frequencies --   3083.0185              3099.5497              3116.9558
 Red. masses --      1.0612                 1.0749                 1.1026
 Frc consts  --      5.9430                 6.0843                 6.3115
 IR Inten    --     12.2243                32.4287                51.2602

                     85                     86                     87
                      A                      A                      A
 Frequencies --   3117.1513              3123.9213              3129.1049
 Red. masses --      1.1054                 1.1052                 1.1008
 Frc consts  --      6.3283                 6.3548                 6.3506
 IR Inten    --      5.2382                21.1574                22.7290

                     88                     89                     90
                      A                      A                      A
 Frequencies --   3143.0185              3149.8017              3169.7891
 Red. masses --      1.1031                 1.1024                 1.0894
 Frc consts  --      6.4204                 6.4442                 6.4493
 IR Inten    --     19.4235                17.8782                10.8345

                     91                     92                     93
                      A                      A                      A
 Frequencies --   3476.6754              3543.7846              3594.3825
 Red. masses --      1.0747                 1.0644                 1.0760
 Frc consts  --      7.6535                 7.8753                 8.1904
 IR Inten    --      2.5719               182.3642                25.7732

 - Thermochemistry -
 -------------------
 Temperature   298.150 Kelvin.  Pressure   1.00000 Atm.
 Atom     1 has atomic number  6 and mass  12.00000

 Molecular mass:   201.14773 amu.
 Principal axes and moments of inertia in atomic units:
                           1         2         3
     Eigenvalues --  1852.362573697.712933776.27215
           X            0.99971  -0.02400  -0.00343
           Y            0.02326   0.98947  -0.14287
           Z            0.00682   0.14275   0.98974
 This molecule is an asymmetric top.
 Rotational symmetry number  1.
 Warning -- assumption of classical behavior for rotation
           may cause significant error
 Rotational temperatures (Kelvin)      0.04676     0.02342     0.02294
 Rotational constants (GHZ):           0.97429     0.48807     0.47792
 Zero-point vibrational energy     773224.5 (Joules/Mol)
                                  184.80508 (Kcal/Mol)
 Warning -- explicit consideration of  23 degrees of freedom as
           vibrations may cause significant error
 Vibrational temperatures:     55.58    67.94    81.21    93.80   135.63
          (Kelvin)            140.42   228.45   240.46   281.99   317.03
                              357.28   422.89   450.72   501.12   504.27
                              605.77   628.09   659.08   718.69   761.65
                              803.55   822.62   885.18   921.35  1002.03
                             1044.44  1124.64  1172.40  1201.46  1236.40
                             1309.91  1378.68  1407.74  1423.35  1462.32
                             1485.31  1516.18  1550.26  1560.36  1569.46
                             1595.58  1619.70  1671.77  1673.73  1675.92
                             1736.87  1753.98  1794.53  1810.04  1846.38
                             1888.67  1900.82  1920.91  1926.84  1945.26
                             1974.03  1999.93  2030.24  2037.33  2043.83
                             2101.82  2132.46  2137.59  2144.09  2165.17
                             2176.73  2186.43  2197.47  2199.02  2204.26
                             2208.18  2214.93  2231.20  2558.77  4241.72
                             4280.47  4309.72  4362.83  4390.04  4410.16
                             4417.43  4435.78  4459.56  4484.60  4484.89
                             4494.63  4502.08  4522.10  4531.86  4560.62
                             5002.16  5098.72  5171.51

 Zero-point correction=                           0.294506 (Hartree/Particle)
 Thermal correction to Energy=                    0.309613
 Thermal correction to Enthalpy=                  0.310557
 Thermal correction to Gibbs Free Energy=         0.251509
 Sum of electronic and zero-point Energies=           -668.836862
 Sum of electronic and thermal Energies=              -668.821755
 Sum of electronic and thermal Enthalpies=            -668.820811
 Sum of electronic and thermal Free Energies=         -668.879859

                     E (Thermal)             CV                S
                      KCal/Mol        Cal/Mol-Kelvin    Cal/Mol-Kelvin
 Total                  194.285             56.168            124.278
 Electronic               0.000              0.000              0.000
 Translational            0.889              2.981             41.801
 Rotational               0.889              2.981             31.626
 Vibrational            192.508             50.206             50.851
 Vibration     1          0.594              1.981              5.328
 Vibration     2          0.595              1.979              4.931
 Vibration     3          0.596              1.975              4.578
 Vibration     4          0.597              1.971              4.293
 Vibration     5          0.603              1.953              3.570
 Vibration     6          0.603              1.951              3.502
 Vibration     7          0.621              1.893              2.564
 Vibration     8          0.624              1.883              2.468
 Vibration     9          0.636              1.845              2.170
 Vibration    10          0.647              1.810              1.956
 Vibration    11          0.662              1.766              1.742
 Vibration    12          0.689              1.685              1.451
 Vibration    13          0.701              1.648              1.345
 Vibration    14          0.726              1.579              1.174
 Vibration    15          0.727              1.574              1.164
 Vibration    16          0.784              1.425              0.888
 Vibration    17          0.797              1.391              0.838
 Vibration    18          0.816              1.343              0.772
 Vibration    19          0.855              1.251              0.659
 Vibration    20          0.884              1.185              0.589
 Vibration    21          0.914              1.121              0.527
 Vibration    22          0.928              1.092              0.501
 Vibration    23          0.975              1.000              0.424

 Optimization completed.
    -- Stationary point found.
 Normal termination of Gaussian 16 at Thu Dec 10 09:49:39 2020.

 ----------------------------------------------------------------------
 # B3LYP/6-311++G(d,p) empiricaldispersion=gd3bj scf=xqc pop=npa geom=c
 heck
 ----------------------------------------------------------------------

 ---------------------------------------
 CID_106915769_JID_4289_Energie_neutraal
 ---------------------------------------
 Structure from the checkpoint file:  "JID_4289.chk"
 Charge =  0 Multiplicity = 1

 SCF Done:  E(RB3LYP) =  -669.339264654     A.U. after   15 cycles
 Normal termination of Gaussian 16 at Thu Dec 10 09:55:19 2020.

 ----------------------------------------------------------------------
 # B3LYP/6-311++G(d,p) empiricaldispersion=gd3bj scf=xqc pop=npa geom=c
 heck
 ----------------------------------------------------------------------

 -------------------------------------
 CID_106915769_JID_4289_Energie_kation
 -------------------------------------
 Structure from the checkpoint file:  "JID_4289.chk"
 Charge =  1 Multiplicity = 2

 SCF Done:  E(UB3LYP) =  -669.037600491     A.U. after   30 cycles
 Normal termination of Gaussian 16 at Thu Dec 10 10:11:51 2020.
 Gaussian 16:  ES64L-G16RevA.03 25-Dec-2016

 ----------------------------------------------------------------------
 # B3LYP/6-311++G(d,p) empiricaldispersion=gd3bj scf=xqc pop=npa geom=c
 heck
 ----------------------------------------------------------------------

 ------------------------------------
 CID_106915769_JID_4289_Energie_anion
 ------------------------------------
 Structure from the checkpoint file:  "JID_4289.chk"
 Charge = -1 Multiplicity = 2

                         Standard orientation:
 ---------------------------------------------------------------------
 Center     Atomic      Atomic             Coordinates (Angstroms)
 Number     Number       Type             X           Y           Z
 ---------------------------------------------------------------------
      1          6           0       -2.717010    1.548754   -0.852043
      2          7           0       -2.397757    0.207954   -1.319272
      3          6           0       -2.059245   -0.891254   -0.580382
      4          8           0       -1.633433   -1.908757   -1.119515
      5          6           0       -2.191850   -0.825372    0.936924
      6          6           0       -0.779975   -0.922674    1.534182
      7          7           0        0.023973    0.227048    1.108281
      8          6           0       -0.159479    1.384857    1.978488
      9          6           0        1.435201   -0.005962    0.808053
     10          6           0        1.766015   -1.323070    0.071721
     11          7           0        3.063533   -1.088635   -0.568213
     12          6           0        3.003719    0.305440   -1.050496
     13          6           0        1.939282    1.069189   -0.212083
     14          8           0        0.866901    1.514097   -1.028981
     15          1           0       -3.503424    1.524645   -0.092680
     16          1           0       -3.094572    2.124614   -1.700028
     17          1           0       -1.843974    2.073289   -0.445036
     18          1           0       -2.176856    0.096519   -2.301514
     19          1           0       -2.702498    0.075305    1.286762
     20          1           0       -2.782546   -1.690992    1.254807
     21          1           0       -0.828203   -1.001264    2.632539
     22          1           0       -0.333101   -1.841191    1.156147
     23          1           0        0.316150    1.245491    2.965514
     24          1           0        0.266987    2.273564    1.505954
     25          1           0       -1.226252    1.567678    2.137558
     26          1           0        2.056902    0.047415    1.720452
     27          1           0        1.820866   -2.195813    0.728110
     28          1           0        1.007305   -1.522096   -0.695114
     29          1           0        3.785633   -1.154707    0.147631
     30          1           0        2.664958    0.324556   -2.091838
     31          1           0        3.997136    0.762449   -1.008036
     32          1           0        2.374846    1.936619    0.301195
     33          1           0        0.084707    1.047174   -0.666216
 ---------------------------------------------------------------------

 SCF Done:  E(UB3LYP) =  -669.329442967     A.U. after   32 cycles

 The electronic state is 2-A.
 Alpha  occ. eigenvalues --  -19.00850 -18.99190 -14.24640 -14.22179 -14.20197
 Alpha  occ. eigenvalues --  -10.17830 -10.11640 -10.11230 -10.10656 -10.10404
 Alpha  occ. eigenvalues --  -10.09270 -10.09037 -10.08952 -10.08366  -0.94382
 Alpha  occ. eigenvalues --   -0.92021  -0.83842  -0.82882  -0.81496  -0.68469
 Alpha  occ. eigenvalues --   -0.64137  -0.62415  -0.61655  -0.58514  -0.53999
 Alpha  occ. eigenvalues --   -0.50385  -0.48083  -0.46017  -0.42713  -0.41350
 Alpha  occ. eigenvalues --   -0.40245  -0.40062  -0.38954  -0.37339  -0.35916
 Alpha  occ. eigenvalues --   -0.34378  -0.33640  -0.32602  -0.32039  -0.31309
 Alpha  occ. eigenvalues --   -0.30815  -0.30405  -0.29068  -0.28211  -0.27983
 Alpha  occ. eigenvalues --   -0.27002  -0.26006  -0.25451  -0.24536  -0.21526
 Alpha  occ. eigenvalues --   -0.17603  -0.16655  -0.16173  -0.13939  -0.13516
 Alpha  occ. eigenvalues --    0.04084
 Alpha virt. eigenvalues --    0.05841   0.06986   0.07798   0.08417   0.08855
 Alpha virt. eigenvalues --    0.09767   0.09956   0.10177   0.10724   0.11535
 Alpha virt. eigenvalues --    0.11962   0.12326   0.13123   0.13440   0.13501

  Beta  occ. eigenvalues --  -19.00849 -18.99185 -14.24634 -14.22164 -14.20183
  Beta  occ. eigenvalues --  -10.17823 -10.11630 -10.11185 -10.10642 -10.10387
  Beta  occ. eigenvalues --  -10.09264 -10.08996 -10.08944 -10.08346  -0.94369
  Beta  occ. eigenvalues --   -0.92014  -0.83813  -0.82864  -0.81465  -0.68436
  Beta  occ. eigenvalues --   -0.64093  -0.62387  -0.61590  -0.58458  -0.53947
  Beta  occ. eigenvalues --   -0.50348  -0.48056  -0.45968  -0.42670  -0.41309
  Beta  occ. eigenvalues --   -0.40194  -0.40024  -0.38923  -0.37289  -0.35882
  Beta  occ. eigenvalues --   -0.34340  -0.33595  -0.32580  -0.32005  -0.31278
  Beta  occ. eigenvalues --   -0.30778  -0.30374  -0.29030  -0.28179  -0.27951
  Beta  occ. eigenvalues --   -0.26974  -0.25977  -0.25418  -0.24510  -0.21506
  Beta  occ. eigenvalues --   -0.17588  -0.16631  -0.16160  -0.13865  -0.13486
  Beta virt. eigenvalues --    0.06511   0.06922   0.07682   0.08380   0.09079
  Beta virt. eigenvalues --    0.09377   0.09958   0.10332   0.10480   0.11142
  Beta virt. eigenvalues --    0.11988   0.12355   0.12507   0.13487   0.13595

 Mulliken charges and spin densities:
               1          2
     1  C    0.908319  -1.304527
     2  N   -0.298689   0.123766
     3  C   -0.281866   0.202419
     4  O   -0.310752   0.003754
     5  C    0.322600  -0.491779
     6  C   -0.354067   0.031252
     7  N    0.000603   0.077738
     8  C    0.824609  -1.207201
     9  C   -0.654309   0.298523
    10  C    0.302312  -0.922199
    11  N   -0.109057   0.048196
    12  C   -0.069453  -0.453157
    13  C    0.216215  -0.270572
    14  O   -0.245193   0.001677
    15  H   -0.599970   0.771131
    16  H   -0.256409   0.406518
    17  H   -0.015285   0.212936
    18  H    0.235312   0.053156
    19  H    0.183633  -0.074965
    20  H   -0.091682   0.303843
    21  H   -0.414074   0.577352
    22  H    0.331669  -0.144007
    23  H   -0.308434   0.467025
    24  H   -0.033332   0.208529
    25  H   -0.464592   0.600942
    26  H   -0.383744   0.562624
    27  H   -0.010588   0.202323
    28  H    0.192479   0.053571
    29  H    0.006240   0.233203
    30  H    0.143174   0.016783
    31  H   -0.051951   0.214330
    32  H   -0.107969   0.272256
    33  H    0.394252  -0.075442
 Sum of Mulliken charges =  -1.00000   1.00000

 Dipole moment (field-independent basis, Debye):
    X=              0.6051    Y=             -1.7233    Z=             -2.7458  Tot=              3.2978
 Quadrupole moment (field-independent basis, Debye-Ang):
   XX=           -149.1906   YY=           -133.2173   ZZ=           -131.7160
   XY=              8.2075   XZ=              1.1672   YZ=             -7.3231

 Summary of Natural Population Analysis:

                                       Natural Population
                Natural  -----------------------------------------------
    Atom  No    Charge         Core      Valence    Rydberg      Total
 -----------------------------------------------------------------------
      C    1   -0.18168      0.99964     2.17355    0.00849     3.18168
      N    2   -0.31800      0.99967     2.80817    0.01016     3.81800
      C    3    0.34630      0.99966     1.62941    0.02463     2.65370
      O    4   -0.33140      0.99988     3.32606    0.00547     4.33140
      C    5   -0.23500      0.99958     2.22682    0.00860     3.23500
      C    6   -0.07659      0.99959     2.06586    0.01113     3.07659
      N    7   -0.30384      0.99970     2.78738    0.01676     3.80384
      C    8   -0.17781      0.99963     2.16899    0.00920     3.17781
      C    9   -0.01908      0.99956     2.00451    0.01501     3.01908
      C   10   -0.10245      0.99961     2.09083    0.01202     3.10245
      N   11   -0.33299      0.99976     2.82126    0.01196     3.83299
      C   12   -0.09966      0.99962     2.08887    0.01117     3.09966
      C   13    0.05289      0.99955     1.93280    0.01475     2.94711
      O   14   -0.38744      0.99990     3.38115    0.00639     4.38744
      H   15    0.09991      0.00000     0.39827    0.00182     0.40009
      H   16    0.10038      0.00000     0.39844    0.00118     0.39962
      H   17    0.09729      0.00000     0.40101    0.00170     0.40271
      H   18    0.19354      0.00000     0.30450    0.00196     0.30646
      H   19    0.10427      0.00000     0.39383    0.00189     0.39573
      H   20    0.11170      0.00000     0.38741    0.00089     0.38830
      H   21    0.09042      0.00000     0.40827    0.00131     0.40958
      H   22    0.10513      0.00000     0.39303    0.00184     0.39487
      H   23    0.08838      0.00000     0.40979    0.00183     0.41162
      H   24    0.10095      0.00000     0.39745    0.00160     0.39905
      H   25    0.09886      0.00000     0.39924    0.00190     0.40114
      H   26    0.09106      0.00000     0.40622    0.00272     0.40894
      H   27    0.09775      0.00000     0.40129    0.00097     0.40225
      H   28    0.10391      0.00000     0.39441    0.00168     0.39609
      H   29    0.17067      0.00000     0.32661    0.00272     0.32933
      H   30    0.09711      0.00000     0.40151    0.00138     0.40289
      H   31    0.09415      0.00000     0.40486    0.00099     0.40585
      H   32    0.08304      0.00000     0.41559    0.00137     0.41696
      H   33    0.23822      0.00000     0.25696    0.00482     0.26178
 =======================================================================
   * Total *   -0.00000     13.99534    40.80433    0.20033    55.00000

 Normal termination of Gaussian 16 at Thu Dec 10 10:29:09 2020.
