 Gaussian 16, Revision A.03,

 -----------------------------------------------------------
 # opt freq B3LYP/6-31G(d) empiricaldispersion=gd3bj scf=xqc
 -----------------------------------------------------------

 --------------------------------
 CID_111432121_JID_10138_neutraal
 --------------------------------
 Symbolic Z-matrix:
 Charge =  0 Multiplicity = 1

 SCF Done:  E(RB3LYP) =  -920.049000202     A.U. after   15 cycles
 SCF Done:  E(RB3LYP) =  -920.054546825     A.U. after   12 cycles
 SCF Done:  E(RB3LYP) =  -920.055342038     A.U. after   13 cycles
 SCF Done:  E(RB3LYP) =  -920.055647278     A.U. after   13 cycles
 SCF Done:  E(RB3LYP) =  -920.057472999     A.U. after   12 cycles
 SCF Done:  E(RB3LYP) =  -920.058504648     A.U. after   12 cycles
 SCF Done:  E(RB3LYP) =  -920.058933043     A.U. after   13 cycles
 SCF Done:  E(RB3LYP) =  -920.059378373     A.U. after   12 cycles
 SCF Done:  E(RB3LYP) =  -920.059532602     A.U. after   12 cycles
 SCF Done:  E(RB3LYP) =  -920.059711537     A.U. after   11 cycles
 SCF Done:  E(RB3LYP) =  -920.082172553     A.U. after    8 cycles
 SCF Done:  E(RB3LYP) =  -920.082174378     A.U. after   10 cycles
 SCF Done:  E(RB3LYP) =  -920.082174631     A.U. after    8 cycles
 SCF Done:  E(RB3LYP) =  -920.082174771     A.U. after    8 cycles
 SCF Done:  E(RB3LYP) =  -920.082174798     A.U. after    7 cycles
 Optimization completed.
    -- Stationary point found.
 Normal termination of Gaussian 16 at Sun Dec 13 17:56:34 2020.

 --------------------------------------------------------------------
 #N Geom=AllCheck Guess=TCheck SCRF=Check GenChk RB3LYP/6-31G(d) Freq
 --------------------------------------------------------------------

 Structure from the checkpoint file:  "JID_10138.chk"
 --------------------------------
 CID_111432121_JID_10138_neutraal
 --------------------------------
 Charge =  0 Multiplicity = 1

 SCF Done:  E(RB3LYP) =  -920.082174798     A.U. after    1 cycles

  Exact polarizability: 171.782  14.655 169.265  10.622  -0.057 164.142
 Approx polarizability: 217.297  20.516 267.279  26.308   0.858 281.203

                      1                      2                      3
                      A                      A                      A
 Frequencies --     19.3482                31.1334                42.9330
 Red. masses --      5.1251                 5.0609                 3.8083
 Frc consts  --      0.0011                 0.0029                 0.0041
 IR Inten    --      0.3290                 0.2321                 0.3399

                      4                      5                      6
                      A                      A                      A
 Frequencies --     50.4146                61.9937                79.8842
 Red. masses --      4.7198                 4.0052                 4.0031
 Frc consts  --      0.0071                 0.0091                 0.0151
 IR Inten    --      1.9546                 0.0957                 0.5172

                      7                      8                      9
                      A                      A                      A
 Frequencies --     94.2744               126.3196               162.6617
 Red. masses --      4.7102                 6.0857                 4.3819
 Frc consts  --      0.0247                 0.0572                 0.0683
 IR Inten    --      0.7176                 2.7976                 1.9854

                     10                     11                     12
                      A                      A                      A
 Frequencies --    201.7803               233.9441               235.1666
 Red. masses --      4.1037                 2.9414                 2.2676
 Frc consts  --      0.0984                 0.0948                 0.0739
 IR Inten    --      1.3582                 1.6345                 5.0453

                     13                     14                     15
                      A                      A                      A
 Frequencies --    260.9558               263.5492               294.9960
 Red. masses --      3.6352                 1.9193                 1.5309
 Frc consts  --      0.1459                 0.0785                 0.0785
 IR Inten    --     10.5398                 2.0299                84.8194

                     16                     17                     18
                      A                      A                      A
 Frequencies --    320.7839               347.2566               351.6909
 Red. masses --      2.5498                 2.3050                 2.9043
 Frc consts  --      0.1546                 0.1638                 0.2116
 IR Inten    --     17.3408                21.5934                37.8417

                     19                     20                     21
                      A                      A                      A
 Frequencies --    378.3214               395.2762               418.9790
 Red. masses --      3.1140                 6.1332                 3.0509
 Frc consts  --      0.2626                 0.5646                 0.3155
 IR Inten    --      1.5575                 9.4217                 0.4084

                     22                     23                     24
                      A                      A                      A
 Frequencies --    436.9099               442.1778               453.5509
 Red. masses --      2.0236                 4.0357                 5.2775
 Frc consts  --      0.2276                 0.4649                 0.6396
 IR Inten    --      2.7622                 0.3485                 3.5964

                     25                     26                     27
                      A                      A                      A
 Frequencies --    498.0395               500.0952               570.4893
 Red. masses --      2.7760                 3.6460                 4.3088
 Frc consts  --      0.4057                 0.5373                 0.8262
 IR Inten    --      0.9661                 5.7631                12.9630

                     28                     29                     30
                      A                      A                      A
 Frequencies --    612.0229               633.3677               636.1273
 Red. masses --      2.3674                 3.1263                 6.3716
 Frc consts  --      0.5225                 0.7389                 1.5191
 IR Inten    --      3.2294                 2.9526                 0.1334

                     31                     32                     33
                      A                      A                      A
 Frequencies --    671.9556               709.4621               719.9914
 Red. masses --      4.3232                 3.6345                 2.5603
 Frc consts  --      1.1501                 1.0779                 0.7820
 IR Inten    --     42.6649                10.5972                 9.7865

                     34                     35                     36
                      A                      A                      A
 Frequencies --    744.1195               758.3339               807.9930
 Red. masses --      1.4199                 1.6398                 2.5747
 Frc consts  --      0.4632                 0.5556                 0.9904
 IR Inten    --     94.7354                15.2678                32.3176

                     37                     38                     39
                      A                      A                      A
 Frequencies --    831.7882               864.2131               872.7280
 Red. masses --      1.8261                 3.1868                 1.2597
 Frc consts  --      0.7444                 1.4023                 0.5653
 IR Inten    --     36.8191                 3.7880                 0.6171

                     40                     41                     42
                      A                      A                      A
 Frequencies --    875.1768               878.3601               882.3379
 Red. masses --      2.0379                 2.1574                 2.0090
 Frc consts  --      0.9197                 0.9807                 0.9215
 IR Inten    --      2.6190                 2.6794                10.8385

                     43                     44                     45
                      A                      A                      A
 Frequencies --    907.6682               934.8995               947.4832
 Red. masses --      2.3008                 2.2333                 1.5145
 Frc consts  --      1.1168                 1.1501                 0.8011
 IR Inten    --     60.9928                 7.5289                 3.0710

                     46                     47                     48
                      A                      A                      A
 Frequencies --    984.7046               994.8563              1002.9782
 Red. masses --      1.3348                 1.7576                 1.3393
 Frc consts  --      0.7626                 1.0249                 0.7938
 IR Inten    --      0.2839                28.6549                 9.0635

                     49                     50                     51
                      A                      A                      A
 Frequencies --   1015.0813              1022.5079              1051.4540
 Red. masses --      2.4305                 6.2549                 2.0723
 Frc consts  --      1.4755                 3.8530                 1.3498
 IR Inten    --     29.2650                 0.1472                 2.6035

                     52                     53                     54
                      A                      A                      A
 Frequencies --   1061.6755              1071.6796              1091.2588
 Red. masses --      2.2851                 2.0379                 3.0016
 Frc consts  --      1.5175                 1.3790                 2.1060
 IR Inten    --      5.4785                 3.2177                41.2739

                     55                     56                     57
                      A                      A                      A
 Frequencies --   1099.6657              1111.5651              1128.5408
 Red. masses --      2.0858                 1.7842                 2.0669
 Frc consts  --      1.4861                 1.2989                 1.5510
 IR Inten    --      1.7054                 2.9507                 8.3128

                     58                     59                     60
                      A                      A                      A
 Frequencies --   1148.1049              1155.2175              1161.8763
 Red. masses --      2.8791                 5.2919                 2.2524
 Frc consts  --      2.2360                 4.1609                 1.7915
 IR Inten    --      1.1924                97.1348                 5.0518

                     61                     62                     63
                      A                      A                      A
 Frequencies --   1180.5701              1193.8033              1196.0614
 Red. masses --      3.0465                 1.1256                 2.3206
 Frc consts  --      2.5017                 0.9451                 1.9560
 IR Inten    --     50.4339                 4.7924                13.1821

                     64                     65                     66
                      A                      A                      A
 Frequencies --   1199.8422              1219.1247              1245.1391
 Red. masses --      1.8179                 1.2384                 1.3174
 Frc consts  --      1.5419                 1.0844                 1.2034
 IR Inten    --     47.0525                 7.7913                16.5177

                     67                     68                     69
                      A                      A                      A
 Frequencies --   1246.7989              1265.8373              1273.5263
 Red. masses --      1.0769                 1.3674                 1.2847
 Frc consts  --      0.9863                 1.2909                 1.2277
 IR Inten    --      3.9210                 9.3726                17.8782

                     70                     71                     72
                      A                      A                      A
 Frequencies --   1311.2943              1315.0579              1323.2318
 Red. masses --      1.2655                 1.3891                 1.3129
 Frc consts  --      1.2821                 1.4154                 1.3544
 IR Inten    --      8.2123                41.0049                 5.2099

                     73                     74                     75
                      A                      A                      A
 Frequencies --   1342.2596              1352.3013              1364.3381
 Red. masses --      1.3639                 1.2134                 2.0659
 Frc consts  --      1.4478                 1.3073                 2.2657
 IR Inten    --     46.9558                 1.1502                16.7620

                     76                     77                     78
                      A                      A                      A
 Frequencies --   1370.7260              1377.4011              1382.3493
 Red. masses --      1.8907                 1.4261                 1.4751
 Frc consts  --      2.0930                 1.5942                 1.6607
 IR Inten    --      1.2140                17.4239                23.2529

                     79                     80                     81
                      A                      A                      A
 Frequencies --   1398.1355              1409.4514              1415.0513
 Red. masses --      1.3841                 1.3702                 1.4395
 Frc consts  --      1.5941                 1.6037                 1.6983
 IR Inten    --      2.5547                28.3827                12.0660

                     82                     83                     84
                      A                      A                      A
 Frequencies --   1424.9662              1442.1370              1445.5065
 Red. masses --      1.4359                 1.6247                 1.4027
 Frc consts  --      1.7178                 1.9909                 1.7268
 IR Inten    --      4.9247                55.3036                 1.7629

                     85                     86                     87
                      A                      A                      A
 Frequencies --   1454.1961              1499.7647              1504.0927
 Red. masses --      1.4685                 2.1669                 1.4921
 Frc consts  --      1.8296                 2.8716                 1.9888
 IR Inten    --      4.7588                21.0351                51.2391

                     88                     89                     90
                      A                      A                      A
 Frequencies --   1510.5091              1513.8762              1519.4985
 Red. masses --      1.1053                 1.1166                 1.0899
 Frc consts  --      1.4858                 1.5077                 1.4827
 IR Inten    --      3.6898                 4.5109                13.2857

                     91                     92                     93
                      A                      A                      A
 Frequencies --   1523.5288              1529.0038              1537.7009
 Red. masses --      1.1038                 1.1032                 1.1113
 Frc consts  --      1.5095                 1.5195                 1.5482
 IR Inten    --      2.0253                 3.3790                21.2229

                     94                     95                     96
                      A                      A                      A
 Frequencies --   1541.9774              1547.6110              1645.8563
 Red. masses --      1.1310                 2.1849                 5.7366
 Frc consts  --      1.5844                 3.0832                 9.1557
 IR Inten    --      4.6660                14.1548                 1.0762

                     97                     98                     99
                      A                      A                      A
 Frequencies --   1667.7205              1761.5951              2943.9920
 Red. masses --      5.4376                 7.9827                 1.0727
 Frc consts  --      8.9106                14.5953                 5.4779
 IR Inten    --      6.2032               287.0429                29.7282

                    100                    101                    102
                      A                      A                      A
 Frequencies --   2948.8903              2959.0535              2991.1652
 Red. masses --      1.0725                 1.0727                 1.0704
 Frc consts  --      5.4947                 5.5339                 5.6424
 IR Inten    --     17.6885               115.8284                19.3910

                    103                    104                    105
                      A                      A                      A
 Frequencies --   2998.3969              3032.8316              3055.7653
 Red. masses --      1.0706                 1.0841                 1.0708
 Frc consts  --      5.6708                 5.8750                 5.8910
 IR Inten    --    101.0509                27.0057                18.4015

                    106                    107                    108
                      A                      A                      A
 Frequencies --   3077.4273              3082.9465              3092.6047
 Red. masses --      1.0712                 1.0910                 1.0868
 Frc consts  --      5.9774                 6.1097                 6.1242
 IR Inten    --     37.5857                10.7600                28.2567

                    109                    110                    111
                      A                      A                      A
 Frequencies --   3094.4729              3115.6527              3119.4412
 Red. masses --      1.0879                 1.0933                 1.0945
 Frc consts  --      6.1379                 6.2532                 6.2749
 IR Inten    --     36.4511                45.0868                37.3226

                    112                    113                    114
                      A                      A                      A
 Frequencies --   3122.0574              3172.6310              3183.4175
 Red. masses --      1.0943                 1.0949                 1.0852
 Frc consts  --      6.2846                 6.4932                 6.4795
 IR Inten    --     20.7330                 4.4645                 0.2417

                    115                    116                    117
                      A                      A                      A
 Frequencies --   3192.6631              3203.8467              3211.7808
 Red. masses --      1.0890                 1.0926                 1.0968
 Frc consts  --      6.5402                 6.6077                 6.6658
 IR Inten    --     14.7115                18.4816                17.4729

                    118                    119                    120
                      A                      A                      A
 Frequencies --   3234.7441              3514.5100              3759.6377
 Red. masses --      1.0919                 1.0743                 1.0665
 Frc consts  --      6.7314                 7.8183                 8.8816
 IR Inten    --      3.1831               120.3517                32.8110

 - Thermochemistry -
 -------------------
 Temperature   298.150 Kelvin.  Pressure   1.00000 Atm.
 Atom     1 has atomic number  6 and mass  12.00000

 Molecular mass:   278.16304 amu.
 Principal axes and moments of inertia in atomic units:
                           1         2         3
     Eigenvalues --  2916.087799348.26711**********
           X            0.99999   0.00325   0.00097
           Y           -0.00324   0.99983  -0.01814
           Z           -0.00103   0.01814   0.99983
 This molecule is an asymmetric top.
 Rotational symmetry number  1.
 Warning -- assumption of classical behavior for rotation
           may cause significant error
 Rotational temperatures (Kelvin)      0.02970     0.00927     0.00861
 Rotational constants (GHZ):           0.61889     0.19306     0.17931
 Zero-point vibrational energy     958339.7 (Joules/Mol)
                                  229.04869 (Kcal/Mol)
 Warning -- explicit consideration of  28 degrees of freedom as
           vibrations may cause significant error
 Vibrational temperatures:     27.84    44.79    61.77    72.54    89.20
          (Kelvin)            114.94   135.64   181.75   234.03   290.32
                              336.59   338.35   375.46   379.19   424.43
                              461.54   499.62   506.00   544.32   568.71
                              602.82   628.62   636.20   652.56   716.57
                              719.53   820.81   880.56   911.27   915.25
                              966.79  1020.76  1035.91  1070.62  1091.07
                             1162.52  1196.76  1243.41  1255.66  1259.18
                             1263.76  1269.49  1305.93  1345.11  1363.22
                             1416.77  1431.38  1443.06  1460.48  1471.16
                             1512.81  1527.51  1541.91  1570.08  1582.17
                             1599.29  1623.72  1651.87  1662.10  1671.68
                             1698.58  1717.62  1720.87  1726.31  1754.05
                             1791.48  1793.87  1821.26  1832.32  1886.66
                             1892.07  1903.84  1931.21  1945.66  1962.98
                             1972.17  1981.77  1988.89  2011.61  2027.89
                             2035.94  2050.21  2074.91  2079.76  2092.26
                             2157.83  2164.05  2173.29  2178.13  2186.22
                             2192.02  2199.90  2212.41  2218.56  2226.67
                             2368.02  2399.48  2534.54  4235.75  4242.80
                             4257.42  4303.62  4314.02  4363.57  4396.56
                             4427.73  4435.67  4449.57  4452.26  4482.73
                             4488.18  4491.94  4564.71  4580.23  4593.53
                             4609.62  4621.04  4654.08  5056.60  5409.28

 Zero-point correction=                           0.365012 (Hartree/Particle)
 Thermal correction to Energy=                    0.383665
 Thermal correction to Enthalpy=                  0.384609
 Thermal correction to Gibbs Free Energy=         0.316247
 Sum of electronic and zero-point Energies=           -919.717162
 Sum of electronic and thermal Energies=              -919.698510
 Sum of electronic and thermal Enthalpies=            -919.697566
 Sum of electronic and thermal Free Energies=         -919.765927

                     E (Thermal)             CV                S
                      KCal/Mol        Cal/Mol-Kelvin    Cal/Mol-Kelvin
 Total                  240.753             72.231            143.879
 Electronic               0.000              0.000              0.000
 Translational            0.889              2.981             42.767
 Rotational               0.889              2.981             33.972
 Vibrational            238.976             66.269             67.139
 Vibration     1          0.593              1.986              6.700
 Vibration     2          0.594              1.983              5.756
 Vibration     3          0.595              1.980              5.119
 Vibration     4          0.595              1.977              4.801
 Vibration     5          0.597              1.972              4.393
 Vibration     6          0.600              1.963              3.894
 Vibration     7          0.603              1.953              3.569
 Vibration     8          0.611              1.927              3.001
 Vibration     9          0.623              1.888              2.519
 Vibration    10          0.639              1.837              2.117
 Vibration    11          0.654              1.789              1.848
 Vibration    12          0.655              1.787              1.839
 Vibration    13          0.669              1.744              1.655
 Vibration    14          0.670              1.740              1.638
 Vibration    15          0.689              1.683              1.445
 Vibration    16          0.706              1.634              1.306
 Vibration    17          0.725              1.581              1.179
 Vibration    18          0.728              1.572              1.159
 Vibration    19          0.749              1.516              1.046
 Vibration    20          0.762              1.480              0.980
 Vibration    21          0.782              1.429              0.895
 Vibration    22          0.797              1.390              0.836
 Vibration    23          0.802              1.378              0.820
 Vibration    24          0.812              1.353              0.785
 Vibration    25          0.854              1.254              0.663
 Vibration    26          0.856              1.250              0.658
 Vibration    27          0.927              1.095              0.503
 Vibration    28          0.971              1.006              0.429

 Optimization completed.
    -- Stationary point found.
 Normal termination of Gaussian 16 at Sun Dec 13 18:24:00 2020.

 ----------------------------------------------------------------------
 # B3LYP/6-311++G(d,p) empiricaldispersion=gd3bj scf=xqc pop=npa geom=c
 heck
 ----------------------------------------------------------------------

 ----------------------------------------
 CID_111432121_JID_10138_Energie_neutraal
 ----------------------------------------
 Structure from the checkpoint file:  "JID_10138.chk"
 Charge =  0 Multiplicity = 1

 SCF Done:  E(RB3LYP) =  -920.349862122     A.U. after   15 cycles
 Normal termination of Gaussian 16 at Sun Dec 13 18:36:18 2020.

 ----------------------------------------------------------------------
 # B3LYP/6-311++G(d,p) empiricaldispersion=gd3bj scf=xqc pop=npa geom=c
 heck
 ----------------------------------------------------------------------

 --------------------------------------
 CID_111432121_JID_10138_Energie_kation
 --------------------------------------
 Structure from the checkpoint file:  "JID_10138.chk"
 Charge =  1 Multiplicity = 2

 SCF Done:  E(UB3LYP) =  -920.055400233     A.U. after   28 cycles
 Normal termination of Gaussian 16 at Sun Dec 13 19:08:52 2020.
 Gaussian 16:  ES64L-G16RevA.03 25-Dec-2016

 ----------------------------------------------------------------------
 # B3LYP/6-311++G(d,p) empiricaldispersion=gd3bj scf=xqc pop=npa geom=c
 heck
 ----------------------------------------------------------------------

 -------------------------------------
 CID_111432121_JID_10138_Energie_anion
 -------------------------------------
 Structure from the checkpoint file:  "JID_10138.chk"
 Charge = -1 Multiplicity = 2

                         Standard orientation:
 ---------------------------------------------------------------------
 Center     Atomic      Atomic             Coordinates (Angstroms)
 Number     Number       Type             X           Y           Z
 ---------------------------------------------------------------------
      1          6           0       -3.138163    0.939167    1.104549
      2          6           0       -4.425465    0.121446    1.069653
      3          8           0       -5.063587    0.215270   -0.194211
      4          6           0       -4.196421   -0.232882   -1.226883
      5          6           0       -2.902500    0.573269   -1.254130
      6          7           0       -2.235860    0.483420    0.047186
      7          6           0       -0.951245    1.187701    0.046747
      8          6           0       -0.063081    0.843022    1.246681
      9          6           0        0.019414   -0.674055    1.534424
     10          7           0       -0.118680   -1.508640    0.339362
     11          6           0        0.825090   -1.769053   -0.608458
     12          8           0        0.526553   -2.045347   -1.768885
     13          6           0        2.311843   -1.731687   -0.202261
     14          6           0        2.817408   -0.299966   -0.244509
     15          6           0        3.529788    0.246308    0.825320
     16          6           0        3.945282    1.578836    0.782309
     17          6           0        3.655678    2.372405   -0.327612
     18          6           0        2.956616    1.822708   -1.404785
     19          6           0        2.542136    0.493041   -1.365962
     20          8           0        2.572810   -2.280092    1.084799
     21          1           0       -3.383812    2.011958    0.985778
     22          1           0       -2.652281    0.813078    2.077903
     23          1           0       -4.192691   -0.931724    1.299914
     24          1           0       -5.140768    0.493617    1.808597
     25          1           0       -4.744917   -0.117917   -2.165828
     26          1           0       -3.958864   -1.300128   -1.084094
     27          1           0       -3.132628    1.622743   -1.518902
     28          1           0       -2.229978    0.167844   -2.019183
     29          1           0       -0.426423    0.891066   -0.867253
     30          1           0       -1.089689    2.283589   -0.010238
     31          1           0        0.933598    1.242316    1.037657
     32          1           0       -0.414286    1.347728    2.155306
     33          1           0        0.954679   -0.923517    2.033732
     34          1           0       -0.798065   -0.966598    2.200972
     35          1           0       -1.051286   -1.433865   -0.062101
     36          1           0        2.821706   -2.317682   -0.979277
     37          1           0        3.745423   -0.371325    1.689068
     38          1           0        4.494635    1.996622    1.621595
     39          1           0        3.975603    3.410150   -0.356395
     40          1           0        2.731788    2.430719   -2.276640
     41          1           0        1.991441    0.063919   -2.197936
     42          1           0        2.204119   -3.176260    1.097361
 ---------------------------------------------------------------------

 SCF Done:  E(UB3LYP) =  -920.339167561     A.U. after   33 cycles
 SCF Done:  E(UB3LYP) =  -920.339167560     a.u. after    1 cycles

 The electronic state is 2-A.
 Alpha  occ. eigenvalues --  -19.04683 -19.04393 -19.00023 -14.23786 -14.22905
 Alpha  occ. eigenvalues --  -10.18069 -10.14771 -10.13897 -10.13347 -10.11529
 Alpha  occ. eigenvalues --  -10.10982 -10.10802 -10.10727 -10.09844 -10.08980
 Alpha  occ. eigenvalues --  -10.08835 -10.08687 -10.08659 -10.08419 -10.07625
 Alpha  occ. eigenvalues --   -0.96414  -0.95774  -0.93927  -0.84961  -0.82574
 Alpha  occ. eigenvalues --   -0.77338  -0.69504  -0.68952  -0.68581  -0.66107
 Alpha  occ. eigenvalues --   -0.62832  -0.60904  -0.57603  -0.57435  -0.52714
 Alpha  occ. eigenvalues --   -0.51923  -0.50480  -0.48410  -0.48191  -0.44701
 Alpha  occ. eigenvalues --   -0.42929  -0.42722  -0.40151  -0.39608  -0.39187
 Alpha  occ. eigenvalues --   -0.38748  -0.37679  -0.37402  -0.36504  -0.36100
 Alpha  occ. eigenvalues --   -0.35339  -0.34645  -0.34221  -0.33774  -0.32994
 Alpha  occ. eigenvalues --   -0.31674  -0.31298  -0.30108  -0.28884  -0.28439
 Alpha  occ. eigenvalues --   -0.28052  -0.27938  -0.27070  -0.26202  -0.25699
 Alpha  occ. eigenvalues --   -0.25467  -0.24711  -0.23232  -0.20885  -0.18367
 Alpha  occ. eigenvalues --   -0.17945  -0.17045  -0.16562  -0.15373  -0.14491
 Alpha  occ. eigenvalues --    0.03938
 Alpha virt. eigenvalues --    0.05696   0.05946   0.06608   0.06788   0.06954
 Alpha virt. eigenvalues --    0.07455   0.07679   0.08379   0.08744   0.09440
 Alpha virt. eigenvalues --    0.09477   0.09936   0.10259   0.10825   0.11443

  Beta  occ. eigenvalues --  -19.04679 -19.04351 -19.00016 -14.23783 -14.22897
  Beta  occ. eigenvalues --  -10.18068 -10.14761 -10.13894 -10.13330 -10.11525
  Beta  occ. eigenvalues --  -10.10959 -10.10782 -10.10722 -10.09823 -10.08974
  Beta  occ. eigenvalues --  -10.08821 -10.08658 -10.08651 -10.08408 -10.07613
  Beta  occ. eigenvalues --   -0.96404  -0.95725  -0.93875  -0.84944  -0.82562
  Beta  occ. eigenvalues --   -0.77298  -0.69485  -0.68902  -0.68542  -0.66072
  Beta  occ. eigenvalues --   -0.62806  -0.60856  -0.57571  -0.57404  -0.52674
  Beta  occ. eigenvalues --   -0.51896  -0.50437  -0.48373  -0.48158  -0.44641
  Beta  occ. eigenvalues --   -0.42878  -0.42691  -0.40137  -0.39572  -0.39154
  Beta  occ. eigenvalues --   -0.38726  -0.37652  -0.37360  -0.36473  -0.36067
  Beta  occ. eigenvalues --   -0.35312  -0.34628  -0.34189  -0.33752  -0.32969
  Beta  occ. eigenvalues --   -0.31657  -0.31265  -0.30089  -0.28856  -0.28389
  Beta  occ. eigenvalues --   -0.28008  -0.27912  -0.27035  -0.26171  -0.25673
  Beta  occ. eigenvalues --   -0.25442  -0.24688  -0.23216  -0.20839  -0.18341
  Beta  occ. eigenvalues --   -0.17900  -0.16991  -0.16509  -0.15325  -0.14445
  Beta virt. eigenvalues --    0.05990   0.06516   0.06569   0.06961   0.07016
  Beta virt. eigenvalues --    0.07285   0.07674   0.08006   0.08927   0.09138
  Beta virt. eigenvalues --    0.09537   0.09696   0.10142   0.10396   0.10988

 Mulliken charges and spin densities:
               1          2
     1  C    0.089801  -0.103394
     2  C    0.361767  -0.888042
     3  O   -0.150819   0.034524
     4  C   -0.297992  -0.159235
     5  C    0.041134  -0.090273
     6  N    0.119810   0.011363
     7  C   -0.920796   0.148073
     8  C    0.143276  -0.259271
     9  C    0.260712  -0.567489
    10  N   -0.215947   0.105938
    11  C   -0.003165  -0.127204
    12  O   -0.281161   0.022515
    13  C    1.596861  -2.199384
    14  C   -0.745419   1.198905
    15  C    0.332390  -0.184109
    16  C   -0.148754  -0.177707
    17  C    0.686533  -0.962712
    18  C   -0.055173  -0.241117
    19  C   -1.229723   0.869482
    20  O   -0.215627   0.037659
    21  H    0.026653   0.124734
    22  H   -0.162905   0.281003
    23  H    0.070178   0.075393
    24  H   -0.219753   0.411818
    25  H    0.159820   0.021580
    26  H    0.084717   0.048669
    27  H    0.075515   0.070615
    28  H    0.119934   0.018159
    29  H    0.151615   0.000579
    30  H   -0.108242   0.257144
    31  H    0.378206  -0.234391
    32  H   -0.306206   0.536195
    33  H    0.329010  -0.119529
    34  H   -0.527003   0.742997
    35  H    0.369380   0.035912
    36  H    0.128049   0.129407
    37  H   -0.057005   0.270128
    38  H   -0.264866   0.442532
    39  H   -0.385933   0.547639
    40  H   -0.183555   0.357532
    41  H    0.139455   0.066489
    42  H   -0.184771   0.446872
 Sum of Mulliken charges =  -1.00000   1.00000

 Dipole moment (field-independent basis, Debye):
    X=             -1.9524    Y=              0.2973    Z=             -3.4856  Tot=              4.0062
 Quadrupole moment (field-independent basis, Debye-Ang):
   XX=           -203.9512   YY=           -176.1586   ZZ=           -165.2651
   XY=             -0.3277   XZ=              7.6168   YZ=             -0.7590

 Summary of Natural Population Analysis:

                                       Natural Population
                Natural  -----------------------------------------------
    Atom  No    Charge         Core      Valence    Rydberg      Total
 -----------------------------------------------------------------------
      C    1   -0.10065      0.99961     2.08858    0.01246     3.10065
      C    2   -0.01506      0.99958     2.00126    0.01423     3.01506
      O    3   -0.29813      0.99989     3.28941    0.00883     4.29813
      C    4   -0.01320      0.99958     2.00215    0.01148     3.01320
      C    5   -0.09814      0.99962     2.09001    0.00851     3.09814
      N    6   -0.29410      0.99971     2.78221    0.01218     3.79410
      C    7   -0.08506      0.99961     2.07511    0.01034     3.08506
      C    8   -0.20467      0.99961     2.19665    0.00840     3.20467
      C    9   -0.09450      0.99960     2.08293    0.01197     3.09450
      N   10   -0.32011      0.99966     2.80838    0.01207     3.82011
      C   11    0.33320      0.99963     1.64248    0.02469     2.66680
      O   12   -0.32816      0.99988     3.32275    0.00553     4.32816
      C   13    0.02358      0.99947     1.96228    0.01467     2.97642
      C   14   -0.02350      0.99948     2.01280    0.01122     3.02350
      C   15   -0.10232      0.99950     2.09313    0.00969     3.10232
      C   16   -0.09774      0.99956     2.08796    0.01022     3.09774
      C   17   -0.10199      0.99956     2.09226    0.01017     3.10199
      C   18   -0.10029      0.99956     2.09041    0.01032     3.10029
      C   19   -0.10458      0.99951     2.09623    0.00884     3.10458
      O   20   -0.36655      0.99989     3.35993    0.00672     4.36655
      H   21    0.08350      0.00000     0.41492    0.00158     0.41650
      H   22    0.10474      0.00000     0.39324    0.00202     0.39526
      H   23    0.08041      0.00000     0.41803    0.00156     0.41959
      H   24    0.09380      0.00000     0.40500    0.00120     0.40620
      H   25    0.09059      0.00000     0.40839    0.00102     0.40941
      H   26    0.08036      0.00000     0.41806    0.00157     0.41964
      H   27    0.08335      0.00000     0.41517    0.00148     0.41665
      H   28    0.10321      0.00000     0.39569    0.00109     0.39679
      H   29    0.09869      0.00000     0.39922    0.00208     0.40131
      H   30    0.08848      0.00000     0.41023    0.00129     0.41152
      H   31    0.10884      0.00000     0.38900    0.00216     0.39116
      H   32    0.09971      0.00000     0.39881    0.00148     0.40029
      H   33    0.11329      0.00000     0.38484    0.00188     0.38671
      H   34    0.09779      0.00000     0.40046    0.00175     0.40221
      H   35    0.19988      0.00000     0.29658    0.00354     0.30012
      H   36    0.09867      0.00000     0.39960    0.00174     0.40133
      H   37    0.11378      0.00000     0.38470    0.00152     0.38622
      H   38    0.10143      0.00000     0.39769    0.00089     0.39857
      H   39    0.10204      0.00000     0.39680    0.00117     0.39796
      H   40    0.10134      0.00000     0.39779    0.00087     0.39866
      H   41    0.11011      0.00000     0.38843    0.00146     0.38989
      H   42    0.23797      0.00000     0.25488    0.00714     0.26203
 =======================================================================
   * Total *    0.00000     19.99252    54.74445    0.26303    75.00000

 Normal termination of Gaussian 16 at Sun Dec 13 19:47:10 2020.
