 Gaussian 16, Revision A.03,

 -----------------------------------------------------------
 # opt freq B3LYP/6-31G(d) empiricaldispersion=gd3bj scf=xqc
 -----------------------------------------------------------

 ------------------------------
 CID_62220435_JID_6929_neutraal
 ------------------------------
 Symbolic Z-matrix:
 Charge =  0 Multiplicity = 1

 SCF Done:  E(RB3LYP) =  -672.249787536     A.U. after   16 cycles
 SCF Done:  E(RB3LYP) =  -672.274884726     A.U. after   13 cycles
 SCF Done:  E(RB3LYP) =  -672.279452346     A.U. after   12 cycles
 SCF Done:  E(RB3LYP) =  -672.281158426     A.U. after   12 cycles
 SCF Done:  E(RB3LYP) =  -672.279906697     A.U. after   14 cycles
 SCF Done:  E(RB3LYP) =  -672.282875917     A.U. after   12 cycles
 SCF Done:  E(RB3LYP) =  -672.282436033     A.U. after   12 cycles
 SCF Done:  E(RB3LYP) =  -672.283495022     A.U. after   12 cycles
 SCF Done:  E(RB3LYP) =  -672.283466975     A.U. after   12 cycles
 SCF Done:  E(RB3LYP) =  -672.284298967     A.U. after   12 cycles
 SCF Done:  E(RB3LYP) =  -672.284940622     A.U. after    8 cycles
 SCF Done:  E(RB3LYP) =  -672.284940718     A.U. after    7 cycles
 SCF Done:  E(RB3LYP) =  -672.284940758     A.U. after    7 cycles
 SCF Done:  E(RB3LYP) =  -672.284940792     A.U. after    7 cycles
 SCF Done:  E(RB3LYP) =  -672.284940807     A.U. after    6 cycles
 Optimization completed.
    -- Stationary point found.
 Normal termination of Gaussian 16 at Fri Dec 11 01:25:08 2020.

 --------------------------------------------------------------------
 #N Geom=AllCheck Guess=TCheck SCRF=Check GenChk RB3LYP/6-31G(d) Freq
 --------------------------------------------------------------------

 Structure from the checkpoint file:  "JID_6929.chk"
 ------------------------------
 CID_62220435_JID_6929_neutraal
 ------------------------------
 Charge =  0 Multiplicity = 1

 SCF Done:  E(RB3LYP) =  -672.284940807     A.U. after    2 cycles

  Exact polarizability: 172.551  -1.069 159.561  -1.418   6.098 119.477
 Approx polarizability: 223.075  -2.700 238.854  -0.845   6.074 185.770

                      1                      2                      3
                      A                      A                      A
 Frequencies --     33.7383                44.3660                54.8287
 Red. masses --      3.0295                 2.9997                 4.1775
 Frc consts  --      0.0020                 0.0035                 0.0074
 IR Inten    --      0.7229                 0.4053                 0.4688

                      4                      5                      6
                      A                      A                      A
 Frequencies --     63.5467               104.9801               127.6999
 Red. masses --      3.0545                 3.1215                 3.6642
 Frc consts  --      0.0073                 0.0203                 0.0352
 IR Inten    --      0.1467                 3.5322                 0.2856

                      7                      8                      9
                      A                      A                      A
 Frequencies --    143.0781               189.6713               192.1211
 Red. masses --      3.0253                 1.6025                 1.3208
 Frc consts  --      0.0365                 0.0340                 0.0287
 IR Inten    --      0.4211                26.8410                 0.0963

                     10                     11                     12
                      A                      A                      A
 Frequencies --    218.2601               227.5705               235.3402
 Red. masses --      1.5483                 1.6461                 1.1554
 Frc consts  --      0.0435                 0.0502                 0.0377
 IR Inten    --     22.0474                 0.9218                 2.9283

                     13                     14                     15
                      A                      A                      A
 Frequencies --    240.3290               250.1700               267.6261
 Red. masses --      1.1720                 1.6155                 1.5515
 Frc consts  --      0.0399                 0.0596                 0.0655
 IR Inten    --      0.6638                 0.3140                 0.7940

                     16                     17                     18
                      A                      A                      A
 Frequencies --    279.9031               280.8569               292.0331
 Red. masses --      4.3763                 1.1542                 3.2951
 Frc consts  --      0.2020                 0.0536                 0.1656
 IR Inten    --      1.1952                 0.4062                 1.2966

                     19                     20                     21
                      A                      A                      A
 Frequencies --    323.3930               336.1451               349.8395
 Red. masses --      2.7230                 2.3155                 2.7742
 Frc consts  --      0.1678                 0.1542                 0.2000
 IR Inten    --      2.9920                 6.4209                 3.0331

                     22                     23                     24
                      A                      A                      A
 Frequencies --    352.9485               400.1876               409.2847
 Red. masses --      2.7867                 2.7112                 2.9102
 Frc consts  --      0.2045                 0.2558                 0.2872
 IR Inten    --      0.7811                 3.8186                 2.3314

                     25                     26                     27
                      A                      A                      A
 Frequencies --    447.9761               449.4158               505.8149
 Red. masses --      4.2274                 2.6043                 4.6600
 Frc consts  --      0.4998                 0.3099                 0.7025
 IR Inten    --      1.0153                 1.3149                 2.8234

                     28                     29                     30
                      A                      A                      A
 Frequencies --    571.9168               608.1207               613.5430
 Red. masses --      2.8203                 1.7116                 2.1762
 Frc consts  --      0.5435                 0.3729                 0.4827
 IR Inten    --      1.1695                15.2146                33.4202

                     31                     32                     33
                      A                      A                      A
 Frequencies --    638.3916               664.1395               714.0347
 Red. masses --      1.3317                 2.7589                 4.8667
 Frc consts  --      0.3198                 0.7170                 1.4619
 IR Inten    --     30.8098                 5.8504                16.3030

                     34                     35                     36
                      A                      A                      A
 Frequencies --    743.0849               753.9659               796.8792
 Red. masses --      8.5463                 5.3459                 4.4168
 Frc consts  --      2.7804                 1.7905                 1.6525
 IR Inten    --      0.9758                17.2541                39.7782

                     37                     38                     39
                      A                      A                      A
 Frequencies --    817.4915               858.8832               909.6247
 Red. masses --      1.5733                 2.3690                 2.3601
 Frc consts  --      0.6195                 1.0296                 1.1505
 IR Inten    --    136.3912                 5.5410                 2.5693

                     40                     41                     42
                      A                      A                      A
 Frequencies --    939.0553               940.6285               949.9033
 Red. masses --      1.1828                 1.7653                 1.8038
 Frc consts  --      0.6145                 0.9202                 0.9590
 IR Inten    --      0.8079                 0.3304                 2.8189

                     43                     44                     45
                      A                      A                      A
 Frequencies --    958.0587               970.3808               977.7609
 Red. masses --      3.7573                 1.4989                 1.2241
 Frc consts  --      2.0319                 0.8316                 0.6895
 IR Inten    --     12.0611                 0.1284                 0.5643

                     46                     47                     48
                      A                      A                      A
 Frequencies --    987.4820              1054.4898              1061.5934
 Red. masses --      2.1212                 1.5938                 1.4035
 Frc consts  --      1.2187                 1.0442                 0.9319
 IR Inten    --     11.1865                13.0926                 0.9701

                     49                     50                     51
                      A                      A                      A
 Frequencies --   1076.7785              1116.1225              1137.5246
 Red. masses --      1.7866                 1.8873                 2.3314
 Frc consts  --      1.2205                 1.3852                 1.7774
 IR Inten    --     10.3618                 7.5013                 2.8257

                     52                     53                     54
                      A                      A                      A
 Frequencies --   1193.9521              1215.8358              1234.8647
 Red. masses --      1.9596                 2.0247                 1.8131
 Frc consts  --      1.6458                 1.7634                 1.6290
 IR Inten    --      7.8657                13.8998                12.2256

                     55                     56                     57
                      A                      A                      A
 Frequencies --   1241.3816              1244.0563              1266.4812
 Red. masses --      2.6424                 2.7409                 2.9384
 Frc consts  --      2.3992                 2.4993                 2.7769
 IR Inten    --      4.6007                 5.5870                25.2001

                     58                     59                     60
                      A                      A                      A
 Frequencies --   1304.8794              1313.6596              1366.9418
 Red. masses --      3.4009                 1.5992                 1.3040
 Frc consts  --      3.4118                 1.6260                 1.4356
 IR Inten    --     14.1869                 6.0155                 2.7621

                     61                     62                     63
                      A                      A                      A
 Frequencies --   1387.6471              1398.5906              1424.7529
 Red. masses --      1.6876                 1.9717                 1.2381
 Frc consts  --      1.9147                 2.2724                 1.4808
 IR Inten    --     71.0881                 1.5006                 3.1070

                     64                     65                     66
                      A                      A                      A
 Frequencies --   1426.3788              1429.5409              1434.6777
 Red. masses --      1.3560                 1.2223                 2.2157
 Frc consts  --      1.6255                 1.4717                 2.6870
 IR Inten    --     16.5447                 8.6094                17.2625

                     67                     68                     69
                      A                      A                      A
 Frequencies --   1444.0422              1457.0484              1467.6002
 Red. masses --      1.3956                 1.3590                 2.4601
 Frc consts  --      1.7146                 1.6999                 3.1219
 IR Inten    --     11.9139                 8.4290                 9.7215

                     70                     71                     72
                      A                      A                      A
 Frequencies --   1491.8190              1507.0098              1511.9007
 Red. masses --      1.1670                 1.0487                 1.0801
 Frc consts  --      1.5302                 1.4033                 1.4547
 IR Inten    --     25.2679                 0.5244                 2.7437

                     73                     74                     75
                      A                      A                      A
 Frequencies --   1514.8085              1516.0101              1521.2610
 Red. masses --      1.0484                 1.0494                 1.0482
 Frc consts  --      1.4173                 1.4210                 1.4292
 IR Inten    --      1.1988                 0.0149                 1.7821

                     76                     77                     78
                      A                      A                      A
 Frequencies --   1526.7704              1531.8055              1532.9537
 Red. masses --      1.6407                 1.0598                 1.1143
 Frc consts  --      2.2534                 1.4651                 1.5428
 IR Inten    --      5.0482                 2.2047                14.5322

                     79                     80                     81
                      A                      A                      A
 Frequencies --   1537.6665              1539.1868              1558.0798
 Red. masses --      1.0599                 1.1185                 1.7302
 Frc consts  --      1.4765                 1.5612                 2.4748
 IR Inten    --     16.7693                 2.6303                12.5804

                     82                     83                     84
                      A                      A                      A
 Frequencies --   1639.9041              1689.6698              2244.7524
 Red. masses --      3.3202                 1.3685                 5.9325
 Frc consts  --      5.2608                 2.3020                17.6127
 IR Inten    --     14.5834                53.2252                 0.5557

                     85                     86                     87
                      A                      A                      A
 Frequencies --   3033.9766              3043.6252              3048.9933
 Red. masses --      1.0387                 1.0376                 1.0356
 Frc consts  --      5.6331                 5.6633                 5.6721
 IR Inten    --     26.6629                35.2126                24.0887

                     88                     89                     90
                      A                      A                      A
 Frequencies --   3053.8788              3060.4364              3061.5922
 Red. masses --      1.0382                 1.0821                 1.0390
 Frc consts  --      5.7048                 5.9717                 5.7378
 IR Inten    --     15.4757                 5.6164                42.7328

                     91                     92                     93
                      A                      A                      A
 Frequencies --   3077.6850              3093.5298              3106.7752
 Red. masses --      1.0675                 1.0999                 1.0999
 Frc consts  --      5.9576                 6.2019                 6.2551
 IR Inten    --      9.1924                20.5880                86.9168

                     94                     95                     96
                      A                      A                      A
 Frequencies --   3113.1709              3119.4134              3122.1032
 Red. masses --      1.1009                 1.1009                 1.1020
 Frc consts  --      6.2864                 6.3117                 6.3291
 IR Inten    --     31.8639                30.5843                24.4846

                     97                     98                     99
                      A                      A                      A
 Frequencies --   3124.5182              3125.2326              3133.1425
 Red. masses --      1.1014                 1.1025                 1.0986
 Frc consts  --      6.3350                 6.3442                 6.3538
 IR Inten    --     35.7795                20.9460                49.1168

                    100                    101                    102
                      A                      A                      A
 Frequencies --   3139.4043              3152.6280              3155.0351
 Red. masses --      1.1001                 1.1023                 1.0932
 Frc consts  --      6.3881                 6.4552                 6.4113
 IR Inten    --     22.6855                20.2354                11.2607

                    103                    104                    105
                      A                      A                      A
 Frequencies --   3471.3271              3494.9501              3603.2514
 Red. masses --      1.0562                 1.1613                 1.0865
 Frc consts  --      7.4990                 8.3573                 8.3111
 IR Inten    --      1.4563                58.9020                10.3139

 - Thermochemistry -
 -------------------
 Temperature   298.150 Kelvin.  Pressure   1.00000 Atm.
 Atom     1 has atomic number  6 and mass  12.00000

 Molecular mass:   219.17355 amu.
 Principal axes and moments of inertia in atomic units:
                           1         2         3
     Eigenvalues --  2690.158904347.556855948.54013
           X            0.99961   0.02777   0.00230
           Y           -0.02778   0.99961   0.00422
           Z           -0.00219  -0.00428   0.99999
 This molecule is an asymmetric top.
 Rotational symmetry number  1.
 Warning -- assumption of classical behavior for rotation
           may cause significant error
 Rotational temperatures (Kelvin)      0.03220     0.01992     0.01456
 Rotational constants (GHZ):           0.67087     0.41512     0.30339
 Zero-point vibrational energy     850135.6 (Joules/Mol)
                                  203.18729 (Kcal/Mol)
 Warning -- explicit consideration of  30 degrees of freedom as
           vibrations may cause significant error
 Vibrational temperatures:     48.54    63.83    78.89    91.43   151.04
          (Kelvin)            183.73   205.86   272.89   276.42   314.03
                              327.42   338.60   345.78   359.94   385.05
                              402.72   404.09   420.17   465.29   483.64
                              503.34   507.81   575.78   588.87   644.54
                              646.61   727.75   822.86   874.95   882.75
                              918.50   955.55  1027.34  1069.13  1084.79
                             1146.53  1176.19  1235.74  1308.75  1351.09
                             1353.35  1366.70  1378.43  1396.16  1406.78
                             1420.77  1517.18  1527.40  1549.24  1605.85
                             1636.64  1717.83  1749.32  1776.69  1786.07
                             1789.92  1822.18  1877.43  1890.06  1966.72
                             1996.51  2012.26  2049.90  2052.24  2056.79
                             2064.18  2077.65  2096.37  2111.55  2146.39
                             2168.25  2175.29  2179.47  2181.20  2188.76
                             2196.68  2203.93  2205.58  2212.36  2214.55
                             2241.73  2359.46  2431.06  3229.70  4365.22
                             4379.10  4386.82  4393.85  4403.29  4404.95
                             4428.10  4450.90  4469.96  4479.16  4488.14
                             4492.01  4495.48  4496.51  4507.89  4516.90
                             4535.93  4539.39  4994.47  5028.45  5184.28

 Zero-point correction=                           0.323800 (Hartree/Particle)
 Thermal correction to Energy=                    0.342354
 Thermal correction to Enthalpy=                  0.343299
 Thermal correction to Gibbs Free Energy=         0.277985
 Sum of electronic and zero-point Energies=           -671.961141
 Sum of electronic and thermal Energies=              -671.942586
 Sum of electronic and thermal Enthalpies=            -671.941642
 Sum of electronic and thermal Free Energies=         -672.006955

                     E (Thermal)             CV                S
                      KCal/Mol        Cal/Mol-Kelvin    Cal/Mol-Kelvin
 Total                  214.831             69.673            137.463
 Electronic               0.000              0.000              0.000
 Translational            0.889              2.981             42.057
 Rotational               0.889              2.981             32.609
 Vibrational            213.053             63.711             62.797
 Vibration     1          0.594              1.983              5.597
 Vibration     2          0.595              1.980              5.054
 Vibration     3          0.596              1.976              4.635
 Vibration     4          0.597              1.972              4.344
 Vibration     5          0.605              1.945              3.360
 Vibration     6          0.611              1.925              2.980
 Vibration     7          0.616              1.910              2.762
 Vibration     8          0.633              1.854              2.231
 Vibration     9          0.634              1.851              2.207
 Vibration    10          0.646              1.813              1.973
 Vibration    11          0.651              1.799              1.898
 Vibration    12          0.655              1.787              1.838
 Vibration    13          0.657              1.779              1.800
 Vibration    14          0.663              1.762              1.729
 Vibration    15          0.673              1.733              1.611
 Vibration    16          0.680              1.711              1.534
 Vibration    17          0.681              1.709              1.528
 Vibration    18          0.687              1.689              1.462
 Vibration    19          0.708              1.629              1.293
 Vibration    20          0.717              1.603              1.230
 Vibration    21          0.727              1.576              1.167
 Vibration    22          0.729              1.569              1.153
 Vibration    23          0.766              1.470              0.962
 Vibration    24          0.774              1.450              0.929
 Vibration    25          0.807              1.365              0.802
 Vibration    26          0.808              1.362              0.798
 Vibration    27          0.861              1.237              0.644
 Vibration    28          0.928              1.092              0.501
 Vibration    29          0.967              1.015              0.436
 Vibration    30          0.973              1.003              0.427

 Optimization completed.
    -- Stationary point found.
 Normal termination of Gaussian 16 at Fri Dec 11 01:40:09 2020.

 ----------------------------------------------------------------------
 # B3LYP/6-311++G(d,p) empiricaldispersion=gd3bj scf=xqc pop=npa geom=c
 heck
 ----------------------------------------------------------------------

 --------------------------------------
 CID_62220435_JID_6929_Energie_neutraal
 --------------------------------------
 Structure from the checkpoint file:  "JID_6929.chk"
 Charge =  0 Multiplicity = 1

 SCF Done:  E(RB3LYP) =  -672.475078386     A.U. after   15 cycles
 Normal termination of Gaussian 16 at Fri Dec 11 01:47:46 2020.

 ----------------------------------------------------------------------
 # B3LYP/6-311++G(d,p) empiricaldispersion=gd3bj scf=xqc pop=npa geom=c
 heck
 ----------------------------------------------------------------------

 ------------------------------------
 CID_62220435_JID_6929_Energie_kation
 ------------------------------------
 Structure from the checkpoint file:  "JID_6929.chk"
 Charge =  1 Multiplicity = 2

 SCF Done:  E(UB3LYP) =  -672.209792770     A.U. after   20 cycles
 Normal termination of Gaussian 16 at Fri Dec 11 02:02:05 2020.
 Gaussian 16:  ES64L-G16RevA.03 25-Dec-2016

 ----------------------------------------------------------------------
 # B3LYP/6-311++G(d,p) empiricaldispersion=gd3bj scf=xqc pop=npa geom=c
 heck
 ----------------------------------------------------------------------

 -----------------------------------
 CID_62220435_JID_6929_Energie_anion
 -----------------------------------
 Structure from the checkpoint file:  "JID_6929.chk"
 Charge = -1 Multiplicity = 2

                         Standard orientation:
 ---------------------------------------------------------------------
 Center     Atomic      Atomic             Coordinates (Angstroms)
 Number     Number       Type             X           Y           Z
 ---------------------------------------------------------------------
      1          6           0        3.701008   -1.105793   -0.924192
      2          6           0        2.880698   -0.936898    0.367398
      3          6           0        3.595589   -0.007267    1.362790
      4          6           0        1.470623   -0.489981    0.086649
      5          6           0        1.011564    0.718207   -0.383906
      6          7           0       -0.372198    0.590421   -0.485603
      7          6           0       -0.699579   -0.680143   -0.044285
      8          7           0        0.397044   -1.339722    0.277242
      9          6           0       -2.099613   -1.253895    0.065102
     10          6           0       -2.995774   -0.372887    0.963451
     11          6           0       -2.736931   -1.418839   -1.333618
     12          6           0       -1.995049   -2.648825    0.709197
     13          6           0       -1.207150    1.700633   -0.925585
     14          6           0       -1.435006    2.690765    0.132382
     15          6           0       -1.590446    3.508735    1.005934
     16          7           0        1.618338    1.916114   -0.810204
     17          1           0        3.838798   -0.146287   -1.440384
     18          1           0        3.197663   -1.785301   -1.619247
     19          1           0        4.698296   -1.507582   -0.707900
     20          1           0        2.784996   -1.924646    0.833450
     21          1           0        3.700408    1.006504    0.956872
     22          1           0        3.033613    0.067754    2.299413
     23          1           0        4.601952   -0.376828    1.592071
     24          1           0       -3.159357    0.629803    0.559630
     25          1           0       -3.977556   -0.845697    1.082978
     26          1           0       -2.548733   -0.259090    1.956471
     27          1           0       -2.107920   -2.051358   -1.968498
     28          1           0       -3.720811   -1.893893   -1.243315
     29          1           0       -2.881788   -0.465007   -1.851591
     30          1           0       -1.360976   -3.310383    0.114302
     31          1           0       -1.556259   -2.586908    1.708470
     32          1           0       -2.995621   -3.089274    0.788314
     33          1           0       -0.687797    2.179085   -1.763334
     34          1           0       -2.155349    1.311303   -1.296738
     35          1           0       -1.744397    4.221728    1.783811
     36          1           0        1.539747    2.661542   -0.119222
     37          1           0        2.599200    1.773965   -1.023501
 ---------------------------------------------------------------------

 SCF Done:  E(UB3LYP) =  -672.463050414     A.U. after   33 cycles
 SCF Done:  E(UB3LYP) =  -672.463050415     a.u. after    1 cycles

 The electronic state is 2-A.
 Alpha  occ. eigenvalues --  -14.26731 -14.21770 -14.18600 -10.14665 -10.12293
 Alpha  occ. eigenvalues --  -10.12250 -10.10503 -10.08949 -10.07970 -10.07953
 Alpha  occ. eigenvalues --  -10.07675 -10.07390 -10.06946 -10.06435 -10.06393
 Alpha  occ. eigenvalues --  -10.06047  -0.92028  -0.80906  -0.78673  -0.73202
 Alpha  occ. eigenvalues --   -0.70053  -0.68306  -0.62598  -0.60896  -0.60084
 Alpha  occ. eigenvalues --   -0.59415  -0.58812  -0.52274  -0.50257  -0.48147
 Alpha  occ. eigenvalues --   -0.45591  -0.43433  -0.41838  -0.40168  -0.39166
 Alpha  occ. eigenvalues --   -0.38219  -0.36570  -0.35782  -0.35460  -0.34261
 Alpha  occ. eigenvalues --   -0.33510  -0.33003  -0.32110  -0.30755  -0.29440
 Alpha  occ. eigenvalues --   -0.29293  -0.28667  -0.27662  -0.26459  -0.24888
 Alpha  occ. eigenvalues --   -0.24473  -0.24367  -0.23786  -0.23687  -0.20824
 Alpha  occ. eigenvalues --   -0.19715  -0.18943  -0.16831  -0.16237  -0.10208
 Alpha  occ. eigenvalues --    0.04109
 Alpha virt. eigenvalues --    0.06066   0.06435   0.07376   0.08110   0.08563
 Alpha virt. eigenvalues --    0.08788   0.09103   0.09624   0.10177   0.10583
 Alpha virt. eigenvalues --    0.10778   0.11045   0.11392   0.11583   0.11969

  Beta  occ. eigenvalues --  -14.26730 -14.21714 -14.18596 -10.14634 -10.12294
  Beta  occ. eigenvalues --  -10.12245 -10.10502 -10.08952 -10.07949 -10.07935
  Beta  occ. eigenvalues --  -10.07676 -10.07367 -10.06930 -10.06411 -10.06387
  Beta  occ. eigenvalues --  -10.06019  -0.92017  -0.80853  -0.78640  -0.73188
  Beta  occ. eigenvalues --   -0.70033  -0.68279  -0.62555  -0.60865  -0.60046
  Beta  occ. eigenvalues --   -0.59394  -0.58759  -0.52239  -0.50221  -0.48111
  Beta  occ. eigenvalues --   -0.45535  -0.43390  -0.41783  -0.40132  -0.39119
  Beta  occ. eigenvalues --   -0.38182  -0.36547  -0.35753  -0.35434  -0.34241
  Beta  occ. eigenvalues --   -0.33487  -0.32983  -0.32079  -0.30731  -0.29423
  Beta  occ. eigenvalues --   -0.29261  -0.28645  -0.27645  -0.26435  -0.24868
  Beta  occ. eigenvalues --   -0.24454  -0.24349  -0.23768  -0.23653  -0.20788
  Beta  occ. eigenvalues --   -0.19686  -0.18913  -0.16821  -0.16212  -0.10188
  Beta virt. eigenvalues --    0.06090   0.06759   0.07332   0.07835   0.08700
  Beta virt. eigenvalues --    0.08799   0.08927   0.09384   0.09776   0.10364
  Beta virt. eigenvalues --    0.10691   0.10974   0.11079   0.11526   0.11790

 Mulliken charges and spin densities:
               1          2
     1  C    0.369843  -0.886528
     2  C   -2.620715   2.359347
     3  C    0.389045  -0.948794
     4  C    3.363467  -2.810152
     5  C   -1.358095   1.005704
     6  N    0.313953  -0.075206
     7  C    1.059891  -1.605937
     8  N    0.028274   0.077480
     9  C   -0.469020   0.965383
    10  C    0.063298  -0.600197
    11  C   -0.051927  -0.371902
    12  C   -0.374276  -0.268887
    13  C   -0.868097   0.416253
    14  C    4.317491  -4.080228
    15  C   -2.657967   2.226668
    16  N   -0.680762   0.274766
    17  H   -0.086713   0.221331
    18  H    0.036301   0.106050
    19  H   -0.148192   0.282603
    20  H    0.159372   0.017025
    21  H   -0.147348   0.300818
    22  H    0.039268   0.102742
    23  H   -0.203790   0.334632
    24  H    0.200829  -0.097239
    25  H   -0.051314   0.195830
    26  H    0.060793   0.118195
    27  H    0.087181   0.080408
    28  H   -0.123154   0.271516
    29  H   -0.185547   0.313802
    30  H    0.123173   0.037051
    31  H    0.105134   0.051705
    32  H    0.105178   0.033480
    33  H   -0.154921   0.410525
    34  H   -0.114081   0.245479
    35  H   -1.333575   1.547258
    36  H   -0.110527   0.392220
    37  H   -0.082468   0.356801
 Sum of Mulliken charges =  -1.00000   1.00000

 Dipole moment (field-independent basis, Debye):
    X=             -1.6619    Y=             -5.5437    Z=             -0.8042  Tot=              5.8431
 Quadrupole moment (field-independent basis, Debye-Ang):
   XX=           -166.2123   YY=           -162.8868   ZZ=           -136.0989
   XY=              1.6118   XZ=              1.2118   YZ=             -6.5373

 Summary of Natural Population Analysis:

                                       Natural Population
                Natural  -----------------------------------------------
    Atom  No    Charge         Core      Valence    Rydberg      Total
 -----------------------------------------------------------------------
      C    1   -0.27827      0.99965     2.27354    0.00508     3.27827
      C    2   -0.12606      0.99959     2.11538    0.01109     3.12606
      C    3   -0.27969      0.99965     2.27471    0.00533     3.27969
      C    4    0.03549      0.99944     1.94829    0.01678     2.96451
      C    5    0.15125      0.99941     1.83359    0.01576     2.84875
      N    6   -0.21589      0.99960     2.70324    0.01305     3.71589
      C    7    0.21925      0.99955     1.76437    0.01683     2.78075
      N    8   -0.25874      0.99968     2.75113    0.00793     3.75874
      C    9   -0.07040      0.99957     2.05974    0.01108     3.07040
      C   10   -0.28170      0.99963     2.27447    0.00760     3.28170
      C   11   -0.27922      0.99963     2.27218    0.00741     3.27922
      C   12   -0.27857      0.99964     2.27221    0.00672     3.27857
      C   13   -0.12930      0.99953     2.11678    0.01299     3.12930
      C   14   -0.01372      0.99934     2.00608    0.00829     3.01372
      C   15   -0.10113      0.99925     2.09818    0.00370     3.10113
      N   16   -0.41737      0.99974     2.90769    0.00995     3.91737
      H   17    0.09344      0.00000     0.40543    0.00113     0.40656
      H   18    0.10089      0.00000     0.39809    0.00102     0.39911
      H   19    0.09487      0.00000     0.40428    0.00085     0.40513
      H   20    0.10157      0.00000     0.39618    0.00225     0.39843
      H   21    0.09645      0.00000     0.40202    0.00153     0.40355
      H   22    0.10145      0.00000     0.39745    0.00110     0.39855
      H   23    0.09471      0.00000     0.40443    0.00086     0.40529
      H   24    0.10195      0.00000     0.39679    0.00126     0.39805
      H   25    0.09704      0.00000     0.40214    0.00083     0.40296
      H   26    0.10398      0.00000     0.39501    0.00101     0.39602
      H   27    0.10302      0.00000     0.39609    0.00089     0.39698
      H   28    0.09786      0.00000     0.40132    0.00082     0.40214
      H   29    0.09624      0.00000     0.40258    0.00118     0.40376
      H   30    0.10692      0.00000     0.39210    0.00099     0.39308
      H   31    0.10581      0.00000     0.39330    0.00089     0.39419
      H   32    0.09276      0.00000     0.40645    0.00079     0.40724
      H   33    0.12602      0.00000     0.37207    0.00191     0.37398
      H   34    0.11515      0.00000     0.38307    0.00178     0.38485
      H   35    0.11445      0.00000     0.38285    0.00270     0.38555
      H   36    0.18958      0.00000     0.30669    0.00373     0.31042
      H   37    0.19000      0.00000     0.30729    0.00271     0.31000
 =======================================================================
   * Total *    0.00010     15.99290    43.81718    0.18982    59.99990

 Normal termination of Gaussian 16 at Fri Dec 11 02:25:37 2020.
