 Gaussian 16, Revision A.03,

 -----------------------------------------------------------
 # opt freq B3LYP/6-31G(d) empiricaldispersion=gd3bj scf=xqc
 -----------------------------------------------------------

 -------------------------------
 CID_150267914_JID_3965_neutraal
 -------------------------------
 Symbolic Z-matrix:
 Charge =  0 Multiplicity = 1

 SCF Done:  E(RB3LYP) =  -540.954590159     A.U. after   13 cycles
 SCF Done:  E(RB3LYP) =  -540.956572952     A.U. after   11 cycles
 SCF Done:  E(RB3LYP) =  -540.956727171     A.U. after   11 cycles
 SCF Done:  E(RB3LYP) =  -540.956794940     A.U. after   10 cycles
 SCF Done:  E(RB3LYP) =  -540.956809441     A.U. after    9 cycles
 SCF Done:  E(RB3LYP) =  -540.956812828     A.U. after    9 cycles
 SCF Done:  E(RB3LYP) =  -540.956813882     A.U. after    8 cycles
 SCF Done:  E(RB3LYP) =  -540.956814058     A.U. after    7 cycles
 SCF Done:  E(RB3LYP) =  -540.956814113     A.U. after    7 cycles
 Optimization completed.
    -- Stationary point found.
 Normal termination of Gaussian 16 at Sun Dec 13 12:19:15 2020.

 --------------------------------------------------------------------
 #N Geom=AllCheck Guess=TCheck SCRF=Check GenChk RB3LYP/6-31G(d) Freq
 --------------------------------------------------------------------

 Structure from the checkpoint file:  "JID_3965.chk"
 -------------------------------
 CID_150267914_JID_3965_neutraal
 -------------------------------
 Charge =  0 Multiplicity = 1

 SCF Done:  E(RB3LYP) =  -540.956814113     A.U. after    1 cycles

  Exact polarizability: 147.600  -7.652 128.259  16.223   2.564  81.599
 Approx polarizability: 195.357 -17.887 213.765  35.218   7.161 133.791

                      1                      2                      3
                      A                      A                      A
 Frequencies --     30.5132                71.9997                79.6012
 Red. masses --      3.3306                 4.4374                 3.8822
 Frc consts  --      0.0018                 0.0136                 0.0145
 IR Inten    --      0.0535                 0.1701                 0.4415

                      4                      5                      6
                      A                      A                      A
 Frequencies --    147.0366               199.8471               255.5485
 Red. masses --      2.7856                 2.0095                 4.4142
 Frc consts  --      0.0355                 0.0473                 0.1698
 IR Inten    --      0.6651                 0.0913                 0.7471

                      7                      8                      9
                      A                      A                      A
 Frequencies --    273.3290               393.7271               411.7561
 Red. masses --      3.8180                 2.2999                 2.6164
 Frc consts  --      0.1681                 0.2101                 0.2614
 IR Inten    --      0.6617                 0.4267                 2.0012

                     10                     11                     12
                      A                      A                      A
 Frequencies --    429.0006               438.3112               479.6092
 Red. masses --      3.1314                 5.7822                 3.0124
 Frc consts  --      0.3396                 0.6545                 0.4083
 IR Inten    --      0.0934                 6.0762                 4.2834

                     13                     14                     15
                      A                      A                      A
 Frequencies --    514.5973               525.2421               616.8088
 Red. masses --      4.5277                 6.1783                 3.1737
 Frc consts  --      0.7064                 1.0042                 0.7114
 IR Inten    --      1.8153                 1.0276                 4.6194

                     16                     17                     18
                      A                      A                      A
 Frequencies --    634.0368               677.3675               712.8384
 Red. masses --      6.4474                 1.3162                 1.8288
 Frc consts  --      1.5271                 0.3558                 0.5475
 IR Inten    --      0.0917                22.7052                25.0887

                     19                     20                     21
                      A                      A                      A
 Frequencies --    739.6895               790.1547               806.4632
 Red. masses --      2.7599                 2.0923                 2.4057
 Frc consts  --      0.8897                 0.7697                 0.9219
 IR Inten    --      5.3874                19.6299                15.1566

                     22                     23                     24
                      A                      A                      A
 Frequencies --    846.6987               849.4042               892.6890
 Red. masses --      2.0236                 1.2773                 2.8505
 Frc consts  --      0.8547                 0.5430                 1.3383
 IR Inten    --      8.0595                 0.6928                 2.8500

                     25                     26                     27
                      A                      A                      A
 Frequencies --    921.7130               944.2733               958.4547
 Red. masses --      1.5278                 1.5914                 2.8033
 Frc consts  --      0.7647                 0.8360                 1.5173
 IR Inten    --      3.5145                 2.9630                 8.6862

                     28                     29                     30
                      A                      A                      A
 Frequencies --    964.8315               980.5740               988.0710
 Red. masses --      1.3356                 2.1244                 1.2672
 Frc consts  --      0.7325                 1.2035                 0.7289
 IR Inten    --      0.1739                19.0394                 1.5317

                     31                     32                     33
                      A                      A                      A
 Frequencies --    998.3558              1023.1131              1050.8874
 Red. masses --      1.1909                 6.0786                 2.4850
 Frc consts  --      0.6994                 3.7489                 1.6169
 IR Inten    --      0.1726                 2.4813                15.0810

                     34                     35                     36
                      A                      A                      A
 Frequencies --   1060.8309              1067.9490              1104.5687
 Red. masses --      1.7502                 3.5174                 1.5745
 Frc consts  --      1.1605                 2.3636                 1.1318
 IR Inten    --     15.4835               100.4543                 9.9723

                     37                     38                     39
                      A                      A                      A
 Frequencies --   1105.6618              1117.1454              1171.8358
 Red. masses --      1.9723                 2.1325                 1.1558
 Frc consts  --      1.4206                 1.5680                 0.9351
 IR Inten    --      7.1678                 4.3261                 3.2928

                     40                     41                     42
                      A                      A                      A
 Frequencies --   1190.7060              1196.2024              1224.5384
 Red. masses --      1.0982                 1.1609                 1.1685
 Frc consts  --      0.9173                 0.9787                 1.0324
 IR Inten    --      0.2260                13.5922                 0.3966

                     43                     44                     45
                      A                      A                      A
 Frequencies --   1248.3868              1263.4191              1292.5185
 Red. masses --      2.6534                 1.3571                 1.3242
 Frc consts  --      2.4364                 1.2763                 1.3034
 IR Inten    --    145.2805                46.3065                 2.9696

                     46                     47                     48
                      A                      A                      A
 Frequencies --   1331.1824              1344.1506              1360.7568
 Red. masses --      2.0597                 1.3641                 2.5328
 Frc consts  --      2.1504                 1.4521                 2.7632
 IR Inten    --      0.1097                 0.7215                 0.0401

                     49                     50                     51
                      A                      A                      A
 Frequencies --   1365.6703              1386.1763              1404.2266
 Red. masses --      1.4355                 1.4538                 1.5090
 Frc consts  --      1.5775                 1.6458                 1.7531
 IR Inten    --     25.8651                 0.9465                 7.8104

                     52                     53                     54
                      A                      A                      A
 Frequencies --   1427.2233              1434.6950              1498.9040
 Red. masses --      1.4503                 1.4590                 2.2257
 Frc consts  --      1.7406                 1.7694                 2.9462
 IR Inten    --     10.1168                 2.7037                 1.1936

                     55                     56                     57
                      A                      A                      A
 Frequencies --   1508.6927              1513.4517              1532.2255
 Red. masses --      1.0936                 1.0875                 1.0998
 Frc consts  --      1.4666                 1.4676                 1.5213
 IR Inten    --      0.9755                 2.5182                 2.1948

                     58                     59                     60
                      A                      A                      A
 Frequencies --   1542.9956              1645.0827              1658.4937
 Red. masses --      2.3214                 5.9141                 5.6975
 Frc consts  --      3.2563                 9.4300                 9.2335
 IR Inten    --     71.3983                 6.8239                39.7116

                     61                     62                     63
                      A                      A                      A
 Frequencies --   1740.6270              3011.9430              3032.4174
 Red. masses --      6.2654                 1.0694                 1.0615
 Frc consts  --     11.1844                 5.7161                 5.7512
 IR Inten    --      3.6803                37.6157                15.5968

                     64                     65                     66
                      A                      A                      A
 Frequencies --   3050.4080              3060.7343              3063.3327
 Red. masses --      1.0772                 1.0872                 1.0819
 Frc consts  --      5.9057                 6.0007                 5.9817
 IR Inten    --     17.2988                28.2255                11.4952

                     67                     68                     69
                      A                      A                      A
 Frequencies --   3079.4300              3105.9150              3155.8807
 Red. masses --      1.0912                 1.1044                 1.0843
 Frc consts  --      6.0965                 6.2769                 6.3626
 IR Inten    --     48.4820                44.6357                 8.1750

                     70                     71                     72
                      A                      A                      A
 Frequencies --   3178.5148              3184.0903              3192.5209
 Red. masses --      1.0969                 1.0850                 1.0893
 Frc consts  --      6.5293                 6.4813                 6.5415
 IR Inten    --     52.4112                 1.1178                14.1286

                     73                     74                     75
                      A                      A                      A
 Frequencies --   3207.0571              3216.5941              3222.2223
 Red. masses --      1.0932                 1.0946                 1.0944
 Frc consts  --      6.6246                 6.6727                 6.6949
 IR Inten    --     35.8398                13.3316                 4.6923

 - Thermochemistry -
 -------------------
 Temperature   298.150 Kelvin.  Pressure   1.00000 Atm.
 Atom     1 has atomic number  6 and mass  12.00000

 Molecular mass:   174.10447 amu.
 Principal axes and moments of inertia in atomic units:
                           1         2         3
     Eigenvalues --  1013.341883835.129224151.19134
           X            0.99998  -0.00542   0.00355
           Y            0.00540   0.99997   0.00554
           Z           -0.00358  -0.00553   0.99998
 This molecule is an asymmetric top.
 Rotational symmetry number  1.
 Warning -- assumption of classical behavior for rotation
           may cause significant error
 Rotational temperatures (Kelvin)      0.08547     0.02258     0.02086
 Rotational constants (GHZ):           1.78098     0.47058     0.43475
 Zero-point vibrational energy     610968.3 (Joules/Mol)
                                  146.02493 (Kcal/Mol)
 Warning -- explicit consideration of  15 degrees of freedom as
           vibrations may cause significant error
 Vibrational temperatures:     43.90   103.59   114.53   211.55   287.54
          (Kelvin)            367.68   393.26   566.49   592.43   617.24
                              630.63   690.05   740.39   755.71   887.45
                              912.24   974.58  1025.62  1064.25  1136.86
                             1160.32  1218.21  1222.10  1284.38  1326.14
                             1358.60  1379.00  1388.18  1410.83  1421.61
                             1436.41  1472.03  1511.99  1526.30  1536.54
                             1589.23  1590.80  1607.32  1686.01  1713.16
                             1721.07  1761.84  1796.15  1817.78  1859.65
                             1915.27  1933.93  1957.83  1964.89  1994.40
                             2020.37  2053.46  2064.21  2156.59  2170.67
                             2177.52  2204.53  2220.03  2366.91  2386.20
                             2504.37  4333.51  4362.97  4388.86  4403.71
                             4407.45  4430.61  4468.72  4540.61  4573.17
                             4581.20  4593.33  4614.24  4627.96  4636.06

 Zero-point correction=                           0.232706 (Hartree/Particle)
 Thermal correction to Energy=                    0.243606
 Thermal correction to Enthalpy=                  0.244550
 Thermal correction to Gibbs Free Energy=         0.194991
 Sum of electronic and zero-point Energies=           -540.724109
 Sum of electronic and thermal Energies=              -540.713208
 Sum of electronic and thermal Enthalpies=            -540.712264
 Sum of electronic and thermal Free Energies=         -540.761823

                     E (Thermal)             CV                S
                      KCal/Mol        Cal/Mol-Kelvin    Cal/Mol-Kelvin
 Total                  152.865             43.629            104.307
 Electronic               0.000              0.000              0.000
 Translational            0.889              2.981             41.371
 Rotational               0.889              2.981             31.157
 Vibrational            151.088             37.668             31.780
 Vibration     1          0.594              1.984              5.796
 Vibration     2          0.598              1.967              4.098
 Vibration     3          0.600              1.963              3.901
 Vibration     4          0.617              1.906              2.710
 Vibration     5          0.638              1.840              2.135
 Vibration     6          0.666              1.753              1.692
 Vibration     7          0.676              1.723              1.575
 Vibration     8          0.761              1.484              0.986
 Vibration     9          0.776              1.445              0.920
 Vibration    10          0.790              1.407              0.862
 Vibration    11          0.798              1.387              0.832
 Vibration    12          0.836              1.295              0.711
 Vibration    13          0.870              1.218              0.623
 Vibration    14          0.880              1.194              0.598
 Vibration    15          0.976              0.996              0.422

                           ! Non-Optimized Parameters !
 Normal termination of Gaussian 16 at Sun Dec 13 12:25:43 2020.

 ----------------------------------------------------------------------
 # B3LYP/6-311++G(d,p) empiricaldispersion=gd3bj scf=xqc pop=npa geom=c
 heck
 ----------------------------------------------------------------------

 ---------------------------------------
 CID_150267914_JID_3965_Energie_neutraal
 ---------------------------------------
 Structure from the checkpoint file:  "JID_3965.chk"
 Charge =  0 Multiplicity = 1

 SCF Done:  E(RB3LYP) =  -541.101147706     A.U. after   14 cycles
 Normal termination of Gaussian 16 at Sun Dec 13 12:28:44 2020.

 ----------------------------------------------------------------------
 # B3LYP/6-311++G(d,p) empiricaldispersion=gd3bj scf=xqc pop=npa geom=c
 heck
 ----------------------------------------------------------------------

 -------------------------------------
 CID_150267914_JID_3965_Energie_kation
 -------------------------------------
 Structure from the checkpoint file:  "JID_3965.chk"
 Charge =  1 Multiplicity = 2

 SCF Done:  E(UB3LYP) =  -540.797073510     A.U. after   23 cycles
 Normal termination of Gaussian 16 at Sun Dec 13 12:35:43 2020.
 Gaussian 16:  ES64L-G16RevA.03 25-Dec-2016

 ----------------------------------------------------------------------
 # B3LYP/6-311++G(d,p) empiricaldispersion=gd3bj scf=xqc pop=npa geom=c
 heck
 ----------------------------------------------------------------------

 ------------------------------------
 CID_150267914_JID_3965_Energie_anion
 ------------------------------------
 Structure from the checkpoint file:  "JID_3965.chk"
 Charge = -1 Multiplicity = 2

                         Standard orientation:
 ---------------------------------------------------------------------
 Center     Atomic      Atomic             Coordinates (Angstroms)
 Number     Number       Type             X           Y           Z
 ---------------------------------------------------------------------
      1          6           0        3.022137   -1.190777   -0.314374
      2          6           0        1.537284   -1.203177    0.082489
      3          6           0        1.197533    0.053018    0.885151
      4          6           0        1.407741    1.308566    0.035045
      5          6           0        2.730897    1.267459   -0.688064
      6          6           0        3.455384    0.155020   -0.837022
      7          8           0       -0.110629    0.010395    1.495424
      8          6           0       -1.215047   -0.018906    0.671155
      9          6           0       -1.889150    1.171771    0.382346
     10          6           0       -3.045904    1.146555   -0.396371
     11          6           0       -3.537684   -0.064020   -0.887685
     12          6           0       -2.870942   -1.252672   -0.585750
     13          6           0       -1.714916   -1.234963    0.194690
     14          1           0        3.644643   -1.465461    0.551376
     15          1           0        3.212207   -1.964833   -1.069544
     16          1           0        1.304335   -2.094429    0.675295
     17          1           0        0.916389   -1.235287   -0.820680
     18          1           0        1.863648    0.101351    1.753305
     19          1           0        0.589018    1.400696   -0.692648
     20          1           0        1.346969    2.198701    0.674472
     21          1           0        3.094338    2.207509   -1.099603
     22          1           0        4.410304    0.200865   -1.358043
     23          1           0       -1.500716    2.102437    0.783139
     24          1           0       -3.565023    2.075308   -0.616626
     25          1           0       -4.438810   -0.082047   -1.493624
     26          1           0       -3.254989   -2.200545   -0.952736
     27          1           0       -1.201281   -2.154666    0.452869
 ---------------------------------------------------------------------

 SCF Done:  E(UB3LYP) =  -541.086103591     A.U. after   33 cycles
 SCF Done:  E(UB3LYP) =  -541.086103591     a.u. after    1 cycles

 The electronic state is 2-A.
 Alpha  occ. eigenvalues --  -19.03674 -10.13217 -10.12882 -10.08227 -10.08224
 Alpha  occ. eigenvalues --  -10.07820 -10.07816 -10.07764 -10.07452 -10.07271
 Alpha  occ. eigenvalues --  -10.07111 -10.06934 -10.06854  -0.95293  -0.76039
 Alpha  occ. eigenvalues --   -0.73758  -0.66023  -0.65638  -0.64875  -0.62807
 Alpha  occ. eigenvalues --   -0.53772  -0.52774  -0.51303  -0.48401  -0.43835
 Alpha  occ. eigenvalues --   -0.41975  -0.40556  -0.37500  -0.37424  -0.36137
 Alpha  occ. eigenvalues --   -0.34521  -0.33476  -0.33107  -0.32514  -0.30382
 Alpha  occ. eigenvalues --   -0.29126  -0.28604  -0.27202  -0.26988  -0.26013
 Alpha  occ. eigenvalues --   -0.24399  -0.23462  -0.22046  -0.17529  -0.16329
 Alpha  occ. eigenvalues --   -0.15283  -0.14422   0.04349
 Alpha virt. eigenvalues --    0.06111   0.06798   0.07695   0.07863   0.08018
 Alpha virt. eigenvalues --    0.08277   0.08783   0.09720   0.10112   0.10438
 Alpha virt. eigenvalues --    0.11120   0.11574   0.12036   0.12675   0.13406

  Beta  occ. eigenvalues --  -19.03669 -10.13211 -10.12873 -10.08212 -10.08208
  Beta  occ. eigenvalues --  -10.07811 -10.07801 -10.07750 -10.07425 -10.07258
  Beta  occ. eigenvalues --  -10.07097 -10.06919 -10.06841  -0.95275  -0.76009
  Beta  occ. eigenvalues --   -0.73726  -0.65986  -0.65602  -0.64836  -0.62771
  Beta  occ. eigenvalues --   -0.53728  -0.52730  -0.51258  -0.48360  -0.43789
  Beta  occ. eigenvalues --   -0.41936  -0.40501  -0.37469  -0.37385  -0.36097
  Beta  occ. eigenvalues --   -0.34487  -0.33444  -0.33073  -0.32482  -0.30355
  Beta  occ. eigenvalues --   -0.29088  -0.28568  -0.27170  -0.26952  -0.25982
  Beta  occ. eigenvalues --   -0.24363  -0.23426  -0.22013  -0.17512  -0.16301
  Beta  occ. eigenvalues --   -0.15249  -0.14392
  Beta virt. eigenvalues --    0.06491   0.07140   0.07652   0.07892   0.07981
  Beta virt. eigenvalues --    0.08754   0.08832   0.09222   0.10204   0.10589
  Beta virt. eigenvalues --    0.10709   0.11486   0.11745   0.12408   0.13016

 Mulliken charges and spin densities:
               1          2
     1  C    1.776019  -2.717041
     2  C   -0.962344   0.842231
     3  C   -0.399744   0.649850
     4  C    0.446439  -0.850639
     5  C   -0.032526  -0.245161
     6  C    0.270079  -0.268214
     7  O   -0.075930   0.012078
     8  C   -0.067332  -0.497712
     9  C   -0.145673   0.354131
    10  C    0.003013  -0.162106
    11  C    1.127717  -1.438456
    12  C   -0.055680  -0.089867
    13  C   -0.172150   0.315355
    14  H   -0.308335   0.462341
    15  H   -0.292852   0.461788
    16  H    0.000284   0.160234
    17  H    0.072224   0.086341
    18  H   -0.002131   0.214810
    19  H    0.123279   0.025428
    20  H   -0.076824   0.234456
    21  H   -0.510925   0.696818
    22  H   -0.491410   0.665339
    23  H    0.045143   0.134896
    24  H   -0.499362   0.678213
    25  H   -0.230979   0.379515
    26  H   -0.511925   0.693557
    27  H   -0.028074   0.201813
 Sum of Mulliken charges =  -1.00000   1.00000

 Dipole moment (field-independent basis, Debye):
    X=             -1.0934    Y=              0.3411    Z=              2.2050  Tot=              2.4848
 Quadrupole moment (field-independent basis, Debye-Ang):
   XX=           -163.7017   YY=           -121.4746   ZZ=           -111.2290
   XY=              0.5104   XZ=             -0.1374   YZ=              0.0887

 Summary of Natural Population Analysis:

                                       Natural Population
                Natural  -----------------------------------------------
    Atom  No    Charge         Core      Valence    Rydberg      Total
 -----------------------------------------------------------------------
      C    1   -0.20592      0.99962     2.19704    0.00927     3.20592
      C    2   -0.20520      0.99961     2.19564    0.00996     3.20520
      C    3    0.07672      0.99949     1.91081    0.01298     2.92328
      C    4   -0.22329      0.99959     2.21407    0.00963     3.22329
      C    5   -0.09395      0.99952     2.08421    0.01021     3.09395
      C    6   -0.09158      0.99953     2.08215    0.00990     3.09158
      O    7   -0.29626      0.99986     3.28653    0.00988     4.29626
      C    8    0.15221      0.99936     1.83430    0.01413     2.84779
      C    9   -0.12037      0.99951     2.11121    0.00966     3.12037
      C   10   -0.09800      0.99957     2.08792    0.01051     3.09800
      C   11   -0.10813      0.99956     2.09876    0.00981     3.10813
      C   12   -0.09780      0.99957     2.08776    0.01048     3.09780
      C   13   -0.11951      0.99950     2.11044    0.00957     3.11951
      H   14    0.10182      0.00000     0.39654    0.00164     0.39818
      H   15    0.10521      0.00000     0.39327    0.00152     0.39479
      H   16    0.10373      0.00000     0.39484    0.00143     0.39627
      H   17    0.10048      0.00000     0.39781    0.00171     0.39952
      H   18    0.09023      0.00000     0.40812    0.00165     0.40977
      H   19    0.10837      0.00000     0.38987    0.00176     0.39163
      H   20    0.10487      0.00000     0.39376    0.00137     0.39513
      H   21    0.09846      0.00000     0.40017    0.00137     0.40154
      H   22    0.09857      0.00000     0.39989    0.00154     0.40143
      H   23    0.10601      0.00000     0.39234    0.00164     0.39399
      H   24    0.10202      0.00000     0.39667    0.00131     0.39798
      H   25    0.10226      0.00000     0.39634    0.00139     0.39774
      H   26    0.10234      0.00000     0.39633    0.00134     0.39766
      H   27    0.10673      0.00000     0.39155    0.00172     0.39327
 =======================================================================
   * Total *   -0.00000     12.99428    33.84834    0.15738    47.00000

 Normal termination of Gaussian 16 at Sun Dec 13 12:45:13 2020.
