 Gaussian 16, Revision A.03,

 -----------------------------------------------------------
 # opt freq B3LYP/6-31G(d) empiricaldispersion=gd3bj scf=xqc
 -----------------------------------------------------------

 ------------------------------
 CID_141749074_JID_403_neutraal
 ------------------------------
 Symbolic Z-matrix:
 Charge =  0 Multiplicity = 1

 SCF Done:  E(RB3LYP) =  -480.957865584     A.U. after   14 cycles
 SCF Done:  E(RB3LYP) =  -480.962202952     A.U. after   11 cycles
 SCF Done:  E(RB3LYP) =  -480.963874270     A.U. after   11 cycles
 SCF Done:  E(RB3LYP) =  -480.965228453     A.U. after   14 cycles
 SCF Done:  E(RB3LYP) =  -480.965824069     A.U. after   11 cycles
 SCF Done:  E(RB3LYP) =  -480.966115193     A.U. after   11 cycles
 SCF Done:  E(RB3LYP) =  -480.966205324     A.U. after   10 cycles
 SCF Done:  E(RB3LYP) =  -480.966256966     A.U. after    9 cycles
 SCF Done:  E(RB3LYP) =  -480.966275366     A.U. after    9 cycles
 SCF Done:  E(RB3LYP) =  -480.966279642     A.U. after    9 cycles
 SCF Done:  E(RB3LYP) =  -480.966281805     A.U. after    8 cycles
 SCF Done:  E(RB3LYP) =  -480.966283913     A.U. after    9 cycles
 SCF Done:  E(RB3LYP) =  -480.966284657     A.U. after    8 cycles
 SCF Done:  E(RB3LYP) =  -480.966284906     A.U. after    8 cycles
 SCF Done:  E(RB3LYP) =  -480.966285047     A.U. after    7 cycles
 SCF Done:  E(RB3LYP) =  -480.966285081     A.U. after    6 cycles
 Optimization completed.
    -- Stationary point found.
 Normal termination of Gaussian 16 at Tue Dec  8 10:34:38 2020.

 --------------------------------------------------------------------
 #N Geom=AllCheck Guess=TCheck SCRF=Check GenChk RB3LYP/6-31G(d) Freq
 --------------------------------------------------------------------

 Structure from the checkpoint file:  "JID_403.chk"
 ------------------------------
 CID_141749074_JID_403_neutraal
 ------------------------------
 Charge =  0 Multiplicity = 1

 SCF Done:  E(RB3LYP) =  -480.966285081     A.U. after    1 cycles

  Exact polarizability: 111.068   7.242  81.514   2.481   3.544  78.393
 Approx polarizability: 131.814  14.608 121.350   6.405  11.580 111.939

                      1                      2                      3
                      A                      A                      A
 Frequencies --     37.3845                42.5506                62.8037
 Red. masses --      3.6534                 2.5281                 2.7786
 Frc consts  --      0.0030                 0.0027                 0.0065
 IR Inten    --      0.4274                 0.4136                 3.3649

                      4                      5                      6
                      A                      A                      A
 Frequencies --     75.9283               128.8953               158.0992
 Red. masses --      5.2616                 3.1661                 2.5655
 Frc consts  --      0.0179                 0.0310                 0.0378
 IR Inten    --      1.4438                 0.9933                 9.2356

                      7                      8                      9
                      A                      A                      A
 Frequencies --    186.6662               244.1859               267.8126
 Red. masses --      2.0623                 1.8237                 1.4589
 Frc consts  --      0.0423                 0.0641                 0.0616
 IR Inten    --      1.0912                 2.6738                37.8294

                     10                     11                     12
                      A                      A                      A
 Frequencies --    294.9804               338.8066               359.1643
 Red. masses --      1.9417                 1.8890                 3.0015
 Frc consts  --      0.0995                 0.1278                 0.2281
 IR Inten    --     35.1497                14.3324                 5.8647

                     13                     14                     15
                      A                      A                      A
 Frequencies --    431.4704               465.5887               523.1127
 Red. masses --      2.5936                 2.5795                 2.2939
 Frc consts  --      0.2845                 0.3294                 0.3698
 IR Inten    --      3.5386                 0.6106                27.5417

                     16                     17                     18
                      A                      A                      A
 Frequencies --    553.8833               582.2548               693.7395
 Red. masses --      2.3690                 1.2693                 3.1421
 Frc consts  --      0.4282                 0.2535                 0.8910
 IR Inten    --     36.2280                52.1543                 8.1399

                     19                     20                     21
                      A                      A                      A
 Frequencies --    793.0759               824.0841               842.1161
 Red. masses --      1.3818                 1.3934                 1.7279
 Frc consts  --      0.5121                 0.5575                 0.7219
 IR Inten    --      6.8083                 6.6373                25.0117

                     22                     23                     24
                      A                      A                      A
 Frequencies --    889.6413               893.2875               913.0016
 Red. masses --      2.0827                 2.2103                 1.3656
 Frc consts  --      0.9712                 1.0392                 0.6707
 IR Inten    --     45.2033                 5.6865                75.8661

                     25                     26                     27
                      A                      A                      A
 Frequencies --    930.6973               961.7810              1036.7676
 Red. masses --      2.7187                 2.6536                 2.2062
 Frc consts  --      1.3875                 1.4462                 1.3972
 IR Inten    --     34.4265                 2.0353                41.5351

                     28                     29                     30
                      A                      A                      A
 Frequencies --   1068.0804              1079.2945              1100.1296
 Red. masses --      1.8655                 2.6886                 1.6045
 Frc consts  --      1.2539                 1.8452                 1.1441
 IR Inten    --     13.2983               141.9993                 8.3336

                     31                     32                     33
                      A                      A                      A
 Frequencies --   1116.3389              1130.9267              1161.3939
 Red. masses --      2.3895                 2.3108                 2.0003
 Frc consts  --      1.7545                 1.7413                 1.5896
 IR Inten    --     45.4139                21.1577                28.7357

                     34                     35                     36
                      A                      A                      A
 Frequencies --   1203.9035              1220.5812              1278.0444
 Red. masses --      1.4950                 1.7922                 1.1686
 Frc consts  --      1.2766                 1.5732                 1.1246
 IR Inten    --      0.1315                11.8978                12.9227

                     37                     38                     39
                      A                      A                      A
 Frequencies --   1300.4285              1323.3722              1345.9197
 Red. masses --      1.1962                 1.1972                 1.3190
 Frc consts  --      1.1918                 1.2353                 1.4077
 IR Inten    --     15.0983                 4.6406                51.5108

                     40                     41                     42
                      A                      A                      A
 Frequencies --   1366.4395              1379.6828              1392.2783
 Red. masses --      1.1432                 1.3639                 1.5872
 Frc consts  --      1.2576                 1.5297                 1.8127
 IR Inten    --      4.7617               130.2446               113.5620

                     43                     44                     45
                      A                      A                      A
 Frequencies --   1421.0401              1432.2180              1435.9599
 Red. masses --      1.4932                 1.2944                 1.2536
 Frc consts  --      1.7766                 1.5644                 1.5230
 IR Inten    --      4.1719                 2.6764                 3.8803

                     46                     47                     48
                      A                      A                      A
 Frequencies --   1452.9731              1513.6608              1515.8003
 Red. masses --      1.4879                 1.0901                 1.0687
 Frc consts  --      1.8508                 1.4716                 1.4468
 IR Inten    --      8.6226                 3.1915                 0.9690

                     49                     50                     51
                      A                      A                      A
 Frequencies --   1526.0917              1527.6135              1534.3159
 Red. masses --      1.0883                 1.0414                 1.0884
 Frc consts  --      1.4934                 1.4318                 1.5096
 IR Inten    --      1.4033                 4.8334                 6.1075

                     52                     53                     54
                      A                      A                      A
 Frequencies --   1536.3429              1693.6185              1793.4871
 Red. masses --      1.0697                 1.0886                 6.4550
 Frc consts  --      1.4876                 1.8397                12.2334
 IR Inten    --      3.1061                43.4133                29.7433

                     55                     56                     57
                      A                      A                      A
 Frequencies --   2974.5992              3017.2868              3042.9152
 Red. masses --      1.0721                 1.0714                 1.0351
 Frc consts  --      5.5892                 5.7469                 5.6470
 IR Inten    --     75.4582                43.0634                39.2474

                     58                     59                     60
                      A                      A                      A
 Frequencies --   3049.8532              3054.5027              3076.5857
 Red. masses --      1.0580                 1.0617                 1.0886
 Frc consts  --      5.7982                 5.8362                 6.0711
 IR Inten    --     49.1534                 9.1509                42.4052

                     61                     62                     63
                      A                      A                      A
 Frequencies --   3094.6142              3103.0719              3112.9376
 Red. masses --      1.0943                 1.1095                 1.0989
 Frc consts  --      6.1745                 6.2943                 6.2739
 IR Inten    --      4.0276                24.0021                44.3716

                     64                     65                     66
                      A                      A                      A
 Frequencies --   3115.1642              3119.0413              3170.7643
 Red. masses --      1.1052                 1.1023                 1.0888
 Frc consts  --      6.3193                 6.3181                 6.4496
 IR Inten    --     22.1131                42.3633                17.4583

                     67                     68                     69
                      A                      A                      A
 Frequencies --   3476.4255              3558.7971              3652.8124
 Red. masses --      1.0499                 1.0922                 1.0648
 Frc consts  --      7.4760                 8.1497                 8.3709
 IR Inten    --      0.7967                 0.1521               121.2749

 - Thermochemistry -
 -------------------
 Temperature   298.150 Kelvin.  Pressure   1.00000 Atm.
 Atom     1 has atomic number  6 and mass  12.00000

 Molecular mass:   145.11028 amu.
 Principal axes and moments of inertia in atomic units:
                           1         2         3
     Eigenvalues --   799.513263134.532903420.11460
           X            0.99995   0.01003  -0.00161
           Y           -0.01007   0.99951  -0.02959
           Z            0.00131   0.02961   0.99956
 This molecule is an asymmetric top.
 Rotational symmetry number  1.
 Warning -- assumption of classical behavior for rotation
           may cause significant error
 Rotational temperatures (Kelvin)      0.10833     0.02763     0.02532
 Rotational constants (GHZ):           2.25730     0.57576     0.52768
 Zero-point vibrational energy     586176.7 (Joules/Mol)
                                  140.09959 (Kcal/Mol)
 Warning -- explicit consideration of  17 degrees of freedom as
           vibrations may cause significant error
 Vibrational temperatures:     53.79    61.22    90.36   109.24   185.45
          (Kelvin)            227.47   268.57   351.33   385.32   424.41
                              487.47   516.76   620.79   669.88   752.64
                              796.91   837.73   998.14  1141.06  1185.67
                             1211.62  1280.00  1285.24  1313.61  1339.07
                             1383.79  1491.68  1536.73  1552.86  1582.84
                             1606.16  1627.15  1670.99  1732.15  1756.14
                             1838.82  1871.03  1904.04  1936.48  1966.00
                             1985.06  2003.18  2044.56  2060.64  2066.03
                             2090.50  2177.82  2180.90  2195.71  2197.90
                             2207.54  2210.45  2436.74  2580.43  4279.78
                             4341.20  4378.08  4388.06  4394.75  4426.52
                             4452.46  4464.63  4478.82  4482.03  4487.60
                             4562.02  5001.80  5120.32  5255.58

 Zero-point correction=                           0.223263 (Hartree/Particle)
 Thermal correction to Energy=                    0.235414
 Thermal correction to Enthalpy=                  0.236358
 Thermal correction to Gibbs Free Energy=         0.183713
 Sum of electronic and zero-point Energies=           -480.743022
 Sum of electronic and thermal Energies=              -480.730871
 Sum of electronic and thermal Enthalpies=            -480.729927
 Sum of electronic and thermal Free Energies=         -480.782572

                     E (Thermal)             CV                S
                      KCal/Mol        Cal/Mol-Kelvin    Cal/Mol-Kelvin
 Total                  147.724             43.227            110.801
 Electronic               0.000              0.000              0.000
 Translational            0.889              2.981             40.828
 Rotational               0.889              2.981             30.528
 Vibrational            145.947             37.265             39.445
 Vibration     1          0.594              1.982              5.393
 Vibration     2          0.595              1.980              5.137
 Vibration     3          0.597              1.972              4.367
 Vibration     4          0.599              1.965              3.993
 Vibration     5          0.611              1.924              2.962
 Vibration     6          0.621              1.894              2.572
 Vibration     7          0.632              1.858              2.261
 Vibration     8          0.660              1.772              1.772
 Vibration     9          0.673              1.732              1.610
 Vibration    10          0.689              1.683              1.445
 Vibration    11          0.719              1.598              1.218
 Vibration    12          0.734              1.556              1.126
 Vibration    13          0.793              1.402              0.854
 Vibration    14          0.823              1.326              0.750
 Vibration    15          0.878              1.199              0.603
 Vibration    16          0.909              1.131              0.536
 Vibration    17          0.939              1.070              0.481

                           ! Non-Optimized Parameters !
 Normal termination of Gaussian 16 at Tue Dec  8 10:39:32 2020.

 ----------------------------------------------------------------------
 # B3LYP/6-311++G(d,p) empiricaldispersion=gd3bj scf=xqc pop=npa geom=c
 heck
 ----------------------------------------------------------------------

 --------------------------------------
 CID_141749074_JID_403_Energie_neutraal
 --------------------------------------
 Structure from the checkpoint file:  "JID_403.chk"
 Charge =  0 Multiplicity = 1

 SCF Done:  E(RB3LYP) =  -481.125484123     A.U. after   14 cycles
 Normal termination of Gaussian 16 at Tue Dec  8 10:43:05 2020.

 ----------------------------------------------------------------------
 # B3LYP/6-311++G(d,p) empiricaldispersion=gd3bj scf=xqc pop=npa geom=c
 heck
 ----------------------------------------------------------------------

 ------------------------------------
 CID_141749074_JID_403_Energie_kation
 ------------------------------------
 Structure from the checkpoint file:  "JID_403.chk"
 Charge =  1 Multiplicity = 2

 SCF Done:  E(UB3LYP) =  -480.826116302     A.U. after   23 cycles
 Normal termination of Gaussian 16 at Tue Dec  8 10:50:28 2020.
 Gaussian 16:  ES64L-G16RevA.03 25-Dec-2016

 ----------------------------------------------------------------------
 # B3LYP/6-311++G(d,p) empiricaldispersion=gd3bj scf=xqc pop=npa geom=c
 heck
 ----------------------------------------------------------------------

 -----------------------------------
 CID_141749074_JID_403_Energie_anion
 -----------------------------------
 Structure from the checkpoint file:  "JID_403.chk"
 Charge = -1 Multiplicity = 2

                         Standard orientation:
 ---------------------------------------------------------------------
 Center     Atomic      Atomic             Coordinates (Angstroms)
 Number     Number       Type             X           Y           Z
 ---------------------------------------------------------------------
      1          6           0        3.563359    1.519497   -0.459100
      2          6           0        3.210753    0.162973    0.170988
      3          6           0        1.812827    0.135051    0.718999
      4          6           0        0.855619   -0.721034    0.346027
      5          6           0       -0.533743   -0.754634    0.927748
      6          8           0       -1.492321   -1.003456   -0.112397
      7          6           0       -1.745782    0.138312   -0.947101
      8          6           0       -3.117357    0.720285   -0.637523
      9          7           0       -3.186178    1.119711    0.771574
     10          8           0        1.067095   -1.694307   -0.596326
     11          1           0        2.898496    1.739979   -1.301535
     12          1           0        4.596259    1.529954   -0.826010
     13          1           0        3.457657    2.333175    0.268865
     14          1           0        3.325383   -0.633798   -0.570722
     15          1           0        3.929684   -0.051908    0.975873
     16          1           0        1.552022    0.870936    1.477210
     17          1           0       -0.645798   -1.606407    1.609965
     18          1           0       -0.763292    0.169469    1.467281
     19          1           0       -0.965687    0.892837   -0.794429
     20          1           0       -1.703606   -0.197499   -1.989919
     21          1           0       -3.260544    1.611049   -1.261837
     22          1           0       -3.888980   -0.011985   -0.932408
     23          1           0       -4.058633    1.613672    0.948501
     24          1           0       -3.219677    0.275683    1.340779
     25          1           0        0.177718   -1.993721   -0.863080
 ---------------------------------------------------------------------

 SCF Done:  E(UB3LYP) =  -481.110174615     A.U. after   30 cycles

 The electronic state is 2-A.
 Alpha  occ. eigenvalues --  -19.04523 -19.03404 -14.18299 -10.12507 -10.12468
 Alpha  occ. eigenvalues --  -10.11007 -10.08297 -10.07280 -10.06550 -10.06007
 Alpha  occ. eigenvalues --   -0.96449  -0.93131  -0.77324  -0.70185  -0.65950
 Alpha  occ. eigenvalues --   -0.62615  -0.57469  -0.52031  -0.48989  -0.46976
 Alpha  occ. eigenvalues --   -0.42019  -0.40136  -0.39141  -0.37610  -0.36390
 Alpha  occ. eigenvalues --   -0.34626  -0.34091  -0.30645  -0.29456  -0.29315
 Alpha  occ. eigenvalues --   -0.28435  -0.27818  -0.26633  -0.25555  -0.25100
 Alpha  occ. eigenvalues --   -0.24116  -0.22091  -0.17699  -0.13642  -0.12748
 Alpha  occ. eigenvalues --    0.04667
 Alpha virt. eigenvalues --    0.06318   0.07666   0.07960   0.08933   0.09266
 Alpha virt. eigenvalues --    0.09948   0.10286   0.11184   0.11891   0.11927
 Alpha virt. eigenvalues --    0.12166   0.13020   0.13484   0.14440   0.15569

  Beta  occ. eigenvalues --  -19.04504 -19.03394 -14.18245 -10.12494 -10.12462
  Beta  occ. eigenvalues --  -10.10990 -10.08259 -10.07269 -10.06528 -10.06002
  Beta  occ. eigenvalues --   -0.96415  -0.93108  -0.77238  -0.70163  -0.65912
  Beta  occ. eigenvalues --   -0.62560  -0.57411  -0.51971  -0.48907  -0.46939
  Beta  occ. eigenvalues --   -0.41979  -0.40100  -0.39085  -0.37565  -0.36357
  Beta  occ. eigenvalues --   -0.34584  -0.34033  -0.30621  -0.29409  -0.29264
  Beta  occ. eigenvalues --   -0.28405  -0.27776  -0.26576  -0.25522  -0.25072
  Beta  occ. eigenvalues --   -0.24091  -0.22061  -0.17671  -0.13583  -0.12729
  Beta virt. eigenvalues --    0.06594   0.07450   0.08243   0.08773   0.09382
  Beta virt. eigenvalues --    0.09533   0.10515   0.10811   0.11579   0.12071
  Beta virt. eigenvalues --    0.12292   0.12472   0.13482   0.13751   0.14859

 Mulliken charges and spin densities:
               1          2
     1  C    0.180316  -0.774904
     2  C   -0.471261   0.193081
     3  C    0.289748  -0.209925
     4  C   -0.335869   0.442275
     5  C    0.669588  -1.212697
     6  O   -0.178683   0.062355
     7  C   -0.775380   0.585711
     8  C    2.305447  -2.713493
     9  N   -0.487660   0.107824
    10  O   -0.249508   0.029770
    11  H   -0.035893   0.178537
    12  H   -0.208196   0.329202
    13  H   -0.037457   0.171012
    14  H    0.023151   0.152931
    15  H   -0.012260   0.129422
    16  H   -0.144183   0.301040
    17  H   -0.156454   0.331127
    18  H    0.130174   0.040530
    19  H    0.333314  -0.183925
    20  H   -0.332451   0.486219
    21  H   -0.612528   0.762962
    22  H   -0.524817   0.675504
    23  H   -0.371214   0.627615
    24  H   -0.048124   0.263139
    25  H    0.050199   0.224688
 Sum of Mulliken charges =  -1.00000   1.00000

 Dipole moment (field-independent basis, Debye):
    X=              5.8034    Y=             -2.4017    Z=              0.8499  Tot=              6.3380
 Quadrupole moment (field-independent basis, Debye-Ang):
   XX=           -149.6066   YY=            -98.6868   ZZ=            -94.2893
   XY=              7.4901   XZ=              1.0113   YZ=             -1.8251

 Summary of Natural Population Analysis:

                                       Natural Population
                Natural  -----------------------------------------------
    Atom  No    Charge         Core      Valence    Rydberg      Total
 -----------------------------------------------------------------------
      C    1   -0.27958      0.99967     2.27593    0.00398     3.27958
      C    2   -0.20488      0.99963     2.19696    0.00829     3.20488
      C    3   -0.13636      0.99947     2.12744    0.00946     3.13636
      C    4    0.14201      0.99938     1.84483    0.01378     2.85799
      C    5   -0.03642      0.99953     2.02557    0.01133     3.03642
      O    6   -0.31434      0.99989     3.30391    0.01054     4.31434
      C    7   -0.01722      0.99957     2.00346    0.01419     3.01722
      C    8   -0.09802      0.99964     2.08622    0.01217     3.09802
      N    9   -0.42708      0.99977     2.91573    0.01157     3.92708
      O   10   -0.35400      0.99988     3.34657    0.00755     4.35400
      H   11    0.09810      0.00000     0.40053    0.00137     0.40190
      H   12    0.09439      0.00000     0.40428    0.00134     0.40561
      H   13    0.09369      0.00000     0.40476    0.00154     0.40631
      H   14    0.10458      0.00000     0.39374    0.00168     0.39542
      H   15    0.09477      0.00000     0.40375    0.00148     0.40523
      H   16    0.09775      0.00000     0.40098    0.00127     0.40225
      H   17    0.09434      0.00000     0.40414    0.00153     0.40566
      H   18    0.10019      0.00000     0.39789    0.00192     0.39981
      H   19    0.08705      0.00000     0.41076    0.00219     0.41295
      H   20    0.08887      0.00000     0.40942    0.00172     0.41113
      H   21    0.09389      0.00000     0.40396    0.00214     0.40611
      H   22    0.08175      0.00000     0.41503    0.00322     0.41825
      H   23    0.18130      0.00000     0.31357    0.00513     0.31870
      H   24    0.17423      0.00000     0.32296    0.00281     0.32577
      H   25    0.24101      0.00000     0.25519    0.00380     0.25899
 =======================================================================
   * Total *    0.00000      9.99642    29.86757    0.13601    40.00000

 Normal termination of Gaussian 16 at Tue Dec  8 10:56:05 2020.
