 Gaussian 16, Revision A.03,

 -----------------------------------------------------------
 # opt freq B3LYP/6-31G(d) empiricaldispersion=gd3bj scf=xqc
 -----------------------------------------------------------

 ------------------------------
 CID_54046419_JID_4738_neutraal
 ------------------------------
 Symbolic Z-matrix:
 Charge =  0 Multiplicity = 1

 SCF Done:  E(RB3LYP) =  -614.799356299     A.U. after   14 cycles
 SCF Done:  E(RB3LYP) =  -614.804485448     A.U. after   12 cycles
 SCF Done:  E(RB3LYP) =  -614.805618839     A.U. after   12 cycles
 SCF Done:  E(RB3LYP) =  -614.805996145     A.U. after   12 cycles
 SCF Done:  E(RB3LYP) =  -614.806195554     A.U. after   11 cycles
 SCF Done:  E(RB3LYP) =  -614.806266179     A.U. after   11 cycles
 SCF Done:  E(RB3LYP) =  -614.806308499     A.U. after   11 cycles
 SCF Done:  E(RB3LYP) =  -614.806341464     A.U. after   11 cycles
 SCF Done:  E(RB3LYP) =  -614.806346297     A.U. after   12 cycles
 SCF Done:  E(RB3LYP) =  -614.806408721     A.U. after   12 cycles
 SCF Done:  E(RB3LYP) =  -614.807270650     A.U. after   13 cycles
 SCF Done:  E(RB3LYP) =  -614.807303583     A.U. after   10 cycles
 SCF Done:  E(RB3LYP) =  -614.807303856     A.U. after    7 cycles
 SCF Done:  E(RB3LYP) =  -614.807303924     A.U. after    6 cycles
 SCF Done:  E(RB3LYP) =  -614.807303925     A.U. after    6 cycles
 Optimization completed.
    -- Stationary point found.
 Normal termination of Gaussian 16 at Thu Dec 10 10:48:43 2020.

 --------------------------------------------------------------------
 #N Geom=AllCheck Guess=TCheck SCRF=Check GenChk RB3LYP/6-31G(d) Freq
 --------------------------------------------------------------------

 Structure from the checkpoint file:  "JID_4738.chk"
 ------------------------------
 CID_54046419_JID_4738_neutraal
 ------------------------------
 Charge =  0 Multiplicity = 1

 SCF Done:  E(RB3LYP) =  -614.807303925     A.U. after    1 cycles

  Exact polarizability: 158.711   2.155 128.293  15.585  -0.681  98.959
 Approx polarizability: 211.173   5.965 208.296  28.290  -0.148 140.901

                      1                      2                      3
                      A                      A                      A
 Frequencies --     30.6886                38.0793                46.0418
 Red. masses --      3.3681                 3.7482                 3.4607
 Frc consts  --      0.0019                 0.0032                 0.0043
 IR Inten    --      0.1010                 0.3109                 0.7780

                      4                      5                      6
                      A                      A                      A
 Frequencies --     67.6795                94.0722               116.7007
 Red. masses --      1.0858                 2.2846                 1.8209
 Frc consts  --      0.0029                 0.0119                 0.0146
 IR Inten    --      0.5687                 0.0181                 0.5771

                      7                      8                      9
                      A                      A                      A
 Frequencies --    163.6601               198.1768               201.9571
 Red. masses --      4.1590                 3.1296                 2.4145
 Frc consts  --      0.0656                 0.0724                 0.0580
 IR Inten    --      4.2062                 0.5410                 0.6228

                     10                     11                     12
                      A                      A                      A
 Frequencies --    213.2624               232.3356               252.9734
 Red. masses --      3.2246                 1.1025                 2.0083
 Frc consts  --      0.0864                 0.0351                 0.0757
 IR Inten    --      0.2728                 0.0151                 0.7010

                     13                     14                     15
                      A                      A                      A
 Frequencies --    297.9939               318.2331               332.2837
 Red. masses --      2.8124                 1.9492                 2.9399
 Frc consts  --      0.1471                 0.1163                 0.1913
 IR Inten    --      0.9283                 0.5915                 1.8586

                     16                     17                     18
                      A                      A                      A
 Frequencies --    391.2404               455.0203               478.0540
 Red. masses --      2.5678                 3.4340                 2.7180
 Frc consts  --      0.2316                 0.4189                 0.3660
 IR Inten    --      6.6595                 0.5973                 2.8771

                     19                     20                     21
                      A                      A                      A
 Frequencies --    511.0220               549.9787               613.4807
 Red. masses --      2.5849                 5.1166                 3.6499
 Frc consts  --      0.3977                 0.9119                 0.8094
 IR Inten    --      0.4113                 5.4468                 8.6274

                     22                     23                     24
                      A                      A                      A
 Frequencies --    621.5985               632.5982               757.1753
 Red. masses --      6.4017                 3.6241                 1.6516
 Frc consts  --      1.4574                 0.8545                 0.5579
 IR Inten    --      4.8854                 1.6314                 4.7199

                     25                     26                     27
                      A                      A                      A
 Frequencies --    767.4006               788.3063               808.9925
 Red. masses --      5.6028                 1.3836                 8.9872
 Frc consts  --      1.9440                 0.5066                 3.4655
 IR Inten    --      3.3791                 2.0544                16.3910

                     28                     29                     30
                      A                      A                      A
 Frequencies --    828.6594               830.0119               905.5992
 Red. masses --      1.2190                 1.3514                 2.0874
 Frc consts  --      0.4932                 0.5485                 1.0086
 IR Inten    --     18.5507                 1.2699                 2.8469

                     31                     32                     33
                      A                      A                      A
 Frequencies --    951.2488               986.7023               995.2920
 Red. masses --      2.8482                 1.3745                 1.8563
 Frc consts  --      1.5185                 0.7884                 1.0834
 IR Inten    --      7.6098                 4.7457                 4.0473

                     34                     35                     36
                      A                      A                      A
 Frequencies --    995.9460              1012.6302              1032.2856
 Red. masses --      1.4987                 6.4028                 1.8748
 Frc consts  --      0.8758                 3.8683                 1.1771
 IR Inten    --      0.7468                 1.2020                 3.8421

                     37                     38                     39
                      A                      A                      A
 Frequencies --   1038.1352              1049.9247              1072.3929
 Red. masses --      1.4517                 2.0528                 2.3024
 Frc consts  --      0.9218                 1.3332                 1.5600
 IR Inten    --      3.6832                29.2403                 4.5776

                     40                     41                     42
                      A                      A                      A
 Frequencies --   1074.5071              1092.5771              1135.0927
 Red. masses --      1.6018                 3.3977                 1.5283
 Frc consts  --      1.0896                 2.3897                 1.1602
 IR Inten    --      6.3192                95.8143                14.9177

                     43                     44                     45
                      A                      A                      A
 Frequencies --   1150.8657              1191.9526              1203.0711
 Red. masses --      1.9853                 2.0678                 2.1657
 Frc consts  --      1.5492                 1.7309                 1.8468
 IR Inten    --      0.6090                 0.0749                 1.6057

                     46                     47                     48
                      A                      A                      A
 Frequencies --   1279.0837              1292.1787              1296.9343
 Red. masses --      3.6118                 2.0778                 1.5671
 Frc consts  --      3.4815                 2.0441                 1.5531
 IR Inten    --      9.6617                23.4801                12.6919

                     49                     50                     51
                      A                      A                      A
 Frequencies --   1304.6139              1320.0068              1351.9097
 Red. masses --      1.3350                 1.1552                 1.3050
 Frc consts  --      1.3387                 1.1860                 1.4053
 IR Inten    --     12.6436                 5.3324                52.1748

                     52                     53                     54
                      A                      A                      A
 Frequencies --   1375.8998              1379.8060              1392.9082
 Red. masses --      1.4528                 1.7303                 1.5123
 Frc consts  --      1.6204                 1.9409                 1.7287
 IR Inten    --      6.7535                52.1279                38.8672

                     55                     56                     57
                      A                      A                      A
 Frequencies --   1415.4662              1432.5637              1434.4585
 Red. masses --      1.5820                 1.4576                 1.2744
 Frc consts  --      1.8675                 1.7624                 1.5450
 IR Inten    --    164.7482                 5.3564                 3.4820

                     58                     59                     60
                      A                      A                      A
 Frequencies --   1441.7534              1447.4324              1475.0066
 Red. masses --      1.2524                 1.2641                 2.2924
 Frc consts  --      1.5339                 1.5603                 2.9385
 IR Inten    --      4.0701                 6.6983               156.6719

                     61                     62                     63
                      A                      A                      A
 Frequencies --   1495.9484              1504.8765              1513.1239
 Red. masses --      2.7450                 1.0456                 1.1272
 Frc consts  --      3.6193                 1.3951                 1.5205
 IR Inten    --    152.7923                 6.6656                15.9481

                     64                     65                     66
                      A                      A                      A
 Frequencies --   1516.1118              1523.1400              1529.5108
 Red. masses --      1.0628                 1.0590                 1.1430
 Frc consts  --      1.4393                 1.4475                 1.5755
 IR Inten    --      3.4441                 4.2513                22.1189

                     67                     68                     69
                      A                      A                      A
 Frequencies --   1532.1189              1535.9665              1537.0123
 Red. masses --      1.1331                 1.0547                 1.0479
 Frc consts  --      1.5671                 1.4660                 1.4586
 IR Inten    --     63.1624                 7.9566                 4.4037

                     70                     71                     72
                      A                      A                      A
 Frequencies --   1546.6001              1626.5646              1636.1862
 Red. masses --      1.0721                 6.3672                 5.8129
 Frc consts  --      1.5110                 9.9252                 9.1687
 IR Inten    --      3.0828               180.8210               268.1688

                     73                     74                     75
                      A                      A                      A
 Frequencies --   3018.3482              3038.1907              3045.3296
 Red. masses --      1.0811                 1.0675                 1.0389
 Frc consts  --      5.8029                 5.8058                 5.6765
 IR Inten    --     13.4370                38.2530                27.5940

                     76                     77                     78
                      A                      A                      A
 Frequencies --   3053.0757              3058.3440              3059.4148
 Red. masses --      1.0409                 1.0557                 1.0363
 Frc consts  --      5.7164                 5.8178                 5.7148
 IR Inten    --     14.4765                30.7210                 9.3291

                     79                     80                     81
                      A                      A                      A
 Frequencies --   3076.7472              3081.4202              3088.4455
 Red. masses --      1.0957                 1.0653                 1.1006
 Frc consts  --      6.1110                 5.9596                 6.1855
 IR Inten    --     22.0662                54.0462                 9.3400

                     82                     83                     84
                      A                      A                      A
 Frequencies --   3110.7669              3117.0750              3117.3721
 Red. masses --      1.1018                 1.1021                 1.1016
 Frc consts  --      6.2821                 6.3090                 6.3076
 IR Inten    --     34.9386                53.7734                60.2860

                     85                     86                     87
                      A                      A                      A
 Frequencies --   3119.3582              3123.0561              3146.0727
 Red. masses --      1.1005                 1.1022                 1.1032
 Frc consts  --      6.3093                 6.3337                 6.4334
 IR Inten    --     10.4509                39.9083                18.0303

                     88                     89                     90
                      A                      A                      A
 Frequencies --   3160.1162              3170.7034              3227.0332
 Red. masses --      1.1004                 1.0906                 1.0940
 Frc consts  --      6.4745                 6.4598                 6.7124
 IR Inten    --      9.5959                30.4337                 9.8481

 - Thermochemistry -
 -------------------
 Temperature   298.150 Kelvin.  Pressure   1.00000 Atm.
 Atom     1 has atomic number  6 and mass  12.00000

 Molecular mass:   194.14191 amu.
 Principal axes and moments of inertia in atomic units:
                           1         2         3
     Eigenvalues --  1617.175854717.894805094.89026
           X            0.99997   0.00724  -0.00013
           Y           -0.00724   0.99933  -0.03575
           Z           -0.00013   0.03575   0.99936
 This molecule is an asymmetric top.
 Rotational symmetry number  1.
 Warning -- assumption of classical behavior for rotation
           may cause significant error
 Rotational temperatures (Kelvin)      0.05356     0.01836     0.01700
 Rotational constants (GHZ):           1.11598     0.38253     0.35423
 Zero-point vibrational energy     738538.2 (Joules/Mol)
                                  176.51487 (Kcal/Mol)
 Warning -- explicit consideration of  21 degrees of freedom as
           vibrations may cause significant error
 Vibrational temperatures:     44.15    54.79    66.24    97.38   135.35
          (Kelvin)            167.91   235.47   285.13   290.57   306.84
                              334.28   363.97   428.75   457.87   478.08
                              562.91   654.67   687.81   735.25   791.30
                              882.66   894.34   910.17  1089.41  1104.12
                             1134.20  1163.96  1192.26  1194.20  1302.96
                             1368.63  1419.64  1432.00  1432.94  1456.95
                             1485.23  1493.64  1510.61  1542.93  1545.98
                             1571.97  1633.15  1655.84  1714.95  1730.95
                             1840.32  1859.16  1866.00  1877.05  1899.20
                             1945.10  1979.61  1985.23  2004.08  2036.54
                             2061.14  2063.87  2074.36  2082.53  2122.21
                             2152.34  2165.18  2177.05  2181.35  2191.46
                             2200.62  2204.38  2209.91  2211.42  2225.21
                             2340.26  2354.11  4342.73  4371.28  4381.55
                             4392.69  4400.27  4401.82  4426.75  4433.48
                             4443.58  4475.70  4484.78  4485.20  4488.06
                             4493.38  4526.50  4546.70  4561.93  4642.98

 Zero-point correction=                           0.281294 (Hartree/Particle)
 Thermal correction to Energy=                    0.296253
 Thermal correction to Enthalpy=                  0.297197
 Thermal correction to Gibbs Free Energy=         0.237801
 Sum of electronic and zero-point Energies=           -614.526010
 Sum of electronic and thermal Energies=              -614.511051
 Sum of electronic and thermal Enthalpies=            -614.510107
 Sum of electronic and thermal Free Energies=         -614.569503

                     E (Thermal)             CV                S
                      KCal/Mol        Cal/Mol-Kelvin    Cal/Mol-Kelvin
 Total                  185.902             54.822            125.009
 Electronic               0.000              0.000              0.000
 Translational            0.889              2.981             41.696
 Rotational               0.889              2.981             32.030
 Vibrational            184.124             48.860             51.283
 Vibration     1          0.594              1.984              5.784
 Vibration     2          0.594              1.982              5.357
 Vibration     3          0.595              1.979              4.981
 Vibration     4          0.598              1.970              4.220
 Vibration     5          0.603              1.953              3.574
 Vibration     6          0.608              1.936              3.154
 Vibration     7          0.623              1.887              2.507
 Vibration     8          0.637              1.842              2.150
 Vibration     9          0.639              1.837              2.115
 Vibration    10          0.644              1.821              2.016
 Vibration    11          0.653              1.791              1.861
 Vibration    12          0.664              1.758              1.710
 Vibration    13          0.691              1.677              1.428
 Vibration    14          0.705              1.639              1.319
 Vibration    15          0.714              1.611              1.249
 Vibration    16          0.759              1.489              0.995
 Vibration    17          0.813              1.350              0.781
 Vibration    18          0.835              1.299              0.715
 Vibration    19          0.866              1.226              0.631
 Vibration    20          0.905              1.140              0.544
 Vibration    21          0.973              1.003              0.427

 Optimization completed.
    -- Stationary point found.
 Normal termination of Gaussian 16 at Thu Dec 10 10:57:32 2020.

 ----------------------------------------------------------------------
 # B3LYP/6-311++G(d,p) empiricaldispersion=gd3bj scf=xqc pop=npa geom=c
 heck
 ----------------------------------------------------------------------

 --------------------------------------
 CID_54046419_JID_4738_Energie_neutraal
 --------------------------------------
 Structure from the checkpoint file:  "JID_4738.chk"
 Charge =  0 Multiplicity = 1

 SCF Done:  E(RB3LYP) =  -614.974152797     A.U. after   14 cycles
 Normal termination of Gaussian 16 at Thu Dec 10 11:01:07 2020.

 ----------------------------------------------------------------------
 # B3LYP/6-311++G(d,p) empiricaldispersion=gd3bj scf=xqc pop=npa geom=c
 heck
 ----------------------------------------------------------------------

 ------------------------------------
 CID_54046419_JID_4738_Energie_kation
 ------------------------------------
 Structure from the checkpoint file:  "JID_4738.chk"
 Charge =  1 Multiplicity = 2

 SCF Done:  E(UB3LYP) =  -614.655763890     A.U. after   25 cycles
 Normal termination of Gaussian 16 at Thu Dec 10 11:09:14 2020.
 Gaussian 16:  ES64L-G16RevA.03 25-Dec-2016

 ----------------------------------------------------------------------
 # B3LYP/6-311++G(d,p) empiricaldispersion=gd3bj scf=xqc pop=npa geom=c
 heck
 ----------------------------------------------------------------------

 -----------------------------------
 CID_54046419_JID_4738_Energie_anion
 -----------------------------------
 Structure from the checkpoint file:  "JID_4738.chk"
 Charge = -1 Multiplicity = 2

                         Standard orientation:
 ---------------------------------------------------------------------
 Center     Atomic      Atomic             Coordinates (Angstroms)
 Number     Number       Type             X           Y           Z
 ---------------------------------------------------------------------
      1          6           0       -2.649531   -0.035765    2.329208
      2          6           0       -1.620235   -0.045199    1.195978
      3          6           0       -2.130328   -0.694838   -0.102540
      4          6           0       -3.420912   -0.052372   -0.655021
      5          6           0       -3.338001    1.452951   -0.935009
      6          6           0       -1.053713   -0.709935   -1.191392
      7          8           0        0.088901   -1.485598   -0.779163
      8          6           0        1.213767   -0.863079   -0.395295
      9          7           0        2.185401   -1.708204   -0.015945
     10          6           0        3.317706   -1.126174    0.374434
     11          6           0        3.501985    0.257001    0.394995
     12          6           0        2.424153    1.036698   -0.023110
     13          7           0        1.273515    0.469528   -0.420561
     14          6           0        2.472476    2.539117   -0.051764
     15          1           0       -3.509856    0.601758    2.097378
     16          1           0       -2.204249    0.337934    3.257837
     17          1           0       -3.029173   -1.046136    2.525708
     18          1           0       -1.277959    0.976024    0.989097
     19          1           0       -0.734075   -0.597302    1.528480
     20          1           0       -2.364336   -1.745418    0.124428
     21          1           0       -3.703181   -0.576364   -1.578633
     22          1           0       -4.236426   -0.239352    0.053170
     23          1           0       -2.556922    1.693135   -1.664622
     24          1           0       -4.287936    1.821745   -1.337155
     25          1           0       -3.122764    2.021078   -0.023711
     26          1           0       -1.429789   -1.217555   -2.085161
     27          1           0       -0.730351    0.297065   -1.455683
     28          1           0        4.116101   -1.798154    0.686395
     29          1           0        4.435263    0.701882    0.720494
     30          1           0        3.442670    2.919552    0.278573
     31          1           0        2.274586    2.903124   -1.065876
     32          1           0        1.690581    2.952067    0.595241
 ---------------------------------------------------------------------

 SCF Done:  E(UB3LYP) =  -614.964684091     A.U. after   33 cycles
 SCF Done:  E(UB3LYP) =  -614.964684091     a.u. after    1 cycles

 The electronic state is 2-A.
 Alpha  occ. eigenvalues --  -19.03510 -14.17095 -14.16836 -10.16187 -10.10555
 Alpha  occ. eigenvalues --  -10.08627 -10.07753 -10.06754 -10.06480 -10.05719
 Alpha  occ. eigenvalues --  -10.05574 -10.05547 -10.05541 -10.04868  -0.96525
 Alpha  occ. eigenvalues --   -0.84046  -0.76131  -0.71478  -0.66656  -0.64459
 Alpha  occ. eigenvalues --   -0.62217  -0.59990  -0.55518  -0.51931  -0.50684
 Alpha  occ. eigenvalues --   -0.49363  -0.44284  -0.42033  -0.39508  -0.37113
 Alpha  occ. eigenvalues --   -0.36059  -0.35428  -0.34426  -0.32726  -0.31862
 Alpha  occ. eigenvalues --   -0.30742  -0.30472  -0.29491  -0.29180  -0.28347
 Alpha  occ. eigenvalues --   -0.26698  -0.26538  -0.25453  -0.25378  -0.23875
 Alpha  occ. eigenvalues --   -0.22623  -0.21593  -0.21053  -0.20136  -0.18325
 Alpha  occ. eigenvalues --   -0.18149  -0.12448  -0.12165   0.04828
 Alpha virt. eigenvalues --    0.06312   0.07308   0.07785   0.08404   0.09023
 Alpha virt. eigenvalues --    0.09556   0.10401   0.10991   0.11131   0.11549
 Alpha virt. eigenvalues --    0.11605   0.12226   0.12779   0.13226   0.13975

  Beta  occ. eigenvalues --  -19.03515 -14.16927 -14.16630 -10.16219 -10.10549
  Beta  occ. eigenvalues --  -10.08329 -10.07495 -10.06751 -10.06467 -10.05698
  Beta  occ. eigenvalues --  -10.05588 -10.05546 -10.05512 -10.04961  -0.96506
  Beta  occ. eigenvalues --   -0.83728  -0.75662  -0.71452  -0.66394  -0.64432
  Beta  occ. eigenvalues --   -0.62127  -0.59850  -0.55477  -0.51883  -0.50285
  Beta  occ. eigenvalues --   -0.49256  -0.44234  -0.41951  -0.39296  -0.37066
  Beta  occ. eigenvalues --   -0.35979  -0.35318  -0.34395  -0.32515  -0.31555
  Beta  occ. eigenvalues --   -0.30651  -0.30430  -0.29278  -0.29025  -0.28281
  Beta  occ. eigenvalues --   -0.26611  -0.26370  -0.25424  -0.25265  -0.23700
  Beta  occ. eigenvalues --   -0.22578  -0.21563  -0.21027  -0.19827  -0.18077
  Beta  occ. eigenvalues --   -0.16743  -0.12014  -0.11862
  Beta virt. eigenvalues --    0.06903   0.07424   0.08187   0.08505   0.09200
  Beta virt. eigenvalues --    0.09467   0.09799   0.10758   0.11070   0.11363
  Beta virt. eigenvalues --    0.11676   0.11830   0.12299   0.12867   0.13310

 Mulliken charges and spin densities:
               1          2
     1  C    0.258128  -1.015245
     2  C   -0.828680   0.556017
     3  C    0.740913  -0.009324
     4  C   -0.663321   0.288910
     5  C    0.701725  -1.263426
     6  C   -0.547058  -0.216445
     7  O   -0.005744  -0.000479
     8  C   -0.457259   0.021225
     9  N   -0.157597   0.085977
    10  C    0.059202   0.064280
    11  C   -0.598193  -0.000290
    12  C   -0.005751   0.600324
    13  N    0.005180   0.129676
    14  C    0.447335  -0.963296
    15  H   -0.081764   0.226530
    16  H    0.004925   0.123939
    17  H   -0.072245   0.213477
    18  H    0.215985  -0.026808
    19  H    0.198414  -0.018754
    20  H    0.173141   0.030485
    21  H   -0.005197   0.129977
    22  H   -0.220509   0.378215
    23  H   -0.053241   0.198081
    24  H   -0.478025   0.623364
    25  H   -0.031711   0.176139
    26  H    0.053536   0.093035
    27  H    0.261371  -0.032805
    28  H    0.127766   0.013304
    29  H   -0.014321   0.128096
    30  H    0.003892   0.129297
    31  H   -0.147924   0.310635
    32  H    0.117028   0.025889
 Sum of Mulliken charges =  -1.00000   1.00000

 Dipole moment (field-independent basis, Debye):
    X=              2.3597    Y=             -0.7918    Z=              1.0336  Tot=              2.6951
 Quadrupole moment (field-independent basis, Debye-Ang):
   XX=           -154.6972   YY=           -122.2443   ZZ=           -111.5148
   XY=             10.8748   XZ=              2.7219   YZ=              4.8839

 Summary of Natural Population Analysis:

                                       Natural Population
                Natural  -----------------------------------------------
    Atom  No    Charge         Core      Valence    Rydberg      Total
 -----------------------------------------------------------------------
      C    1   -0.28659      0.99967     2.28186    0.00506     3.28659
      C    2   -0.19618      0.99962     2.18724    0.00932     3.19618
      C    3   -0.11845      0.99958     2.10842    0.01045     3.11845
      C    4   -0.19171      0.99962     2.18237    0.00972     3.19171
      C    5   -0.28954      0.99966     2.28419    0.00569     3.28954
      C    6   -0.01337      0.99951     2.00144    0.01242     3.01337
      O    7   -0.27448      0.99984     3.26576    0.00887     4.27448
      C    8    0.36044      0.99954     1.61953    0.02049     2.63956
      N    9   -0.24247      0.99967     2.73201    0.01079     3.74247
      C   10    0.08959      0.99961     1.89523    0.01557     2.91041
      C   11   -0.18779      0.99950     2.18042    0.00787     3.18779
      C   12    0.17378      0.99956     1.81304    0.01361     2.82622
      N   13   -0.27421      0.99962     2.76479    0.00979     3.77421
      C   14   -0.30027      0.99964     2.29542    0.00521     3.30027
      H   15    0.09645      0.00000     0.40258    0.00098     0.40355
      H   16    0.09727      0.00000     0.40206    0.00067     0.40273
      H   17    0.09425      0.00000     0.40481    0.00095     0.40575
      H   18    0.10067      0.00000     0.39791    0.00142     0.39933
      H   19    0.10311      0.00000     0.39558    0.00132     0.39689
      H   20    0.09427      0.00000     0.40385    0.00188     0.40573
      H   21    0.09392      0.00000     0.40503    0.00105     0.40608
      H   22    0.09858      0.00000     0.40025    0.00117     0.40142
      H   23    0.09734      0.00000     0.40152    0.00113     0.40266
      H   24    0.09970      0.00000     0.39904    0.00126     0.40030
      H   25    0.09744      0.00000     0.40151    0.00105     0.40256
      H   26    0.08525      0.00000     0.41359    0.00116     0.41475
      H   27    0.10418      0.00000     0.39397    0.00185     0.39582
      H   28    0.07956      0.00000     0.41928    0.00117     0.42044
      H   29    0.09889      0.00000     0.40010    0.00101     0.40111
      H   30    0.09494      0.00000     0.40422    0.00084     0.40506
      H   31    0.10920      0.00000     0.38859    0.00221     0.39080
      H   32    0.10623      0.00000     0.39255    0.00122     0.39377
 =======================================================================
   * Total *    0.00000     13.99465    38.83816    0.16719    53.00000

 Normal termination of Gaussian 16 at Thu Dec 10 11:20:13 2020.
