 Gaussian 16, Revision A.03,

 -----------------------------------------------------------
 # opt freq B3LYP/6-31G(d) empiricaldispersion=gd3bj scf=xqc
 -----------------------------------------------------------

 ------------------------------
 CID_19772544_JID_1646_neutraal
 ------------------------------
 Symbolic Z-matrix:
 Charge =  0 Multiplicity = 1

 SCF Done:  E(RB3LYP) =  -786.525448741     A.U. after   16 cycles
 SCF Done:  E(RB3LYP) =  -786.529840144     A.U. after   14 cycles
 SCF Done:  E(RB3LYP) =  -786.530595705     A.U. after   14 cycles
 SCF Done:  E(RB3LYP) =  -786.531266657     A.U. after   14 cycles
 SCF Done:  E(RB3LYP) =  -786.532039387     A.U. after   12 cycles
 SCF Done:  E(RB3LYP) =  -786.532533348     A.U. after   13 cycles
 SCF Done:  E(RB3LYP) =  -786.532677208     A.U. after   13 cycles
 SCF Done:  E(RB3LYP) =  -786.532717140     A.U. after   13 cycles
 SCF Done:  E(RB3LYP) =  -786.532731881     A.U. after   11 cycles
 SCF Done:  E(RB3LYP) =  -786.532734217     A.U. after   11 cycles
 SCF Done:  E(RB3LYP) =  -786.532735078     A.U. after   11 cycles
 SCF Done:  E(RB3LYP) =  -786.532735278     A.U. after    9 cycles
 SCF Done:  E(RB3LYP) =  -786.532735404     A.U. after    7 cycles
 Optimization completed.
    -- Stationary point found.
 Normal termination of Gaussian 16 at Tue Dec  8 20:36:29 2020.

 --------------------------------------------------------------------
 #N Geom=AllCheck Guess=TCheck SCRF=Check GenChk RB3LYP/6-31G(d) Freq
 --------------------------------------------------------------------

 Structure from the checkpoint file:  "JID_1646.chk"
 ------------------------------
 CID_19772544_JID_1646_neutraal
 ------------------------------
 Charge =  0 Multiplicity = 1

 SCF Done:  E(RB3LYP) =  -786.532735404     A.U. after    1 cycles

  Exact polarizability: 191.969 -14.824 135.282  -0.003  -0.000  59.538
 Approx polarizability: 289.790 -48.091 241.477  -0.014   0.003  92.075

                      1                      2                      3
                      A                      A                      A
 Frequencies --     30.4125                94.2653               138.5290
 Red. masses --      4.0761                 3.4415                 1.0610
 Frc consts  --      0.0022                 0.0180                 0.0120
 IR Inten    --      1.5975                 0.2986                 0.0001

                      4                      5                      6
                      A                      A                      A
 Frequencies --    172.9532               173.1350               190.2150
 Red. masses --      1.2199                 5.1917                 1.4447
 Frc consts  --      0.0215                 0.0917                 0.0308
 IR Inten    --      0.8904                 1.8617                 0.3533

                      7                      8                      9
                      A                      A                      A
 Frequencies --    212.4139               286.7900               302.4651
 Red. masses --      1.3442                 3.1553                 2.6908
 Frc consts  --      0.0357                 0.1529                 0.1450
 IR Inten    --      0.1311                 1.1819                 0.0390

                     10                     11                     12
                      A                      A                      A
 Frequencies --    324.9814               359.7064               437.1958
 Red. masses --      4.6835                 3.2785                 2.9209
 Frc consts  --      0.2914                 0.2499                 0.3289
 IR Inten    --      0.0425                 1.7550                 2.8904

                     13                     14                     15
                      A                      A                      A
 Frequencies --    474.5816               486.7561               488.1195
 Red. masses --      3.6969                 3.3363                 4.2598
 Frc consts  --      0.4906                 0.4657                 0.5980
 IR Inten    --      1.9450                 0.1613                 5.8720

                     16                     17                     18
                      A                      A                      A
 Frequencies --    555.1773               611.2996               666.1125
 Red. masses --      4.3479                 3.0974                 5.4963
 Frc consts  --      0.7896                 0.6820                 1.4369
 IR Inten    --      0.3997                 0.7454                 1.4771

                     19                     20                     21
                      A                      A                      A
 Frequencies --    726.5816               768.0218               831.1388
 Red. masses --      3.0251                 4.3949                 1.3217
 Frc consts  --      0.9409                 1.5274                 0.5379
 IR Inten    --      1.5933                 0.6914                17.2863

                     22                     23                     24
                      A                      A                      A
 Frequencies --    848.4897               935.3840               959.2270
 Red. masses --      3.5714                 1.3502                 1.3018
 Frc consts  --      1.5149                 0.6960                 0.7057
 IR Inten    --     28.5572                 4.1677                 0.6576

                     25                     26                     27
                      A                      A                      A
 Frequencies --    967.5406              1027.2943              1033.0516
 Red. masses --      2.3192                 1.5200                 1.5304
 Frc consts  --      1.2792                 0.9451                 0.9623
 IR Inten    --     23.9808                 6.8031                 2.7177

                     28                     29                     30
                      A                      A                      A
 Frequencies --   1034.0849              1061.7403              1085.7726
 Red. masses --      1.5721                 1.4524                 1.6082
 Frc consts  --      0.9905                 0.9646                 1.1170
 IR Inten    --      0.0214                 7.4176                 0.0351

                     31                     32                     33
                      A                      A                      A
 Frequencies --   1106.5839              1167.5849              1188.4644
 Red. masses --      1.9333                 2.2277                 5.1007
 Frc consts  --      1.3948                 1.7893                 4.2447
 IR Inten    --      8.3267                23.5466                31.1751

                     34                     35                     36
                      A                      A                      A
 Frequencies --   1232.7236              1259.3202              1301.3830
 Red. masses --      1.6617                 2.1698                 2.9612
 Frc consts  --      1.4878                 2.0275                 2.9548
 IR Inten    --      6.3044                21.5809               175.1463

                     37                     38                     39
                      A                      A                      A
 Frequencies --   1337.5394              1364.1921              1417.7396
 Red. masses --      1.6996                 7.4999                 1.2472
 Frc consts  --      1.7915                 8.2235                 1.4771
 IR Inten    --     66.0934                16.1673                 8.2119

                     40                     41                     42
                      A                      A                      A
 Frequencies --   1438.9427              1450.6198              1456.3144
 Red. masses --      1.2635                 1.2432                 2.7864
 Frc consts  --      1.5414                 1.5413                 3.4818
 IR Inten    --      0.2244                 1.3796                15.3218

                     43                     44                     45
                      A                      A                      A
 Frequencies --   1505.8893              1512.4017              1513.2910
 Red. masses --      1.0453                 1.0694                 1.0470
 Frc consts  --      1.3966                 1.4412                 1.4127
 IR Inten    --      0.1528                 0.6486                 9.4966

                     46                     47                     48
                      A                      A                      A
 Frequencies --   1519.1332              1522.1478              1523.2123
 Red. masses --      1.1637                 1.0438                 1.2277
 Frc consts  --      1.5822                 1.4249                 1.6783
 IR Inten    --     23.7468                15.9147                 2.2800

                     49                     50                     51
                      A                      A                      A
 Frequencies --   1547.5584              1616.6297              1666.5705
 Red. masses --      2.1260                 5.2085                 5.8591
 Frc consts  --      3.0000                 8.0202                 9.5880
 IR Inten    --      3.2216                 6.9151                45.5700

                     52                     53                     54
                      A                      A                      A
 Frequencies --   3040.5447              3041.6123              3042.2060
 Red. masses --      1.0392                 1.0383                 1.0408
 Frc consts  --      5.6606                 5.6597                 5.6754
 IR Inten    --      4.7894                50.2942                10.1987

                     55                     56                     57
                      A                      A                      A
 Frequencies --   3088.2107              3089.5096              3095.5357
 Red. masses --      1.1000                 1.1000                 1.0994
 Frc consts  --      6.1811                 6.1860                 6.2067
 IR Inten    --     35.4527                 0.0053                10.8704

                     58                     59                     60
                      A                      A                      A
 Frequencies --   3132.8789              3136.7914              3178.7788
 Red. masses --      1.1002                 1.0995                 1.0980
 Frc consts  --      6.3621                 6.3742                 6.5368
 IR Inten    --     22.9194                 9.1698                 8.4676

                     61                     62                     63
                      A                      A                      A
 Frequencies --   3185.1378              3212.3576              3230.0717
 Red. masses --      1.0894                 1.0899                 1.0912
 Frc consts  --      6.5117                 6.6264                 6.7075
 IR Inten    --     19.6958                 2.6204                10.4550

 - Thermochemistry -
 -------------------
 Temperature   298.150 Kelvin.  Pressure   1.00000 Atm.
 Atom     1 has atomic number  6 and mass  12.00000

 Molecular mass:   164.06597 amu.
 Principal axes and moments of inertia in atomic units:
                           1         2         3
     Eigenvalues --   937.125263160.779274064.38769
           X            0.99937   0.03562   0.00001
           Y           -0.03562   0.99937  -0.00001
           Z           -0.00001   0.00001   1.00000
 This molecule is an asymmetric top.
 Rotational symmetry number  1.
 Warning -- assumption of classical behavior for rotation
           may cause significant error
 Rotational temperatures (Kelvin)      0.09243     0.02740     0.02131
 Rotational constants (GHZ):           1.92583     0.57098     0.44404
 Zero-point vibrational energy     504855.9 (Joules/Mol)
                                  120.66345 (Kcal/Mol)
 Warning -- explicit consideration of  17 degrees of freedom as
           vibrations may cause significant error
 Vibrational temperatures:     43.76   135.63   199.31   248.84   249.10
          (Kelvin)            273.68   305.62   412.63   435.18   467.58
                              517.54   629.03   682.82   700.33   702.30
                              798.78   879.52   958.39  1045.39  1105.01
                             1195.82  1220.79  1345.81  1380.11  1392.08
                             1478.05  1486.33  1487.82  1527.61  1562.18
                             1592.13  1679.89  1709.94  1773.61  1811.88
                             1872.40  1924.42  1962.77  2039.81  2070.32
                             2087.12  2095.31  2166.64  2176.01  2177.29
                             2185.69  2190.03  2191.56  2226.59  2325.97
                             2397.82  4374.67  4376.20  4377.06  4443.25
                             4445.12  4453.79  4507.51  4513.14  4573.55
                             4582.70  4621.87  4647.35

 Zero-point correction=                           0.192289 (Hartree/Particle)
 Thermal correction to Energy=                    0.203573
 Thermal correction to Enthalpy=                  0.204517
 Thermal correction to Gibbs Free Energy=         0.154677
 Sum of electronic and zero-point Energies=           -786.340446
 Sum of electronic and thermal Energies=              -786.329162
 Sum of electronic and thermal Enthalpies=            -786.328218
 Sum of electronic and thermal Free Energies=         -786.378058

                     E (Thermal)             CV                S
                      KCal/Mol        Cal/Mol-Kelvin    Cal/Mol-Kelvin
 Total                  127.744             42.075            104.897
 Electronic               0.000              0.000              0.000
 Translational            0.889              2.981             41.194
 Rotational               0.889              2.981             30.866
 Vibrational            125.967             36.113             32.837
 Vibration     1          0.594              1.984              5.802
 Vibration     2          0.603              1.953              3.570
 Vibration     3          0.614              1.915              2.824
 Vibration     4          0.626              1.876              2.403
 Vibration     5          0.627              1.876              2.401
 Vibration     6          0.634              1.853              2.226
 Vibration     7          0.643              1.822              2.023
 Vibration     8          0.684              1.698              1.493
 Vibration     9          0.694              1.669              1.403
 Vibration    10          0.709              1.626              1.285
 Vibration    11          0.734              1.555              1.123
 Vibration    12          0.798              1.389              0.835
 Vibration    13          0.831              1.306              0.725
 Vibration    14          0.843              1.279              0.692
 Vibration    15          0.844              1.276              0.689
 Vibration    16          0.911              1.128              0.534
 Vibration    17          0.970              1.008              0.431

                           ! Non-Optimized Parameters !
 Normal termination of Gaussian 16 at Tue Dec  8 20:41:11 2020.

 ----------------------------------------------------------------------
 # B3LYP/6-311++G(d,p) empiricaldispersion=gd3bj scf=xqc pop=npa geom=c
 heck
 ----------------------------------------------------------------------

 --------------------------------------
 CID_19772544_JID_1646_Energie_neutraal
 --------------------------------------
 Structure from the checkpoint file:  "JID_1646.chk"
 Charge =  0 Multiplicity = 1

 SCF Done:  E(RB3LYP) =  -786.657626355     A.U. after   15 cycles
 Normal termination of Gaussian 16 at Tue Dec  8 20:43:10 2020.

 ----------------------------------------------------------------------
 # B3LYP/6-311++G(d,p) empiricaldispersion=gd3bj scf=xqc pop=npa geom=c
 heck
 ----------------------------------------------------------------------

 ------------------------------------
 CID_19772544_JID_1646_Energie_kation
 ------------------------------------
 Structure from the checkpoint file:  "JID_1646.chk"
 Charge =  1 Multiplicity = 2

 SCF Done:  E(UB3LYP) =  -786.366905412     A.U. after   26 cycles
 Normal termination of Gaussian 16 at Tue Dec  8 20:47:31 2020.
 Gaussian 16:  ES64L-G16RevA.03 25-Dec-2016

 ----------------------------------------------------------------------
 # B3LYP/6-311++G(d,p) empiricaldispersion=gd3bj scf=xqc pop=npa geom=c
 heck
 ----------------------------------------------------------------------

 -----------------------------------
 CID_19772544_JID_1646_Energie_anion
 -----------------------------------
 Structure from the checkpoint file:  "JID_1646.chk"
 Charge = -1 Multiplicity = 2

                         Standard orientation:
 ---------------------------------------------------------------------
 Center     Atomic      Atomic             Coordinates (Angstroms)
 Number     Number       Type             X           Y           Z
 ---------------------------------------------------------------------
      1          6           0        3.699976   -0.588981    0.000342
      2          6           0        2.198010   -0.483368    0.000133
      3          6           0        1.562248    0.779291   -0.000239
      4          6           0        0.173835    0.840063   -0.000286
      5          6           0       -0.632584   -0.315052   -0.000056
      6          6           0        0.017496   -1.562437    0.000321
      7          6           0        1.406255   -1.635024    0.000443
      8          6           0       -2.104765   -0.219613   -0.000029
      9         16           0       -2.924383    1.215590    0.000710
     10          6           0       -2.880869   -1.517315   -0.001099
     11          6           0        2.377322    2.048589   -0.000677
     12          1           0        4.136516   -0.097234   -0.878269
     13          1           0        4.135972   -0.100181    0.880910
     14          1           0        4.024734   -1.633181   -0.001233
     15          1           0       -0.320671    1.805759   -0.000523
     16          1           0       -0.553380   -2.483328    0.000603
     17          1           0        1.889571   -2.608629    0.000775
     18          1           0       -2.630448   -2.118571   -0.884358
     19          1           0       -2.630529   -2.120256    0.881023
     20          1           0       -3.952064   -1.319197   -0.000893
     21          1           0        1.730081    2.929613    0.000639
     22          1           0        3.030639    2.108961    0.878962
     23          1           0        3.028169    2.109878   -0.882117
 ---------------------------------------------------------------------

 SCF Done:  E(UB3LYP) =  -786.691437475     A.U. after   21 cycles

 The electronic state is 2-A.
 Alpha  occ. eigenvalues --  -88.61791 -10.05665 -10.05300 -10.04220 -10.03685
 Alpha  occ. eigenvalues --  -10.03422 -10.02893 -10.02461 -10.02390 -10.01833
 Alpha  occ. eigenvalues --  -10.01600  -7.70588  -5.66842  -5.66701  -5.66116
 Alpha  occ. eigenvalues --   -0.72471  -0.66531  -0.63523  -0.61750  -0.56975
 Alpha  occ. eigenvalues --   -0.54292  -0.52641  -0.46275  -0.44378  -0.38490
 Alpha  occ. eigenvalues --   -0.34578  -0.33799  -0.32062  -0.30164  -0.28904
 Alpha  occ. eigenvalues --   -0.28339  -0.27747  -0.27711  -0.27133  -0.26347
 Alpha  occ. eigenvalues --   -0.23581  -0.21771  -0.21010  -0.19832  -0.16999
 Alpha  occ. eigenvalues --   -0.14313  -0.11225  -0.08402  -0.03795   0.02646
 Alpha virt. eigenvalues --    0.07602   0.09178   0.09886   0.10950   0.11252
 Alpha virt. eigenvalues --    0.12534   0.12793   0.13494   0.13552   0.13597
 Alpha virt. eigenvalues --    0.13812   0.15238   0.15649   0.16049   0.17120

  Beta  occ. eigenvalues --  -88.61644 -10.05686 -10.05296 -10.04305 -10.03515
  Beta  occ. eigenvalues --  -10.03403 -10.02419 -10.02284 -10.02255 -10.01876
  Beta  occ. eigenvalues --  -10.01433  -7.70455  -5.66780  -5.66223  -5.66033
  Beta  occ. eigenvalues --   -0.72224  -0.65968  -0.63399  -0.61289  -0.56834
  Beta  occ. eigenvalues --   -0.54134  -0.52227  -0.46005  -0.43992  -0.38064
  Beta  occ. eigenvalues --   -0.34454  -0.33340  -0.31892  -0.29995  -0.28832
  Beta  occ. eigenvalues --   -0.28276  -0.27489  -0.27067  -0.27049  -0.26264
  Beta  occ. eigenvalues --   -0.23461  -0.21195  -0.20761  -0.19658  -0.16449
  Beta  occ. eigenvalues --   -0.12475  -0.10609  -0.06458  -0.03444
  Beta virt. eigenvalues --    0.07578   0.09120   0.09136   0.09855   0.11049
  Beta virt. eigenvalues --    0.11215   0.12490   0.13043   0.13534   0.13642
  Beta virt. eigenvalues --    0.13753   0.13787   0.15188   0.16037   0.16963

 Mulliken charges and spin densities:
               1          2
     1  C   -0.550328  -0.022360
     2  C    0.826061   0.164441
     3  C    0.078660  -0.053436
     4  C   -0.446147   0.120174
     5  C    0.964690  -0.060082
     6  C   -0.603606   0.169206
     7  C   -0.732130  -0.042073
     8  C    0.647141   0.311504
     9  S   -1.179213   0.355955
    10  C   -0.610383  -0.013226
    11  C   -0.641082   0.017195
    12  H    0.119642   0.012146
    13  H    0.119677   0.012288
    14  H    0.127540   0.000433
    15  H   -0.007952  -0.021506
    16  H    0.103867  -0.007833
    17  H    0.082855   0.004282
    18  H    0.098189   0.031540
    19  H    0.098102   0.031481
    20  H    0.099403  -0.004399
    21  H    0.170155   0.000114
    22  H    0.117393  -0.002933
    23  H    0.117466  -0.002913
 Sum of Mulliken charges =  -1.00000   1.00000

 Dipole moment (field-independent basis, Debye):
    X=              7.5336    Y=             -2.4492    Z=             -0.0021  Tot=              7.9217
 Quadrupole moment (field-independent basis, Debye-Ang):
   XX=           -117.2960   YY=            -88.0923   ZZ=            -84.6657
   XY=             10.6350   XZ=              0.0041   YZ=             -0.0046

 Summary of Natural Population Analysis:

                                       Natural Population
                Natural  -----------------------------------------------
    Atom  No    Charge         Core      Valence    Rydberg      Total
 -----------------------------------------------------------------------
      C    1   -0.29331      0.99965     2.28934    0.00432     3.29331
      C    2    0.02712      0.99948     1.96556    0.00783     2.97288
      C    3   -0.04826      0.99949     2.04059    0.00818     3.04826
      C    4   -0.03560      0.99942     2.02765    0.00853     3.03560
      C    5   -0.05915      0.99947     2.04792    0.01177     3.05915
      C    6   -0.05947      0.99953     2.05192    0.00801     3.05947
      C    7   -0.13009      0.99953     2.12128    0.00927     3.13009
      C    8    0.05835      0.99959     1.92880    0.01326     2.94165
      S    9   -0.02697      4.99947     3.01117    0.01634     8.02697
      C   10   -0.31406      0.99963     2.30880    0.00564     3.31406
      C   11   -0.28964      0.99965     2.28543    0.00457     3.28964
      H   12    0.09780      0.00000     0.40110    0.00110     0.40220
      H   13    0.09781      0.00000     0.40108    0.00110     0.40219
      H   14    0.09575      0.00000     0.40338    0.00088     0.40425
      H   15    0.10752      0.00000     0.39101    0.00147     0.39248
      H   16    0.09349      0.00000     0.40516    0.00135     0.40651
      H   17    0.08762      0.00000     0.41076    0.00163     0.41238
      H   18    0.09864      0.00000     0.39990    0.00145     0.40136
      H   19    0.09862      0.00000     0.39992    0.00145     0.40138
      H   20    0.10426      0.00000     0.39396    0.00178     0.39574
      H   21    0.10168      0.00000     0.39744    0.00088     0.39832
      H   22    0.09395      0.00000     0.40491    0.00114     0.40605
      H   23    0.09395      0.00000     0.40491    0.00114     0.40605
 =======================================================================
   * Total *    0.00000     14.99490    28.89200    0.11310    44.00000

 Normal termination of Gaussian 16 at Tue Dec  8 20:54:37 2020.
