 Gaussian 16, Revision A.03,

 -----------------------------------------------------------
 # opt freq B3LYP/6-31G(d) empiricaldispersion=gd3bj scf=xqc
 -----------------------------------------------------------

 -------------------------------
 CID_63777849_JID_10935_neutraal
 -------------------------------
 Symbolic Z-matrix:
 Charge =  0 Multiplicity = 1

 SCF Done:  E(RB3LYP) =  -843.440421781     A.U. after   15 cycles
 SCF Done:  E(RB3LYP) =  -843.446596895     A.U. after   13 cycles
 SCF Done:  E(RB3LYP) =  -843.447507196     A.U. after   12 cycles
 SCF Done:  E(RB3LYP) =  -843.448050470     A.U. after   12 cycles
 SCF Done:  E(RB3LYP) =  -843.448362259     A.U. after   12 cycles
 SCF Done:  E(RB3LYP) =  -843.448547831     A.U. after   12 cycles
 SCF Done:  E(RB3LYP) =  -843.448750714     A.U. after   11 cycles
 SCF Done:  E(RB3LYP) =  -843.449024790     A.U. after   13 cycles
 SCF Done:  E(RB3LYP) =  -843.449060572     A.U. after   12 cycles
 SCF Done:  E(RB3LYP) =  -843.449170797     A.U. after   12 cycles
 SCF Done:  E(RB3LYP) =  -843.450347961     A.U. after    8 cycles
 SCF Done:  E(RB3LYP) =  -843.450348428     A.U. after    7 cycles
 SCF Done:  E(RB3LYP) =  -843.450348608     A.U. after    7 cycles
 SCF Done:  E(RB3LYP) =  -843.450348688     A.U. after    7 cycles
 SCF Done:  E(RB3LYP) =  -843.450348709     A.U. after    6 cycles
 Optimization completed.
    -- Stationary point found.
 Normal termination of Gaussian 16 at Sun Dec 13 20:55:32 2020.

 --------------------------------------------------------------------
 #N Geom=AllCheck Guess=TCheck SCRF=Check GenChk RB3LYP/6-31G(d) Freq
 --------------------------------------------------------------------

 Structure from the checkpoint file:  "JID_10935.chk"
 -------------------------------
 CID_63777849_JID_10935_neutraal
 -------------------------------
 Charge =  0 Multiplicity = 1

 SCF Done:  E(RB3LYP) =  -843.450348709     A.U. after    1 cycles

  Exact polarizability: 320.107   6.027 206.787  -3.153  -4.524 112.004
 Approx polarizability: 452.889  -3.053 343.326  -1.045 -13.070 185.402

                      1                      2                      3
                      A                      A                      A
 Frequencies --     37.5305                42.6554                70.8878
 Red. masses --      4.8889                 3.9563                 5.5161
 Frc consts  --      0.0041                 0.0042                 0.0163
 IR Inten    --      0.1867                 1.2911                 0.4946

                      4                      5                      6
                      A                      A                      A
 Frequencies --     88.2449               140.5953               148.7802
 Red. masses --      3.6710                 1.9017                 2.4440
 Frc consts  --      0.0168                 0.0221                 0.0319
 IR Inten    --      0.6975                 8.4691                 1.1877

                      7                      8                      9
                      A                      A                      A
 Frequencies --    153.7885               180.3630               186.9995
 Red. masses --      1.8885                 2.7394                 3.6815
 Frc consts  --      0.0263                 0.0525                 0.0758
 IR Inten    --      6.0162                 0.8285                 2.8529

                     10                     11                     12
                      A                      A                      A
 Frequencies --    202.5292               221.8317               227.4065
 Red. masses --      2.3491                 4.5143                 3.1711
 Frc consts  --      0.0568                 0.1309                 0.0966
 IR Inten    --      1.9702                 1.2583                 1.6356

                     13                     14                     15
                      A                      A                      A
 Frequencies --    269.1928               270.5409               310.7560
 Red. masses --      1.3780                 3.9436                 3.7392
 Frc consts  --      0.0588                 0.1701                 0.2127
 IR Inten    --      0.1105                 7.8735                 1.8890

                     16                     17                     18
                      A                      A                      A
 Frequencies --    323.8851               349.7938               365.9616
 Red. masses --      2.8772                 2.7532                 3.0391
 Frc consts  --      0.1778                 0.1985                 0.2398
 IR Inten    --      1.2543                 2.0125                 4.6459

                     19                     20                     21
                      A                      A                      A
 Frequencies --    404.4239               459.9014               473.1804
 Red. masses --      5.3437                 2.9843                 3.5997
 Frc consts  --      0.5149                 0.3719                 0.4749
 IR Inten    --      3.7002                 8.4269                 3.7576

                     22                     23                     24
                      A                      A                      A
 Frequencies --    489.6825               508.0584               530.6565
 Red. masses --      4.5955                 4.4021                 4.1396
 Frc consts  --      0.6492                 0.6695                 0.6868
 IR Inten    --      3.4850                 2.7503                 1.4889

                     25                     26                     27
                      A                      A                      A
 Frequencies --    544.4281               560.9136               573.8855
 Red. masses --      5.0174                 4.8033                 4.0109
 Frc consts  --      0.8762                 0.8904                 0.7783
 IR Inten    --      4.1563                 1.1242                 3.0118

                     28                     29                     30
                      A                      A                      A
 Frequencies --    598.6941               620.1390               671.0187
 Red. masses --      3.7227                 3.7001                 5.2208
 Frc consts  --      0.7862                 0.8384                 1.3850
 IR Inten    --      5.0418                 6.8925                 0.3865

                     31                     32                     33
                      A                      A                      A
 Frequencies --    708.7054               729.0347               748.5022
 Red. masses --      5.1161                 3.4477                 3.3798
 Frc consts  --      1.5140                 1.0796                 1.1157
 IR Inten    --     18.7694                 2.9369                 3.1668

                     34                     35                     36
                      A                      A                      A
 Frequencies --    763.2875               771.6906               821.8133
 Red. masses --      1.4551                 3.6292                 4.5259
 Frc consts  --      0.4995                 1.2733                 1.8009
 IR Inten    --     46.6062                10.5670                39.9423

                     37                     38                     39
                      A                      A                      A
 Frequencies --    844.5291               860.9929               862.4248
 Red. masses --      1.6148                 1.4612                 1.8851
 Frc consts  --      0.6786                 0.6382                 0.8261
 IR Inten    --      7.8781                13.8042                 2.2985

                     40                     41                     42
                      A                      A                      A
 Frequencies --    867.0742               897.3173               930.4483
 Red. masses --      2.0201                 1.8717                 1.3277
 Frc consts  --      0.8948                 0.8880                 0.6772
 IR Inten    --     13.2651                20.0985                 1.6614

                     43                     44                     45
                      A                      A                      A
 Frequencies --    962.0569               966.5629               991.7541
 Red. masses --      1.6099                 1.6920                 1.3171
 Frc consts  --      0.8779                 0.9313                 0.7633
 IR Inten    --      3.3586                 3.6684                 1.3438

                     46                     47                     48
                      A                      A                      A
 Frequencies --    996.0621              1023.3898              1045.9609
 Red. masses --      2.5979                 1.7128                 1.7728
 Frc consts  --      1.5186                 1.0569                 1.1427
 IR Inten    --      1.0842                 0.5894                 2.4855

                     49                     50                     51
                      A                      A                      A
 Frequencies --   1055.8118              1072.0612              1078.6972
 Red. masses --      2.7730                 1.5421                 2.3673
 Frc consts  --      1.8213                 1.0442                 1.6229
 IR Inten    --      9.3630                 3.2744                 5.8053

                     52                     53                     54
                      A                      A                      A
 Frequencies --   1115.1498              1121.9555              1124.7391
 Red. masses --      1.8812                 2.1832                 2.3158
 Frc consts  --      1.3783                 1.6191                 1.7261
 IR Inten    --     16.5584                 2.5211                13.1391

                     55                     56                     57
                      A                      A                      A
 Frequencies --   1139.6473              1165.7012              1174.9729
 Red. masses --      2.2906                 1.3879                 1.5610
 Frc consts  --      1.7529                 1.1112                 1.2697
 IR Inten    --     88.7727                13.1280                 2.4470

                     58                     59                     60
                      A                      A                      A
 Frequencies --   1198.0408              1215.1701              1243.9868
 Red. masses --      1.0938                 1.5454                 2.0606
 Frc consts  --      0.9250                 1.3445                 1.8788
 IR Inten    --      0.9889                 2.1761                45.2463

                     61                     62                     63
                      A                      A                      A
 Frequencies --   1268.9054              1277.9082              1284.7931
 Red. masses --      2.1414                 1.6397                 1.8297
 Frc consts  --      2.0315                 1.5776                 1.7795
 IR Inten    --     59.3152                39.6508               124.5462

                     64                     65                     66
                      A                      A                      A
 Frequencies --   1293.5037              1328.3197              1333.2140
 Red. masses --      1.8435                 1.4930                 3.4178
 Frc consts  --      1.8173                 1.5521                 3.5793
 IR Inten    --     22.1207                95.7858               207.0503

                     67                     68                     69
                      A                      A                      A
 Frequencies --   1356.2437              1363.1695              1371.8392
 Red. masses --      2.0551                 2.7748                 3.4690
 Frc consts  --      2.2272                 3.0379                 3.8465
 IR Inten    --     71.6626                13.7661               274.9834

                     70                     71                     72
                      A                      A                      A
 Frequencies --   1378.7295              1423.9715              1440.5317
 Red. masses --      4.1992                 1.5424                 1.4389
 Frc consts  --      4.7030                 1.8427                 1.7593
 IR Inten    --     44.3166                91.1947                22.2597

                     73                     74                     75
                      A                      A                      A
 Frequencies --   1443.1128              1460.6882              1480.2997
 Red. masses --      1.3103                 1.3538                 2.2605
 Frc consts  --      1.6078                 1.7018                 2.9185
 IR Inten    --      6.7909                15.9846                 1.1333

                     76                     77                     78
                      A                      A                      A
 Frequencies --   1486.4316              1506.8490              1517.5542
 Red. masses --      1.4295                 2.0681                 1.0447
 Frc consts  --      1.8609                 2.7667                 1.4175
 IR Inten    --      2.6099                17.8696                 5.8877

                     79                     80                     81
                      A                      A                      A
 Frequencies --   1520.9090              1528.0276              1529.2808
 Red. masses --      1.0632                 1.1761                 1.2633
 Frc consts  --      1.4490                 1.6179                 1.7408
 IR Inten    --     14.3010                28.0251                14.4859

                     82                     83                     84
                      A                      A                      A
 Frequencies --   1540.7855              1543.9314              1556.9816
 Red. masses --      1.2499                 1.1447                 2.0942
 Frc consts  --      1.7482                 1.6077                 2.9911
 IR Inten    --     21.9251                67.5099                50.1995

                     85                     86                     87
                      A                      A                      A
 Frequencies --   1561.8766              1608.3136              1638.6776
 Red. masses --      2.0138                 6.5681                 6.2803
 Frc consts  --      2.8944                10.0100                 9.9361
 IR Inten    --    128.3421                13.8302                76.0218

                     88                     89                     90
                      A                      A                      A
 Frequencies --   1654.3242              1665.7543              1774.9413
 Red. masses --      5.7529                 5.6172                 8.9550
 Frc consts  --      9.2764                 9.1832                16.6220
 IR Inten    --    456.7942               178.0570               296.1920

                     91                     92                     93
                      A                      A                      A
 Frequencies --   2937.9454              2974.0093              2980.1009
 Red. masses --      1.0824                 1.0651                 1.0662
 Frc consts  --      5.5045                 5.5503                 5.5789
 IR Inten    --    168.3023                24.9359               118.8762

                     94                     95                     96
                      A                      A                      A
 Frequencies --   3012.8786              3052.9065              3072.0998
 Red. masses --      1.0665                 1.0370                 1.0969
 Frc consts  --      5.7039                 5.6946                 6.0996
 IR Inten    --     69.7803                31.1384                21.9883

                     97                     98                     99
                      A                      A                      A
 Frequencies --   3099.3629              3108.0989              3109.2892
 Red. masses --      1.0756                 1.1008                 1.0910
 Frc consts  --      6.0877                 6.2656                 6.2146
 IR Inten    --     23.7798                12.8357                39.6296

                    100                    101                    102
                      A                      A                      A
 Frequencies --   3129.4640              3141.1309              3191.9960
 Red. masses --      1.1017                 1.1044                 1.0858
 Frc consts  --      6.3570                 6.4200                 6.5180
 IR Inten    --     16.6742                20.1402                 0.6865

                    103                    104                    105
                      A                      A                      A
 Frequencies --   3206.5113              3213.8266              3216.9996
 Red. masses --      1.0910                 1.0888                 1.0889
 Frc consts  --      6.6092                 6.6256                 6.6393
 IR Inten    --     24.5140                 4.2265                10.3730

                    106                    107                    108
                      A                      A                      A
 Frequencies --   3220.3931              3227.7168              3240.2450
 Red. masses --      1.0936                 1.0930                 1.0925
 Frc consts  --      6.6821                 6.7092                 6.7581
 IR Inten    --     16.1907                14.7761                 3.9085

 - Thermochemistry -
 -------------------
 Temperature   298.150 Kelvin.  Pressure   1.00000 Atm.
 Atom     1 has atomic number  6 and mass  12.00000

 Molecular mass:   266.14191 amu.
 Principal axes and moments of inertia in atomic units:
                           1         2         3
     Eigenvalues --  2575.121059578.68941**********
           X            0.99993   0.00694  -0.00907
           Y           -0.00695   0.99998  -0.00097
           Z            0.00906   0.00104   0.99996
 This molecule is an asymmetric top.
 Rotational symmetry number  1.
 Warning -- assumption of classical behavior for rotation
           may cause significant error
 Rotational temperatures (Kelvin)      0.03363     0.00904     0.00766
 Rotational constants (GHZ):           0.70084     0.18841     0.15961
 Zero-point vibrational energy     836184.4 (Joules/Mol)
                                  199.85286 (Kcal/Mol)
 Warning -- explicit consideration of  29 degrees of freedom as
           vibrations may cause significant error
 Vibrational temperatures:     54.00    61.37   101.99   126.96   202.29
          (Kelvin)            214.06   221.27   259.50   269.05   291.39
                              319.17   327.19   387.31   389.25   447.11
                              466.00   503.28   526.54   581.88   661.70
                              680.80   704.54   730.98   763.50   783.31
                              807.03   825.69   861.39   892.24   965.45
                             1019.67  1048.92  1076.93  1098.20  1110.29
                             1182.41  1215.09  1238.78  1240.84  1247.53
                             1291.04  1338.71  1384.19  1390.67  1426.91
                             1433.11  1472.43  1504.90  1519.08  1542.46
                             1552.00  1604.45  1614.24  1618.25  1639.70
                             1677.18  1690.52  1723.71  1748.36  1789.82
                             1825.67  1838.62  1848.53  1861.06  1911.16
                             1918.20  1951.33  1961.30  1973.77  1983.68
                             2048.78  2072.60  2076.32  2101.60  2129.82
                             2138.64  2168.02  2183.42  2188.25  2198.49
                             2200.29  2216.85  2221.37  2240.15  2247.19
                             2314.00  2357.69  2380.20  2396.65  2553.74
                             4227.05  4278.94  4287.70  4334.86  4392.45
                             4420.07  4459.29  4471.86  4473.57  4502.60
                             4519.39  4592.57  4613.45  4623.98  4628.54
                             4633.43  4643.96  4661.99

 Zero-point correction=                           0.318486 (Hartree/Particle)
 Thermal correction to Energy=                    0.335745
 Thermal correction to Enthalpy=                  0.336689
 Thermal correction to Gibbs Free Energy=         0.273528
 Sum of electronic and zero-point Energies=           -843.131863
 Sum of electronic and thermal Energies=              -843.114604
 Sum of electronic and thermal Enthalpies=            -843.113660
 Sum of electronic and thermal Free Energies=         -843.176820

                     E (Thermal)             CV                S
                      KCal/Mol        Cal/Mol-Kelvin    Cal/Mol-Kelvin
 Total                  210.683             68.183            132.933
 Electronic               0.000              0.000              0.000
 Translational            0.889              2.981             42.636
 Rotational               0.889              2.981             33.988
 Vibrational            208.906             62.222             56.309
 Vibration     1          0.594              1.982              5.385
 Vibration     2          0.595              1.980              5.132
 Vibration     3          0.598              1.968              4.129
 Vibration     4          0.601              1.957              3.699
 Vibration     5          0.615              1.913              2.796
 Vibration     6          0.618              1.904              2.688
 Vibration     7          0.619              1.898              2.625
 Vibration     8          0.629              1.866              2.325
 Vibration     9          0.632              1.858              2.257
 Vibration    10          0.639              1.836              2.110
 Vibration    11          0.648              1.808              1.944
 Vibration    12          0.651              1.799              1.899
 Vibration    13          0.674              1.730              1.601
 Vibration    14          0.674              1.727              1.593
 Vibration    15          0.700              1.653              1.358
 Vibration    16          0.708              1.628              1.290
 Vibration    17          0.727              1.576              1.167
 Vibration    18          0.739              1.542              1.097
 Vibration    19          0.770              1.461              0.947
 Vibration    20          0.818              1.339              0.766
 Vibration    21          0.830              1.310              0.729
 Vibration    22          0.846              1.273              0.684
 Vibration    23          0.863              1.232              0.638
 Vibration    24          0.886              1.182              0.586
 Vibration    25          0.900              1.152              0.556
 Vibration    26          0.917              1.116              0.522
 Vibration    27          0.930              1.088              0.497
 Vibration    28          0.957              1.035              0.452
 Vibration    29          0.980              0.989              0.416

 Optimization completed.
    -- Stationary point found.
 Normal termination of Gaussian 16 at Sun Dec 13 21:14:22 2020.

 ----------------------------------------------------------------------
 # B3LYP/6-311++G(d,p) empiricaldispersion=gd3bj scf=xqc pop=npa geom=c
 heck
 ----------------------------------------------------------------------

 ---------------------------------------
 CID_63777849_JID_10935_Energie_neutraal
 ---------------------------------------
 Structure from the checkpoint file:  "JID_10935.chk"
 Charge =  0 Multiplicity = 1

 SCF Done:  E(RB3LYP) =  -843.668789828     A.U. after   16 cycles
 Normal termination of Gaussian 16 at Sun Dec 13 21:22:04 2020.

 ----------------------------------------------------------------------
 # B3LYP/6-311++G(d,p) empiricaldispersion=gd3bj scf=xqc pop=npa geom=c
 heck
 ----------------------------------------------------------------------

 -------------------------------------
 CID_63777849_JID_10935_Energie_kation
 -------------------------------------
 Structure from the checkpoint file:  "JID_10935.chk"
 Charge =  1 Multiplicity = 2

 SCF Done:  E(UB3LYP) =  -843.418084121     A.U. after   24 cycles
 Normal termination of Gaussian 16 at Sun Dec 13 21:37:39 2020.
 Gaussian 16:  ES64L-G16RevA.03 25-Dec-2016

 ----------------------------------------------------------------------
 # B3LYP/6-311++G(d,p) empiricaldispersion=gd3bj scf=xqc pop=npa geom=c
 heck
 ----------------------------------------------------------------------

 ------------------------------------
 CID_63777849_JID_10935_Energie_anion
 ------------------------------------
 Structure from the checkpoint file:  "JID_10935.chk"
 Charge = -1 Multiplicity = 2

                         Standard orientation:
 ---------------------------------------------------------------------
 Center     Atomic      Atomic             Coordinates (Angstroms)
 Number     Number       Type             X           Y           Z
 ---------------------------------------------------------------------
      1          6           0       -4.123458   -1.988180    0.757051
      2          6           0       -3.121969   -0.935187    0.336156
      3          6           0       -3.515323    0.289826   -0.244313
      4          6           0       -2.524407    1.218810   -0.609332
      5          6           0       -1.182021    0.971873   -0.407086
      6          6           0       -0.770966   -0.244138    0.184682
      7          6           0       -1.765116   -1.180209    0.536431
      8          7           0        0.575618   -0.556344    0.372019
      9          6           0        0.956152   -1.971005    0.345909
     10          6           0        2.464395   -2.142812    0.212011
     11          7           0        3.000440   -1.165365   -0.734547
     12          6           0        2.830520    0.138427   -0.232094
     13          6           0        3.816732    1.130660   -0.272851
     14          6           0        3.589541    2.386144    0.293237
     15          6           0        2.390423    2.648360    0.951659
     16          6           0        1.405539    1.663340    1.013437
     17          6           0        1.591027    0.426135    0.390441
     18          6           0        4.302865   -1.507931   -1.277348
     19          6           0       -4.921686    0.631044   -0.496007
     20          8           0       -5.302488    1.684060   -0.985302
     21          1           0       -4.829002   -1.605260    1.502918
     22          1           0       -4.715418   -2.349866   -0.091436
     23          1           0       -3.612465   -2.850056    1.195825
     24          1           0       -2.849439    2.143290   -1.076191
     25          1           0       -0.442511    1.696539   -0.722710
     26          1           0       -1.478512   -2.117705    0.998348
     27          1           0        0.451017   -2.445327   -0.503224
     28          1           0        0.627303   -2.484598    1.261109
     29          1           0        2.953150   -2.043356    1.196575
     30          1           0        2.666297   -3.152257   -0.157519
     31          1           0        4.769042    0.925321   -0.747317
     32          1           0        4.363847    3.145445    0.237281
     33          1           0        2.218554    3.610251    1.424722
     34          1           0        0.471807    1.855890    1.530284
     35          1           0        4.547211   -0.836597   -2.105108
     36          1           0        5.115743   -1.452536   -0.532155
     37          1           0        4.261717   -2.527432   -1.670386
     38          1           0       -5.664338   -0.143202   -0.212795
 ---------------------------------------------------------------------

 SCF Done:  E(UB3LYP) =  -843.679698647     A.U. after   33 cycles
 SCF Done:  E(UB3LYP) =  -843.679698647     a.u. after    1 cycles

 The electronic state is 2-A.
 Alpha  occ. eigenvalues --  -18.93506 -14.23885 -14.23116 -10.11911 -10.11523
 Alpha  occ. eigenvalues --  -10.11287 -10.10849 -10.10488 -10.07797 -10.07387
 Alpha  occ. eigenvalues --  -10.07270 -10.06849 -10.06657 -10.06478 -10.05448
 Alpha  occ. eigenvalues --  -10.05049 -10.04013 -10.03636 -10.03251 -10.02182
 Alpha  occ. eigenvalues --   -0.87898  -0.86988  -0.83512  -0.74769  -0.72339
 Alpha  occ. eigenvalues --   -0.67500  -0.65724  -0.64751  -0.64150  -0.61052
 Alpha  occ. eigenvalues --   -0.57456  -0.56940  -0.54940  -0.52358  -0.48613
 Alpha  occ. eigenvalues --   -0.46890  -0.46216  -0.43552  -0.42181  -0.41351
 Alpha  occ. eigenvalues --   -0.40154  -0.39040  -0.36594  -0.35967  -0.35345
 Alpha  occ. eigenvalues --   -0.33994  -0.33602  -0.33426  -0.32395  -0.30957
 Alpha  occ. eigenvalues --   -0.30796  -0.30263  -0.29639  -0.28982  -0.28142
 Alpha  occ. eigenvalues --   -0.27208  -0.27060  -0.26770  -0.25870  -0.25269
 Alpha  occ. eigenvalues --   -0.24900  -0.23489  -0.22826  -0.20893  -0.19266
 Alpha  occ. eigenvalues --   -0.18438  -0.14340  -0.12478  -0.11761  -0.09427
 Alpha  occ. eigenvalues --   -0.07546   0.03621
 Alpha virt. eigenvalues --    0.05239   0.06819   0.07475   0.08282   0.08463
 Alpha virt. eigenvalues --    0.08813   0.09470   0.09605   0.09866   0.10617
 Alpha virt. eigenvalues --    0.10908   0.11435   0.11607   0.11884   0.12220

  Beta  occ. eigenvalues --  -18.93033 -14.23888 -14.23152 -10.11900 -10.11506
  Beta  occ. eigenvalues --  -10.11272 -10.10830 -10.10412 -10.07474 -10.07272
  Beta  occ. eigenvalues --  -10.07150 -10.06866 -10.06568 -10.06438 -10.05460
  Beta  occ. eigenvalues --  -10.04875 -10.04087 -10.03704 -10.03126 -10.02123
  Beta  occ. eigenvalues --   -0.87842  -0.86133  -0.83418  -0.74679  -0.72094
  Beta  occ. eigenvalues --   -0.67403  -0.65539  -0.64658  -0.64001  -0.60792
  Beta  occ. eigenvalues --   -0.57406  -0.56856  -0.54848  -0.52017  -0.48354
  Beta  occ. eigenvalues --   -0.46779  -0.46077  -0.43318  -0.41958  -0.41248
  Beta  occ. eigenvalues --   -0.40120  -0.38928  -0.36559  -0.35862  -0.35273
  Beta  occ. eigenvalues --   -0.33931  -0.33492  -0.33352  -0.32248  -0.30861
  Beta  occ. eigenvalues --   -0.30530  -0.30213  -0.29564  -0.28874  -0.28057
  Beta  occ. eigenvalues --   -0.27107  -0.26933  -0.26431  -0.25792  -0.25172
  Beta  occ. eigenvalues --   -0.23864  -0.23292  -0.21418  -0.20635  -0.18991
  Beta  occ. eigenvalues --   -0.17977  -0.13652  -0.11929  -0.11324  -0.09009
  Beta  occ. eigenvalues --   -0.06949
  Beta virt. eigenvalues --    0.05414   0.06824   0.07435   0.08092   0.08403
  Beta virt. eigenvalues --    0.08542   0.09206   0.09597   0.09763   0.10337
  Beta virt. eigenvalues --    0.10585   0.11019   0.11498   0.11601   0.11882

 Mulliken charges and spin densities:
               1          2
     1  C   -0.528548  -0.031019
     2  C   -0.372157   0.142376
     3  C    1.152532   0.064473
     4  C   -0.233210   0.138008
     5  C   -0.058673  -0.059956
     6  C   -0.856537   0.122820
     7  C   -0.389484  -0.022455
     8  N    0.489946  -0.015248
     9  C   -0.147349   0.272392
    10  C   -0.236839  -0.517846
    11  N    0.081975   0.086589
    12  C   -0.385040   0.075711
    13  C    0.140897   0.002245
    14  C   -0.312572  -0.034112
    15  C   -0.365465  -0.003644
    16  C    0.178371   0.081943
    17  C   -0.282323   0.015295
    18  C    0.021073  -0.332313
    19  C   -0.275999   0.170477
    20  O   -0.376643   0.161683
    21  H    0.121362   0.032355
    22  H    0.133585   0.021481
    23  H    0.126082   0.004991
    24  H    0.170985  -0.008329
    25  H    0.167020   0.002285
    26  H    0.033326   0.008207
    27  H    0.172555  -0.013277
    28  H    0.070466   0.048825
    29  H    0.085532   0.070663
    30  H    0.046474   0.107617
    31  H    0.086451   0.033799
    32  H    0.104997   0.018048
    33  H    0.140415   0.002942
    34  H    0.183712  -0.001483
    35  H    0.105674   0.035020
    36  H   -0.010647   0.148707
    37  H   -0.047498   0.185724
    38  H    0.065556  -0.014995
 Sum of Mulliken charges =  -1.00000   1.00000

 Dipole moment (field-independent basis, Debye):
    X=              9.2190    Y=             -4.2776    Z=              1.9404  Tot=             10.3466
 Quadrupole moment (field-independent basis, Debye-Ang):
   XX=           -214.8018   YY=           -139.5196   ZZ=           -135.1328
   XY=             19.5043   XZ=            -13.4902   YZ=              3.2290

 Summary of Natural Population Analysis:

                                       Natural Population
                Natural  -----------------------------------------------
    Atom  No    Charge         Core      Valence    Rydberg      Total
 -----------------------------------------------------------------------
      C    1   -0.29163      0.99959     2.28660    0.00544     3.29163
      C    2    0.03562      0.99950     1.95743    0.00746     2.96438
      C    3   -0.08279      0.99945     2.07505    0.00829     3.08279
      C    4   -0.04244      0.99954     2.03392    0.00899     3.04244
      C    5   -0.14626      0.99954     2.13955    0.00717     3.14626
      C    6    0.14913      0.99949     1.84062    0.01075     2.85087
      C    7   -0.15235      0.99950     2.14587    0.00698     3.15235
      N    8   -0.24457      0.99961     2.73510    0.00986     3.74457
      C    9   -0.07701      0.99962     2.06576    0.01163     3.07701
      C   10   -0.08610      0.99961     2.07478    0.01171     3.08610
      N   11   -0.25923      0.99966     2.74873    0.01085     3.75923
      C   12    0.08049      0.99945     1.90874    0.01133     2.91951
      C   13   -0.13058      0.99953     2.12287    0.00818     3.13058
      C   14   -0.09748      0.99958     2.08772    0.01017     3.09748
      C   15   -0.11781      0.99957     2.10932    0.00892     3.11781
      C   16   -0.10274      0.99953     2.09528    0.00792     3.10274
      C   17    0.08880      0.99945     1.89979    0.01196     2.91120
      C   18   -0.17795      0.99965     2.16952    0.00877     3.17795
      C   19    0.22928      0.99968     1.75044    0.02060     2.77072
      O   20   -0.25651      0.99989     3.24873    0.00790     4.25651
      H   21    0.10223      0.00000     0.39646    0.00131     0.39777
      H   22    0.10201      0.00000     0.39669    0.00130     0.39799
      H   23    0.09474      0.00000     0.40477    0.00049     0.40526
      H   24    0.10400      0.00000     0.39405    0.00195     0.39600
      H   25    0.10290      0.00000     0.39593    0.00116     0.39710
      H   26    0.09222      0.00000     0.40653    0.00125     0.40778
      H   27    0.09670      0.00000     0.40192    0.00138     0.40330
      H   28    0.08952      0.00000     0.40894    0.00154     0.41048
      H   29    0.08491      0.00000     0.41323    0.00186     0.41509
      H   30    0.09831      0.00000     0.40046    0.00123     0.40169
      H   31    0.09971      0.00000     0.39926    0.00103     0.40029
      H   32    0.09395      0.00000     0.40505    0.00100     0.40605
      H   33    0.09682      0.00000     0.40228    0.00090     0.40318
      H   34    0.10977      0.00000     0.38917    0.00106     0.39023
      H   35    0.09797      0.00000     0.40103    0.00100     0.40203
      H   36    0.08497      0.00000     0.41344    0.00159     0.41503
      H   37    0.09633      0.00000     0.40283    0.00084     0.40367
      H   38    0.03510      0.00000     0.46260    0.00230     0.46490
 =======================================================================
   * Total *    0.00002     19.99145    50.79045    0.21809    70.99998

 Normal termination of Gaussian 16 at Sun Dec 13 21:59:20 2020.
