 Gaussian 16, Revision A.03,

 -----------------------------------------------------------
 # opt freq B3LYP/6-31G(d) empiricaldispersion=gd3bj scf=xqc
 -----------------------------------------------------------

 ------------------------------
 CID_67814029_JID_4956_neutraal
 ------------------------------
 Symbolic Z-matrix:
 Charge =  0 Multiplicity = 1

 SCF Done:  E(RB3LYP) =  -989.673891741     A.U. after   15 cycles
 SCF Done:  E(RB3LYP) =  -989.682050506     A.U. after   13 cycles
 SCF Done:  E(RB3LYP) =  -989.682795156     A.U. after   12 cycles
 SCF Done:  E(RB3LYP) =  -989.683221076     A.U. after   13 cycles
 SCF Done:  E(RB3LYP) =  -989.683989337     A.U. after   13 cycles
 SCF Done:  E(RB3LYP) =  -989.684211847     A.U. after   12 cycles
 SCF Done:  E(RB3LYP) =  -989.684306283     A.U. after   12 cycles
 SCF Done:  E(RB3LYP) =  -989.684333062     A.U. after   11 cycles
 SCF Done:  E(RB3LYP) =  -989.684341531     A.U. after   10 cycles
 SCF Done:  E(RB3LYP) =  -989.684345611     A.U. after   10 cycles
 SCF Done:  E(RB3LYP) =  -989.684350352     A.U. after   10 cycles
 SCF Done:  E(RB3LYP) =  -989.684351073     A.U. after   10 cycles
 SCF Done:  E(RB3LYP) =  -989.684352454     A.U. after   10 cycles
 SCF Done:  E(RB3LYP) =  -989.684354321     A.U. after   10 cycles
 SCF Done:  E(RB3LYP) =  -989.684355222     A.U. after   10 cycles
 SCF Done:  E(RB3LYP) =  -989.684355293     A.U. after   10 cycles
 Optimization completed.
    -- Stationary point found.
 Normal termination of Gaussian 16 at Thu Dec 10 11:01:26 2020.

 --------------------------------------------------------------------
 #N Geom=AllCheck Guess=TCheck SCRF=Check GenChk RB3LYP/6-31G(d) Freq
 --------------------------------------------------------------------

 Structure from the checkpoint file:  "JID_4956.chk"
 ------------------------------
 CID_67814029_JID_4956_neutraal
 ------------------------------
 Charge =  0 Multiplicity = 1

 SCF Done:  E(RB3LYP) =  -989.684355293     A.U. after    1 cycles

  Exact polarizability: 133.901  -5.798 152.037  -9.655  -0.876 109.704
 Approx polarizability: 191.323 -17.128 233.703 -37.802   6.093 191.576

                      1                      2                      3
                      A                      A                      A
 Frequencies --     10.1203                35.2641                61.9041
 Red. masses --      3.8658                 3.5501                 3.4199
 Frc consts  --      0.0002                 0.0026                 0.0077
 IR Inten    --      0.2054                 0.4641                 0.4343

                      4                      5                      6
                      A                      A                      A
 Frequencies --     67.5207                88.3326               117.3264
 Red. masses --      3.7712                 3.0064                 2.3933
 Frc consts  --      0.0101                 0.0138                 0.0194
 IR Inten    --      0.1245                 1.0552                 0.2124

                      7                      8                      9
                      A                      A                      A
 Frequencies --    139.0476               173.8624               198.8227
 Red. masses --      2.1499                 4.0633                 3.1791
 Frc consts  --      0.0245                 0.0724                 0.0740
 IR Inten    --      0.6044                 2.3023                10.3765

                     10                     11                     12
                      A                      A                      A
 Frequencies --    214.7277               242.8916               288.5113
 Red. masses --      1.4981                 1.4686                 2.3913
 Frc consts  --      0.0407                 0.0510                 0.1173
 IR Inten    --      0.0991                 0.2080                 0.5871

                     13                     14                     15
                      A                      A                      A
 Frequencies --    298.8439               344.7604               371.9848
 Red. masses --      4.3661                 3.2421                 2.5910
 Frc consts  --      0.2297                 0.2270                 0.2112
 IR Inten    --      2.5178                 0.0894                 3.3543

                     16                     17                     18
                      A                      A                      A
 Frequencies --    395.1460               417.5102               446.7185
 Red. masses --      4.7431                 2.4866                 4.0924
 Frc consts  --      0.4363                 0.2554                 0.4812
 IR Inten    --      1.5166                 0.9723                 1.6438

                     19                     20                     21
                      A                      A                      A
 Frequencies --    465.7516               517.8039               590.1120
 Red. masses --      7.7943                 3.6062                 7.2196
 Frc consts  --      0.9962                 0.5697                 1.4813
 IR Inten    --      8.6870                 4.8431                12.6801

                     22                     23                     24
                      A                      A                      A
 Frequencies --    637.7487               647.9522               657.1307
 Red. masses --      4.8310                 5.3423                 5.9293
 Frc consts  --      1.1577                 1.3215                 1.5086
 IR Inten    --      5.0672                 2.0461                 4.6578

                     25                     26                     27
                      A                      A                      A
 Frequencies --    757.5824               767.0983               785.1584
 Red. masses --      1.5626                 4.2078                 1.3068
 Frc consts  --      0.5284                 1.4588                 0.4747
 IR Inten    --     12.2892                 4.2667                 5.8965

                     28                     29                     30
                      A                      A                      A
 Frequencies --    802.9826               818.3451               900.3465
 Red. masses --      2.4512                 2.7373                 1.8096
 Frc consts  --      0.9312                 1.0800                 0.8643
 IR Inten    --      9.9934                 3.1003                 2.9302

                     31                     32                     33
                      A                      A                      A
 Frequencies --    921.9677               928.1614               978.0409
 Red. masses --      2.1590                 1.5025                 4.5482
 Frc consts  --      1.0813                 0.7626                 2.5633
 IR Inten    --      4.0907                 8.3729                 4.1037

                     34                     35                     36
                      A                      A                      A
 Frequencies --    983.3201               989.1752              1012.5541
 Red. masses --      2.3867                 1.9007                 2.1237
 Frc consts  --      1.3597                 1.0958                 1.2829
 IR Inten    --      5.7125                11.0199                 5.6570

                     37                     38                     39
                      A                      A                      A
 Frequencies --   1074.7707              1078.4339              1089.9038
 Red. masses --      1.6044                 1.7011                 1.8207
 Frc consts  --      1.0919                 1.1656                 1.2743
 IR Inten    --     10.4786                 1.0592                 3.4733

                     40                     41                     42
                      A                      A                      A
 Frequencies --   1135.2182              1137.6916              1177.6541
 Red. masses --      2.4822                 1.8258                 3.2723
 Frc consts  --      1.8847                 1.3924                 2.6738
 IR Inten    --     41.3901                 0.6067                21.8441

                     43                     44                     45
                      A                      A                      A
 Frequencies --   1221.0773              1266.6465              1279.7660
 Red. masses --      2.0440                 3.3798                 1.3303
 Frc consts  --      1.7957                 3.1948                 1.2837
 IR Inten    --     46.4804                13.5988                 4.2903

                     46                     47                     48
                      A                      A                      A
 Frequencies --   1293.0169              1323.9694              1333.3484
 Red. masses --      1.2069                 1.2792                 1.3851
 Frc consts  --      1.1888                 1.3211                 1.4508
 IR Inten    --      1.2871                31.2411                 2.3260

                     49                     50                     51
                      A                      A                      A
 Frequencies --   1352.2950              1380.4085              1389.8118
 Red. masses --      1.5451                 1.4770                 1.6667
 Frc consts  --      1.6648                 1.6582                 1.8968
 IR Inten    --      7.5356                20.6011                38.6866

                     52                     53                     54
                      A                      A                      A
 Frequencies --   1415.7031              1419.1576              1444.9140
 Red. masses --      1.2995                 1.5112                 1.2509
 Frc consts  --      1.5345                 1.7932                 1.5388
 IR Inten    --      8.9287                23.2110                 9.5961

                     55                     56                     57
                      A                      A                      A
 Frequencies --   1445.1221              1485.6962              1498.2819
 Red. masses --      1.2210                 1.8249                 1.1296
 Frc consts  --      1.5024                 2.3732                 1.4940
 IR Inten    --     10.1758                78.0423                13.2739

                     58                     59                     60
                      A                      A                      A
 Frequencies --   1507.2545              1517.7279              1519.0118
 Red. masses --      1.7823                 1.0767                 1.0500
 Frc consts  --      2.3857                 1.4613                 1.4274
 IR Inten    --     82.8569                 5.6833                 3.2915

                     61                     62                     63
                      A                      A                      A
 Frequencies --   1521.4863              1526.1752              1533.6533
 Red. masses --      1.0671                 1.0590                 1.0683
 Frc consts  --      1.4554                 1.4532                 1.4804
 IR Inten    --      3.7926                 8.4418                 5.8977

                     64                     65                     66
                      A                      A                      A
 Frequencies --   1541.6819              1603.6236              1783.6605
 Red. masses --      1.0516                 9.1757                11.0047
 Frc consts  --      1.4726                13.9025                20.6278
 IR Inten    --      5.1820                20.3767               302.7414

                     67                     68                     69
                      A                      A                      A
 Frequencies --   3038.8411              3048.1860              3050.5064
 Red. masses --      1.0647                 1.0493                 1.0574
 Frc consts  --      5.7929                 5.7444                 5.7974
 IR Inten    --     11.2204                13.4596                38.2073

                     70                     71                     72
                      A                      A                      A
 Frequencies --   3058.7731              3071.8160              3074.1466
 Red. masses --      1.0392                 1.0593                 1.0977
 Frc consts  --      5.7284                 5.8893                 6.1120
 IR Inten    --     22.7654                14.7419                40.4332

                     73                     74                     75
                      A                      A                      A
 Frequencies --   3113.1739              3115.4159              3117.7456
 Red. masses --      1.0986                 1.0847                 1.1057
 Frc consts  --      6.2733                 6.2030                 6.3325
 IR Inten    --     33.5590                 3.4687                 2.9135

                     76                     77                     78
                      A                      A                      A
 Frequencies --   3120.8029              3129.6452              3129.8711
 Red. masses --      1.0772                 1.0980                 1.1006
 Frc consts  --      6.1814                 6.3365                 6.3526
 IR Inten    --     16.8279                23.9592                31.3369

                     79                     80                     81
                      A                      A                      A
 Frequencies --   3152.4689              3193.2067              3207.2317
 Red. masses --      1.1042                 1.1003                 1.0920
 Frc consts  --      6.4653                 6.6102                 6.6183
 IR Inten    --     17.6692                 5.8541                 5.7307

 - Thermochemistry -
 -------------------
 Temperature   298.150 Kelvin.  Pressure   1.00000 Atm.
 Atom     1 has atomic number  6 and mass  12.00000

 Molecular mass:   213.09358 amu.
 Principal axes and moments of inertia in atomic units:
                           1         2         3
     Eigenvalues --  2756.386743076.691954619.69662
           X            0.99663   0.07565   0.03163
           Y           -0.07531   0.99709  -0.01180
           Z           -0.03243   0.00938   0.99943
 This molecule is an asymmetric top.
 Rotational symmetry number  1.
 Warning -- assumption of classical behavior for rotation
           may cause significant error
 Rotational temperatures (Kelvin)      0.03142     0.02815     0.01875
 Rotational constants (GHZ):           0.65475     0.58658     0.39066
 Zero-point vibrational energy     633982.0 (Joules/Mol)
                                  151.52534 (Kcal/Mol)
 Warning -- explicit consideration of  21 degrees of freedom as
           vibrations may cause significant error
 Vibrational temperatures:     14.56    50.74    89.07    97.15   127.09
          (Kelvin)            168.81   200.06   250.15   286.06   308.95
                              349.47   415.10   429.97   496.03   535.20
                              568.53   600.70   642.73   670.11   745.00
                              849.04   917.58   932.26   945.46  1089.99
                             1103.68  1129.67  1155.31  1177.42  1295.40
                             1326.51  1335.42  1407.18  1414.78  1423.20
                             1456.84  1546.36  1551.63  1568.13  1633.33
                             1636.88  1694.38  1756.86  1822.42  1841.30
                             1860.36  1904.90  1918.39  1945.65  1986.10
                             1999.63  2036.88  2041.85  2078.91  2079.21
                             2137.59  2155.69  2168.60  2183.67  2185.52
                             2189.08  2195.83  2206.59  2218.14  2307.26
                             2566.29  4372.21  4385.66  4389.00  4400.89
                             4419.66  4423.01  4479.16  4482.39  4485.74
                             4490.14  4502.86  4503.19  4535.70  4594.31
                             4614.49

 Zero-point correction=                           0.241471 (Hartree/Particle)
 Thermal correction to Energy=                    0.256520
 Thermal correction to Enthalpy=                  0.257464
 Thermal correction to Gibbs Free Energy=         0.196856
 Sum of electronic and zero-point Energies=           -989.442884
 Sum of electronic and thermal Energies=              -989.427835
 Sum of electronic and thermal Enthalpies=            -989.426891
 Sum of electronic and thermal Free Energies=         -989.487499

                     E (Thermal)             CV                S
                      KCal/Mol        Cal/Mol-Kelvin    Cal/Mol-Kelvin
 Total                  160.969             54.491            127.560
 Electronic               0.000              0.000              0.000
 Translational            0.889              2.981             41.973
 Rotational               0.889              2.981             32.038
 Vibrational            159.191             48.530             53.549
 Vibration     1          0.593              1.987              7.987
 Vibration     2          0.594              1.982              5.509
 Vibration     3          0.597              1.972              4.396
 Vibration     4          0.598              1.970              4.224
 Vibration     5          0.601              1.957              3.697
 Vibration     6          0.608              1.935              3.144
 Vibration     7          0.615              1.914              2.817
 Vibration     8          0.627              1.875              2.393
 Vibration     9          0.637              1.842              2.144
 Vibration    10          0.645              1.819              2.003
 Vibration    11          0.659              1.775              1.782
 Vibration    12          0.685              1.695              1.483
 Vibration    13          0.692              1.676              1.423
 Vibration    14          0.723              1.586              1.190
 Vibration    15          0.744              1.530              1.072
 Vibration    16          0.762              1.481              0.981
 Vibration    17          0.781              1.432              0.900
 Vibration    18          0.806              1.368              0.806
 Vibration    19          0.823              1.326              0.750
 Vibration    20          0.873              1.211              0.615
 Vibration    21          0.947              1.053              0.467

                           ! Non-Optimized Parameters !
 Normal termination of Gaussian 16 at Thu Dec 10 11:09:44 2020.

 ----------------------------------------------------------------------
 # B3LYP/6-311++G(d,p) empiricaldispersion=gd3bj scf=xqc pop=npa geom=c
 heck
 ----------------------------------------------------------------------

 --------------------------------------
 CID_67814029_JID_4956_Energie_neutraal
 --------------------------------------
 Structure from the checkpoint file:  "JID_4956.chk"
 Charge =  0 Multiplicity = 1

 SCF Done:  E(RB3LYP) =  -989.874064162     A.U. after   15 cycles
 Normal termination of Gaussian 16 at Thu Dec 10 11:13:11 2020.

 ----------------------------------------------------------------------
 # B3LYP/6-311++G(d,p) empiricaldispersion=gd3bj scf=xqc pop=npa geom=c
 heck
 ----------------------------------------------------------------------

 ------------------------------------
 CID_67814029_JID_4956_Energie_kation
 ------------------------------------
 Structure from the checkpoint file:  "JID_4956.chk"
 Charge =  1 Multiplicity = 2

 SCF Done:  E(UB3LYP) =  -989.548214837     A.U. after   29 cycles
 Normal termination of Gaussian 16 at Thu Dec 10 11:21:25 2020.
 Gaussian 16:  ES64L-G16RevA.03 25-Dec-2016

 ----------------------------------------------------------------------
 # B3LYP/6-311++G(d,p) empiricaldispersion=gd3bj scf=xqc pop=npa geom=c
 heck
 ----------------------------------------------------------------------

 -----------------------------------
 CID_67814029_JID_4956_Energie_anion
 -----------------------------------
 Structure from the checkpoint file:  "JID_4956.chk"
 Charge = -1 Multiplicity = 2

                         Standard orientation:
 ---------------------------------------------------------------------
 Center     Atomic      Atomic             Coordinates (Angstroms)
 Number     Number       Type             X           Y           Z
 ---------------------------------------------------------------------
      1          6           0       -2.784292   -2.283473   -0.617195
      2          6           0       -2.785969   -0.756867   -0.736477
      3          6           0       -2.588843   -0.028965    0.599929
      4          6           0       -1.164784   -0.095348    1.167587
      5          7           0       -0.207097    0.666503    0.336573
      6          6           0       -0.298224    2.072273    0.437628
      7          8           0       -1.051953    2.618885    1.230093
      8          6           0        0.565808    2.757874   -0.515711
      9          7           0        1.362573    2.175339   -1.356309
     10          7           0        1.473865    0.802928   -1.336523
     11          6           0        0.713530    0.114255   -0.525107
     12         16           0        0.954714   -1.661656   -0.564262
     13          6           0        1.980390   -1.837582    0.965602
     14          6           0        3.339488   -1.155003    0.871474
     15          1           0       -1.830141   -2.658373   -0.233747
     16          1           0       -2.950716   -2.753292   -1.592603
     17          1           0       -3.580152   -2.622005    0.057553
     18          1           0       -2.014596   -0.436966   -1.450434
     19          1           0       -3.741401   -0.431164   -1.166090
     20          1           0       -2.868753    1.024596    0.510509
     21          1           0       -3.256205   -0.463736    1.356172
     22          1           0       -1.138504    0.362967    2.157946
     23          1           0       -0.810332   -1.121178    1.231516
     24          1           0        0.516517    3.843621   -0.530509
     25          1           0        1.404363   -1.474672    1.823030
     26          1           0        2.085311   -2.921557    1.077608
     27          1           0        3.235797   -0.077257    0.717523
     28          1           0        3.900003   -1.316788    1.799968
     29          1           0        3.920995   -1.555164    0.036438
 ---------------------------------------------------------------------

 SCF Done:  E(UB3LYP) =  -989.898587591     A.U. after   25 cycles

 The electronic state is 2-A.
 Alpha  occ. eigenvalues --  -88.72103 -18.94409 -14.21694 -14.17800 -14.16437
 Alpha  occ. eigenvalues --  -10.12163 -10.10983 -10.08683 -10.08435 -10.06101
 Alpha  occ. eigenvalues --  -10.05719 -10.05662 -10.05487 -10.02612  -7.80684
 Alpha  occ. eigenvalues --   -5.77069  -5.76727  -5.76055  -0.90517  -0.85694
 Alpha  occ. eigenvalues --   -0.79558  -0.70037  -0.68620  -0.66502  -0.61970
 Alpha  occ. eigenvalues --   -0.59195  -0.55309  -0.51490  -0.50526  -0.47173
 Alpha  occ. eigenvalues --   -0.46165  -0.40403  -0.37398  -0.36073  -0.35343
 Alpha  occ. eigenvalues --   -0.34343  -0.32879  -0.31343  -0.30208  -0.29741
 Alpha  occ. eigenvalues --   -0.28968  -0.27996  -0.27518  -0.26939  -0.26481
 Alpha  occ. eigenvalues --   -0.24672  -0.23938  -0.23001  -0.22788  -0.22096
 Alpha  occ. eigenvalues --   -0.20772  -0.17599  -0.16963  -0.12643  -0.11226
 Alpha  occ. eigenvalues --   -0.10251  -0.08255   0.03565
 Alpha virt. eigenvalues --    0.07341   0.07933   0.09438   0.09490   0.10625
 Alpha virt. eigenvalues --    0.10843   0.11437   0.12059   0.12298   0.13085
 Alpha virt. eigenvalues --    0.13529   0.13653   0.14248   0.14867   0.14980

  Beta  occ. eigenvalues --  -88.72111 -18.94296 -14.21298 -14.17952 -14.15955
  Beta  occ. eigenvalues --  -10.12147 -10.10604 -10.08559 -10.08453 -10.06100
  Beta  occ. eigenvalues --  -10.05716 -10.05660 -10.05462 -10.02260  -7.80689
  Beta  occ. eigenvalues --   -5.77080  -5.76745  -5.76057  -0.90182  -0.85261
  Beta  occ. eigenvalues --   -0.78907  -0.69647  -0.68548  -0.66159  -0.61859
  Beta  occ. eigenvalues --   -0.59038  -0.55075  -0.51187  -0.50066  -0.46997
  Beta  occ. eigenvalues --   -0.45930  -0.40110  -0.37025  -0.35853  -0.35242
  Beta  occ. eigenvalues --   -0.34286  -0.32613  -0.30796  -0.30019  -0.29479
  Beta  occ. eigenvalues --   -0.28858  -0.27678  -0.27281  -0.26735  -0.26349
  Beta  occ. eigenvalues --   -0.24517  -0.23463  -0.22795  -0.22528  -0.21921
  Beta  occ. eigenvalues --   -0.20118  -0.16817  -0.15533  -0.12492  -0.11080
  Beta  occ. eigenvalues --   -0.08843  -0.07812
  Beta virt. eigenvalues --    0.07124   0.07874   0.09170   0.09452   0.10510
  Beta virt. eigenvalues --    0.10690   0.11078   0.11390   0.12009   0.12660
  Beta virt. eigenvalues --    0.13334   0.13589   0.13661   0.14215   0.14868

 Mulliken charges and spin densities:
               1          2
     1  C   -0.531656  -0.045265
     2  C   -0.140538   0.020317
     3  C   -0.345798  -0.065924
     4  C   -0.077663  -0.042449
     5  N    0.346708   0.106073
     6  C    0.099812   0.059759
     7  O   -0.397821   0.034592
     8  C   -0.293020   0.276650
     9  N   -0.151198   0.212621
    10  N    0.194770  -0.093283
    11  C   -1.052190   0.268782
    12  S    0.267212   0.077487
    13  C   -0.123061  -0.127418
    14  C   -0.640485  -0.055736
    15  H    0.132416   0.014843
    16  H    0.116341   0.002036
    17  H    0.088624   0.020899
    18  H    0.193191   0.003495
    19  H    0.143306  -0.000629
    20  H    0.184039   0.008257
    21  H    0.051905   0.048231
    22  H    0.191497   0.025476
    23  H    0.043722   0.045041
    24  H    0.165331  -0.020889
    25  H    0.153198   0.007617
    26  H   -0.024013   0.201911
    27  H    0.201367   0.000225
    28  H    0.082193   0.016641
    29  H    0.121809   0.000640
 Sum of Mulliken charges =  -1.00000   1.00000

 Dipole moment (field-independent basis, Debye):
    X=             -2.4526    Y=             -5.8220    Z=              2.4238  Tot=              6.7665
 Quadrupole moment (field-independent basis, Debye-Ang):
   XX=           -114.6545   YY=           -129.2977   ZZ=           -112.4057
   XY=             -0.8296   XZ=             11.2864   YZ=             -0.6086

 Summary of Natural Population Analysis:

                                       Natural Population
                Natural  -----------------------------------------------
    Atom  No    Charge         Core      Valence    Rydberg      Total
 -----------------------------------------------------------------------
      C    1   -0.28899      0.99967     2.28523    0.00409     3.28899
      C    2   -0.19281      0.99964     2.18701    0.00615     3.19281
      C    3   -0.19537      0.99962     2.18509    0.01066     3.19537
      C    4   -0.09715      0.99962     2.08456    0.01297     3.09715
      N    5   -0.19794      0.99958     2.68591    0.01246     3.69794
      C    6    0.31276      0.99963     1.66703    0.02058     2.68724
      O    7   -0.32962      0.99988     3.32310    0.00664     4.32962
      C    8    0.03435      0.99961     1.95088    0.01516     2.96565
      N    9   -0.06573      0.99969     2.55012    0.01592     3.56573
      N   10   -0.20519      0.99964     2.69117    0.01438     3.70519
      C   11    0.19889      0.99955     1.77557    0.02600     2.80111
      S   12    0.08690      4.99957     2.89227    0.02126     7.91310
      C   13   -0.23401      0.99960     2.22323    0.01118     3.23401
      C   14   -0.29297      0.99966     2.28739    0.00593     3.29297
      H   15    0.10492      0.00000     0.39352    0.00156     0.39508
      H   16    0.09398      0.00000     0.40524    0.00078     0.40602
      H   17    0.08825      0.00000     0.41065    0.00111     0.41175
      H   18    0.10300      0.00000     0.39601    0.00099     0.39700
      H   19    0.09022      0.00000     0.40878    0.00099     0.40978
      H   20    0.11099      0.00000     0.38802    0.00099     0.38901
      H   21    0.08983      0.00000     0.40879    0.00138     0.41017
      H   22    0.10675      0.00000     0.39177    0.00148     0.39325
      H   23    0.10192      0.00000     0.39629    0.00179     0.39808
      H   24    0.08346      0.00000     0.41523    0.00131     0.41654
      H   25    0.09553      0.00000     0.40316    0.00131     0.40447
      H   26    0.09670      0.00000     0.40171    0.00159     0.40330
      H   27    0.11020      0.00000     0.38856    0.00124     0.38980
      H   28    0.09173      0.00000     0.40713    0.00114     0.40827
      H   29    0.09940      0.00000     0.39942    0.00117     0.40060
 =======================================================================
   * Total *    0.00000     17.99495    38.80285    0.20220    57.00000

 Normal termination of Gaussian 16 at Thu Dec 10 11:28:26 2020.
