 Gaussian 16, Revision A.03,

 -----------------------------------------------------------
 # opt freq B3LYP/6-31G(d) empiricaldispersion=gd3bj scf=xqc
 -----------------------------------------------------------

 ------------------------------
 CID_83091571_JID_9761_neutraal
 ------------------------------
 Symbolic Z-matrix:
 Charge =  0 Multiplicity = 1

 SCF Done:  E(RB3LYP) =  -857.061394787     A.U. after   14 cycles
 SCF Done:  E(RB3LYP) =  -857.065179281     A.U. after   12 cycles
 SCF Done:  E(RB3LYP) =  -857.066103392     A.U. after   12 cycles
 SCF Done:  E(RB3LYP) =  -857.066833756     A.U. after   12 cycles
 SCF Done:  E(RB3LYP) =  -857.067224452     A.U. after   12 cycles
 SCF Done:  E(RB3LYP) =  -857.067374101     A.U. after   12 cycles
 SCF Done:  E(RB3LYP) =  -857.067441987     A.U. after   12 cycles
 SCF Done:  E(RB3LYP) =  -857.067513662     A.U. after   11 cycles
 SCF Done:  E(RB3LYP) =  -857.067541167     A.U. after   11 cycles
 SCF Done:  E(RB3LYP) =  -857.067545683     A.U. after    9 cycles
 SCF Done:  E(RB3LYP) =  -857.067551129     A.U. after    9 cycles
 SCF Done:  E(RB3LYP) =  -857.067551445     A.U. after    9 cycles
 SCF Done:  E(RB3LYP) =  -857.067551710     A.U. after    9 cycles
 SCF Done:  E(RB3LYP) =  -857.067551914     A.U. after    8 cycles
 SCF Done:  E(RB3LYP) =  -857.067552080     A.U. after    8 cycles
 SCF Done:  E(RB3LYP) =  -857.067552149     A.U. after    7 cycles
 Optimization completed.
    -- Stationary point found.
 Normal termination of Gaussian 16 at Sun Dec 13 16:45:37 2020.

 --------------------------------------------------------------------
 #N Geom=AllCheck Guess=TCheck SCRF=Check GenChk RB3LYP/6-31G(d) Freq
 --------------------------------------------------------------------

 Structure from the checkpoint file:  "JID_9761.chk"
 ------------------------------
 CID_83091571_JID_9761_neutraal
 ------------------------------
 Charge =  0 Multiplicity = 1

 SCF Done:  E(RB3LYP) =  -857.067552149     A.U. after    1 cycles

  Exact polarizability: 188.305  -5.301 171.709  13.485   8.766 129.811
 Approx polarizability: 249.993  -8.092 264.436  31.411  19.948 209.799

                      1                      2                      3
                      A                      A                      A
 Frequencies --     16.5237                23.6002                27.9831
 Red. masses --      4.6510                 3.7383                 1.2281
 Frc consts  --      0.0007                 0.0012                 0.0006
 IR Inten    --      0.1611                 0.6829                 0.5009

                      4                      5                      6
                      A                      A                      A
 Frequencies --     39.1660                44.2422                61.8397
 Red. masses --      2.7248                 3.5592                 3.7198
 Frc consts  --      0.0025                 0.0041                 0.0084
 IR Inten    --      0.0566                 1.3919                 0.1467

                      7                      8                      9
                      A                      A                      A
 Frequencies --    103.1361               109.2151               123.2553
 Red. masses --      3.0740                 1.2378                 3.5724
 Frc consts  --      0.0193                 0.0087                 0.0320
 IR Inten    --      0.3573                 0.6654                 0.3494

                     10                     11                     12
                      A                      A                      A
 Frequencies --    134.4621               160.0381               181.5191
 Red. masses --      3.6874                 4.5994                 3.0902
 Frc consts  --      0.0393                 0.0694                 0.0600
 IR Inten    --      1.9165                 1.4104                 5.5144

                     13                     14                     15
                      A                      A                      A
 Frequencies --    209.8840               225.8662               245.8087
 Red. masses --      2.2832                 1.1438                 1.4680
 Frc consts  --      0.0593                 0.0344                 0.0523
 IR Inten    --      4.3009                 0.6783                 0.6485

                     16                     17                     18
                      A                      A                      A
 Frequencies --    263.5048               273.8101               277.2336
 Red. masses --      3.4948                 2.2152                 3.1698
 Frc consts  --      0.1430                 0.0979                 0.1435
 IR Inten    --      1.2084                 3.4682                 4.6856

                     19                     20                     21
                      A                      A                      A
 Frequencies --    314.1258               316.9278               341.8513
 Red. masses --      3.4622                 1.3455                 2.5600
 Frc consts  --      0.2013                 0.0796                 0.1763
 IR Inten    --      1.8978                72.2102                25.4998

                     22                     23                     24
                      A                      A                      A
 Frequencies --    363.1535               417.4025               422.1506
 Red. masses --      2.3405                 3.4044                 3.1590
 Frc consts  --      0.1819                 0.3495                 0.3317
 IR Inten    --      7.0954                 2.0027                 1.4954

                     25                     26                     27
                      A                      A                      A
 Frequencies --    430.1019               450.4749               495.8346
 Red. masses --      2.0451                 2.3242                 3.6392
 Frc consts  --      0.2229                 0.2779                 0.5271
 IR Inten    --      1.1156                 4.5359                 3.7344

                     28                     29                     30
                      A                      A                      A
 Frequencies --    565.6080               633.5914               642.9720
 Red. masses --      3.7877                 4.6651                 5.4810
 Frc consts  --      0.7139                 1.1034                 1.3350
 IR Inten    --      9.7952                 4.4423                 5.6650

                     31                     32                     33
                      A                      A                      A
 Frequencies --    651.9301               687.0149               702.3946
 Red. masses --      5.0166                 5.4605                 4.2234
 Frc consts  --      1.2562                 1.5185                 1.2276
 IR Inten    --      2.5293                 5.5555                 4.2307

                     34                     35                     36
                      A                      A                      A
 Frequencies --    709.4335               769.9884               789.4849
 Red. masses --      4.2230                 3.8836                 4.2618
 Frc consts  --      1.2523                 1.3566                 1.5651
 IR Inten    --     17.7759                18.9166                 7.4580

                     37                     38                     39
                      A                      A                      A
 Frequencies --    816.7539               832.3210               882.2825
 Red. masses --      1.4612                 2.7326                 3.3907
 Frc consts  --      0.5743                 1.1153                 1.5551
 IR Inten    --      8.2868                 3.0919                23.0481

                     40                     41                     42
                      A                      A                      A
 Frequencies --    885.4944               918.8043               928.4081
 Red. masses --      1.3721                 1.4844                 2.9037
 Frc consts  --      0.6339                 0.7383                 1.4746
 IR Inten    --      6.4087                 2.4496                 2.5794

                     43                     44                     45
                      A                      A                      A
 Frequencies --    946.2380               965.8807               971.2255
 Red. masses --      1.2122                 1.9219                 2.3125
 Frc consts  --      0.6395                 1.0564                 1.2852
 IR Inten    --      3.4692                10.9095                19.7544

                     46                     47                     48
                      A                      A                      A
 Frequencies --    983.2943               997.7087              1024.3213
 Red. masses --      1.5131                 9.0453                 1.6601
 Frc consts  --      0.8619                 5.3049                 1.0263
 IR Inten    --      0.4560                 5.9954                 4.6271

                     49                     50                     51
                      A                      A                      A
 Frequencies --   1038.6311              1054.3696              1077.8974
 Red. masses --      5.6576                 3.3529                 1.4970
 Frc consts  --      3.5959                 2.1961                 1.0247
 IR Inten    --     12.9410                29.7545                 1.9113

                     52                     53                     54
                      A                      A                      A
 Frequencies --   1084.5720              1094.7952              1157.5255
 Red. masses --      2.3770                 1.5238                 2.2296
 Frc consts  --      1.6474                 1.0760                 1.7601
 IR Inten    --     32.3340                14.8622                 2.2314

                     55                     56                     57
                      A                      A                      A
 Frequencies --   1161.3894              1173.5828              1192.7106
 Red. masses --      1.3190                 2.2848                 1.8303
 Frc consts  --      1.0482                 1.8540                 1.5340
 IR Inten    --      2.3193                21.4581                20.3925

                     58                     59                     60
                      A                      A                      A
 Frequencies --   1202.3452              1211.7356              1226.9967
 Red. masses --      2.0044                 1.7456                 2.1776
 Frc consts  --      1.7072                 1.5101                 1.9316
 IR Inten    --      4.6912                 5.0872                13.4154

                     61                     62                     63
                      A                      A                      A
 Frequencies --   1235.1803              1253.0193              1283.7108
 Red. masses --      1.7666                 1.2278                 1.9314
 Frc consts  --      1.5880                 1.1358                 1.8752
 IR Inten    --      4.1534                80.8504                 1.9272

                     64                     65                     66
                      A                      A                      A
 Frequencies --   1318.4708              1341.1119              1341.7280
 Red. masses --      3.5570                 1.8968                 3.1703
 Frc consts  --      3.6431                 2.0101                 3.3626
 IR Inten    --     20.4745                11.7190                10.0250

                     67                     68                     69
                      A                      A                      A
 Frequencies --   1350.6591              1362.7083              1376.0162
 Red. masses --      1.3514                 1.5713                 1.4781
 Frc consts  --      1.4525                 1.7192                 1.6489
 IR Inten    --      2.3635                41.8916                13.3268

                     70                     71                     72
                      A                      A                      A
 Frequencies --   1399.4285              1412.3846              1416.7469
 Red. masses --      1.3814                 2.1044                 1.5664
 Frc consts  --      1.5939                 2.4733                 1.8524
 IR Inten    --      3.1684                10.7655                 4.2078

                     73                     74                     75
                      A                      A                      A
 Frequencies --   1431.7221              1432.8812              1438.3821
 Red. masses --      1.8884                 1.3146                 1.6706
 Frc consts  --      2.2807                 1.5902                 2.0364
 IR Inten    --     15.6809                 6.6929                 2.9001

                     76                     77                     78
                      A                      A                      A
 Frequencies --   1440.3474              1454.3821              1475.8583
 Red. masses --      2.0315                 1.2437                 1.4336
 Frc consts  --      2.4831                 1.5499                 1.8398
 IR Inten    --     34.3807                 4.4653                16.3608

                     79                     80                     81
                      A                      A                      A
 Frequencies --   1490.8987              1496.9694              1504.1031
 Red. masses --      1.2542                 2.0156                 1.0521
 Frc consts  --      1.6426                 2.6613                 1.4024
 IR Inten    --      7.2726                20.9463                 7.7891

                     82                     83                     84
                      A                      A                      A
 Frequencies --   1512.6589              1512.8144              1516.2241
 Red. masses --      1.6740                 1.1186                 1.2841
 Frc consts  --      2.2568                 1.5083                 1.7393
 IR Inten    --     19.9849                 5.5451                 6.4463

                     85                     86                     87
                      A                      A                      A
 Frequencies --   1520.1444              1520.8535              1531.0372
 Red. masses --      1.1618                 1.2026                 1.4503
 Frc consts  --      1.5818                 1.6389                 2.0030
 IR Inten    --     10.4197                13.0115                26.6099

                     88                     89                     90
                      A                      A                      A
 Frequencies --   1534.5685              1535.0338              1539.5119
 Red. masses --      2.0685                 1.0929                 1.0881
 Frc consts  --      2.8699                 1.5173                 1.5195
 IR Inten    --      5.4180                 5.1905                11.3163

                     91                     92                     93
                      A                      A                      A
 Frequencies --   1551.8707              1563.9451              1608.1712
 Red. masses --      1.2941                 5.4704                 4.8575
 Frc consts  --      1.8363                 7.8833                 7.4016
 IR Inten    --      6.5944                18.0003                41.3311

                     94                     95                     96
                      A                      A                      A
 Frequencies --   3005.6897              3021.1980              3041.6310
 Red. masses --      1.0837                 1.0830                 1.0361
 Frc consts  --      5.7685                 5.8243                 5.6477
 IR Inten    --     52.3547                16.4208                25.3537

                     97                     98                     99
                      A                      A                      A
 Frequencies --   3046.6472              3049.6987              3071.8277
 Red. masses --      1.0388                 1.0380                 1.0327
 Frc consts  --      5.6810                 5.6878                 5.7416
 IR Inten    --     31.2549                28.6150                47.9223

                    100                    101                    102
                      A                      A                      A
 Frequencies --   3074.0155              3095.3429              3098.9260
 Red. masses --      1.0639                 1.1012                 1.0636
 Frc consts  --      5.9233                 6.2162                 6.0182
 IR Inten    --     18.3279                18.8403                18.5054

                    103                    104                    105
                      A                      A                      A
 Frequencies --   3105.2472              3111.5372              3119.1319
 Red. masses --      1.1011                 1.1010                 1.1019
 Frc consts  --      6.2554                 6.2802                 6.3165
 IR Inten    --     17.9885                41.9137                42.5983

                    106                    107                    108
                      A                      A                      A
 Frequencies --   3134.2098              3139.5576              3140.1619
 Red. masses --      1.1001                 1.0999                 1.1054
 Frc consts  --      6.3673                 6.3878                 6.4221
 IR Inten    --      8.7440                23.7183                14.4671

                    109                    110                    111
                      A                      A                      A
 Frequencies --   3146.1062              3164.4525              3167.0001
 Red. masses --      1.0992                 1.1038                 1.1050
 Frc consts  --      6.4103                 6.5126                 6.5299
 IR Inten    --     10.6987                 4.1417                 9.9472

                    112                    113                    114
                      A                      A                      A
 Frequencies --   3268.5794              3275.6740              3746.2582
 Red. masses --      1.0967                 1.0981                 1.0660
 Frc consts  --      6.9031                 6.9424                 8.8143
 IR Inten    --      9.8142                 0.2896                17.0540

 - Thermochemistry -
 -------------------
 Temperature   298.150 Kelvin.  Pressure   1.00000 Atm.
 Atom     1 has atomic number  6 and mass  12.00000

 Molecular mass:   263.17461 amu.
 Principal axes and moments of inertia in atomic units:
                           1         2         3
     Eigenvalues --  2591.760057996.889809136.22515
           X            0.99995  -0.00839   0.00503
           Y            0.00820   0.99934   0.03552
           Z           -0.00532  -0.03548   0.99936
 This molecule is an asymmetric top.
 Rotational symmetry number  1.
 Warning -- assumption of classical behavior for rotation
           may cause significant error
 Rotational temperatures (Kelvin)      0.03342     0.01083     0.00948
 Rotational constants (GHZ):           0.69634     0.22568     0.19754
 Zero-point vibrational energy     901872.1 (Joules/Mol)
                                  215.55261 (Kcal/Mol)
 Warning -- explicit consideration of  28 degrees of freedom as
           vibrations may cause significant error
 Vibrational temperatures:     23.77    33.96    40.26    56.35    63.65
          (Kelvin)             88.97   148.39   157.14   177.34   193.46
                              230.26   261.17   301.98   324.97   353.66
                              379.12   393.95   398.88   451.96   455.99
                              491.85   522.50   600.55   607.38   618.82
                              648.13   713.40   813.78   911.60   925.09
                              937.98   988.46  1010.59  1020.72  1107.84
                             1135.89  1175.13  1197.52  1269.41  1274.03
                             1321.95  1335.77  1361.43  1389.69  1397.38
                             1414.74  1435.48  1473.77  1494.36  1517.00
                             1550.85  1560.46  1575.17  1665.42  1670.98
                             1688.52  1716.04  1729.91  1743.42  1765.37
                             1777.15  1802.82  1846.97  1896.99  1929.56
                             1930.45  1943.30  1960.63  1979.78  2013.47
                             2032.11  2038.38  2059.93  2061.60  2069.51
                             2072.34  2092.53  2123.43  2145.07  2153.81
                             2164.07  2176.38  2176.60  2181.51  2187.15
                             2188.17  2202.82  2207.90  2208.57  2215.01
                             2232.80  2250.17  2313.80  4324.52  4346.83
                             4376.23  4383.45  4387.84  4419.67  4422.82
                             4453.51  4458.66  4467.76  4476.81  4487.74
                             4509.43  4517.12  4517.99  4526.55  4552.94
                             4556.61  4702.76  4712.96  5390.03

 Zero-point correction=                           0.343505 (Hartree/Particle)
 Thermal correction to Energy=                    0.363539
 Thermal correction to Enthalpy=                  0.364483
 Thermal correction to Gibbs Free Energy=         0.291772
 Sum of electronic and zero-point Energies=           -856.724047
 Sum of electronic and thermal Energies=              -856.704013
 Sum of electronic and thermal Enthalpies=            -856.703069
 Sum of electronic and thermal Free Energies=         -856.775780

                     E (Thermal)             CV                S
                      KCal/Mol        Cal/Mol-Kelvin    Cal/Mol-Kelvin
 Total                  228.124             72.778            153.034
 Electronic               0.000              0.000              0.000
 Translational            0.889              2.981             42.602
 Rotational               0.889              2.981             33.604
 Vibrational            226.347             66.817             76.828
 Vibration     1          0.593              1.986              7.013
 Vibration     2          0.593              1.985              6.306
 Vibration     3          0.593              1.984              5.967
 Vibration     4          0.594              1.981              5.301
 Vibration     5          0.595              1.980              5.059
 Vibration     6          0.597              1.973              4.398
 Vibration     7          0.605              1.947              3.394
 Vibration     8          0.606              1.942              3.283
 Vibration     9          0.610              1.930              3.049
 Vibration    10          0.613              1.919              2.881
 Vibration    11          0.622              1.891              2.549
 Vibration    12          0.630              1.865              2.313
 Vibration    13          0.642              1.826              2.045
 Vibration    14          0.650              1.802              1.912
 Vibration    15          0.660              1.770              1.760
 Vibration    16          0.670              1.740              1.638
 Vibration    17          0.676              1.722              1.572
 Vibration    18          0.678              1.716              1.551
 Vibration    19          0.702              1.647              1.341
 Vibration    20          0.704              1.641              1.326
 Vibration    21          0.721              1.592              1.203
 Vibration    22          0.737              1.548              1.109
 Vibration    23          0.780              1.432              0.901
 Vibration    24          0.784              1.422              0.885
 Vibration    25          0.791              1.405              0.858
 Vibration    26          0.809              1.360              0.794
 Vibration    27          0.851              1.259              0.669
 Vibration    28          0.921              1.106              0.513

                           ! Non-Optimized Parameters !
 Normal termination of Gaussian 16 at Sun Dec 13 17:08:28 2020.

 ----------------------------------------------------------------------
 # B3LYP/6-311++G(d,p) empiricaldispersion=gd3bj scf=xqc pop=npa geom=c
 heck
 ----------------------------------------------------------------------

 --------------------------------------
 CID_83091571_JID_9761_Energie_neutraal
 --------------------------------------
 Structure from the checkpoint file:  "JID_9761.chk"
 Charge =  0 Multiplicity = 1

 SCF Done:  E(RB3LYP) =  -857.306464233     A.U. after   15 cycles
 Normal termination of Gaussian 16 at Sun Dec 13 17:18:55 2020.

 ----------------------------------------------------------------------
 # B3LYP/6-311++G(d,p) empiricaldispersion=gd3bj scf=xqc pop=npa geom=c
 heck
 ----------------------------------------------------------------------

 ------------------------------------
 CID_83091571_JID_9761_Energie_kation
 ------------------------------------
 Structure from the checkpoint file:  "JID_9761.chk"
 Charge =  1 Multiplicity = 2

 SCF Done:  E(UB3LYP) =  -857.002840442     A.U. after   27 cycles
 Normal termination of Gaussian 16 at Sun Dec 13 17:46:02 2020.
 Gaussian 16:  ES64L-G16RevA.03 25-Dec-2016

 ----------------------------------------------------------------------
 # B3LYP/6-311++G(d,p) empiricaldispersion=gd3bj scf=xqc pop=npa geom=c
 heck
 ----------------------------------------------------------------------

 -----------------------------------
 CID_83091571_JID_9761_Energie_anion
 -----------------------------------
 Structure from the checkpoint file:  "JID_9761.chk"
 Charge = -1 Multiplicity = 2

                         Standard orientation:
 ---------------------------------------------------------------------
 Center     Atomic      Atomic             Coordinates (Angstroms)
 Number     Number       Type             X           Y           Z
 ---------------------------------------------------------------------
      1          6           0       -3.860903   -2.032570   -1.064885
      2          6           0       -3.250671   -0.902530   -0.294894
      3          7           0       -3.999216    0.131755    0.096347
      4          7           0       -3.146013    0.958938    0.747652
      5          6           0       -1.880176    0.480171    0.773808
      6          6           0       -1.898045   -0.737322    0.107871
      7          6           0       -0.739991   -1.653500   -0.128043
      8          6           0        0.286667   -1.127137   -1.158121
      9          6           0        0.719636    0.286029   -0.935715
     10          7           0        0.211709    1.338488   -1.574650
     11          6           0        0.848329    2.390207   -0.994414
     12          7           0        1.713985    2.069753   -0.042051
     13          7           0        1.619576    0.709146   -0.008835
     14          6           0        2.525044   -0.065708    0.833171
     15          6           0        3.780279   -0.546871    0.086773
     16          6           0        4.613357    0.618767   -0.454277
     17          6           0        4.603389   -1.442513    1.019861
     18          8           0       -0.011070   -1.903564    1.085408
     19          6           0       -3.632344    2.221556    1.263196
     20          1           0       -4.942084   -1.888416   -1.132141
     21          1           0       -3.459981   -2.089056   -2.084241
     22          1           0       -3.670154   -3.000080   -0.584779
     23          1           0       -1.072324    1.028537    1.236519
     24          1           0       -1.118475   -2.608088   -0.523878
     25          1           0        1.141775   -1.812320   -1.156741
     26          1           0       -0.173863   -1.162495   -2.148670
     27          1           0        0.670739    3.419557   -1.275697
     28          1           0        2.803899    0.591655    1.661264
     29          1           0        1.958867   -0.910074    1.228432
     30          1           0        3.443622   -1.156633   -0.764463
     31          1           0        4.977495    1.247856    0.367350
     32          1           0        5.483682    0.246818   -1.006656
     33          1           0        4.028469    1.257725   -1.121570
     34          1           0        4.016400   -2.295374    1.379949
     35          1           0        5.488048   -1.832625    0.505226
     36          1           0        4.950439   -0.878347    1.894892
     37          1           0       -0.666125   -1.942503    1.799434
     38          1           0       -3.926116    2.879883    0.440164
     39          1           0       -4.497822    2.048238    1.907813
     40          1           0       -2.835647    2.696235    1.839296
 ---------------------------------------------------------------------

 SCF Done:  E(UB3LYP) =  -857.295494946     A.U. after   31 cycles

 The electronic state is 2-A.
 Alpha  occ. eigenvalues --  -19.03293 -14.30356 -14.29729 -14.24501 -14.23006
 Alpha  occ. eigenvalues --  -14.20985 -10.14930 -10.14453 -10.12561 -10.12328
 Alpha  occ. eigenvalues --  -10.11728 -10.11281 -10.10422 -10.09655 -10.09548
 Alpha  occ. eigenvalues --  -10.07718 -10.07587 -10.07403 -10.07282  -0.98482
 Alpha  occ. eigenvalues --   -0.95686  -0.93537  -0.81345  -0.76296  -0.75818
 Alpha  occ. eigenvalues --   -0.71813  -0.70505  -0.67022  -0.65009  -0.61615
 Alpha  occ. eigenvalues --   -0.60244  -0.59203  -0.55284  -0.53200  -0.50736
 Alpha  occ. eigenvalues --   -0.49327  -0.47540  -0.46403  -0.44032  -0.42105
 Alpha  occ. eigenvalues --   -0.41042  -0.39495  -0.39077  -0.38721  -0.37237
 Alpha  occ. eigenvalues --   -0.35401  -0.34814  -0.34118  -0.33473  -0.33283
 Alpha  occ. eigenvalues --   -0.32728  -0.32487  -0.31125  -0.30428  -0.30245
 Alpha  occ. eigenvalues --   -0.29484  -0.29434  -0.28948  -0.28200  -0.27153
 Alpha  occ. eigenvalues --   -0.26363  -0.25218  -0.24825  -0.23681  -0.20330
 Alpha  occ. eigenvalues --   -0.19722  -0.19329  -0.18826  -0.16884  -0.15620
 Alpha  occ. eigenvalues --   -0.14550   0.03942
 Alpha virt. eigenvalues --    0.05597   0.06072   0.07159   0.07797   0.07987
 Alpha virt. eigenvalues --    0.08148   0.08620   0.08895   0.09458   0.09548
 Alpha virt. eigenvalues --    0.09709   0.10357   0.10888   0.11252   0.11585

  Beta  occ. eigenvalues --  -19.03260 -14.30347 -14.29727 -14.24494 -14.22997
  Beta  occ. eigenvalues --  -14.20978 -10.14920 -10.14435 -10.12561 -10.12294
  Beta  occ. eigenvalues --  -10.11718 -10.11268 -10.10420 -10.09642 -10.09540
  Beta  occ. eigenvalues --  -10.07692 -10.07560 -10.07403 -10.07271  -0.98468
  Beta  occ. eigenvalues --   -0.95676  -0.93473  -0.81329  -0.76276  -0.75802
  Beta  occ. eigenvalues --   -0.71789  -0.70482  -0.66986  -0.64972  -0.61587
  Beta  occ. eigenvalues --   -0.60204  -0.59165  -0.55236  -0.53189  -0.50701
  Beta  occ. eigenvalues --   -0.49292  -0.47508  -0.46374  -0.43993  -0.42062
  Beta  occ. eigenvalues --   -0.40996  -0.39464  -0.39049  -0.38692  -0.37211
  Beta  occ. eigenvalues --   -0.35381  -0.34780  -0.34094  -0.33444  -0.33250
  Beta  occ. eigenvalues --   -0.32701  -0.32462  -0.31086  -0.30406  -0.30218
  Beta  occ. eigenvalues --   -0.29458  -0.29408  -0.28919  -0.28178  -0.27126
  Beta  occ. eigenvalues --   -0.26333  -0.25190  -0.24798  -0.23661  -0.20300
  Beta  occ. eigenvalues --   -0.19690  -0.19296  -0.18809  -0.16848  -0.15600
  Beta  occ. eigenvalues --   -0.14528
  Beta virt. eigenvalues --    0.05941   0.06339   0.06783   0.07624   0.07946
  Beta virt. eigenvalues --    0.08240   0.08391   0.08885   0.09198   0.09605
  Beta virt. eigenvalues --    0.09916   0.10119   0.10588   0.11114   0.11414

 Mulliken charges and spin densities:
               1          2
     1  C    1.172628  -1.882902
     2  C   -0.762224   0.653722
     3  N   -0.310736   0.201053
     4  N    0.277930  -0.051381
     5  C   -1.731332   0.933817
     6  C    0.229651   0.492175
     7  C    0.386593  -0.738681
     8  C    0.700693  -1.561729
     9  C   -0.659169   0.568456
    10  N    0.048997  -0.004553
    11  C    0.032453  -0.063172
    12  N   -0.069796   0.013274
    13  N    0.401563   0.015597
    14  C   -0.018437  -0.919379
    15  C   -0.708095   1.290869
    16  C   -0.132143  -0.419308
    17  C    0.380161  -1.036349
    18  O   -0.191020   0.017383
    19  C    0.740548  -1.017226
    20  H    0.115259   0.037341
    21  H   -0.019790   0.176553
    22  H   -0.260273   0.424232
    23  H    0.058068   0.155575
    24  H   -0.323246   0.561009
    25  H   -0.005777   0.174797
    26  H    0.017920   0.220614
    27  H    0.071851   0.085211
    28  H   -0.093807   0.274073
    29  H    0.653251  -0.379329
    30  H    0.007923   0.145429
    31  H    0.100859   0.035644
    32  H   -0.101533   0.241435
    33  H    0.171306  -0.008302
    34  H   -0.180931   0.326604
    35  H   -0.212147   0.366876
    36  H    0.003031   0.126166
    37  H   -0.239895   0.498528
    38  H   -0.034177   0.206859
    39  H   -0.160043   0.342147
    40  H   -0.356117   0.496874
 Sum of Mulliken charges =  -1.00000   1.00000

 Dipole moment (field-independent basis, Debye):
    X=              1.4518    Y=              2.8527    Z=             -1.5999  Tot=              3.5785
 Quadrupole moment (field-independent basis, Debye-Ang):
   XX=           -201.6018   YY=           -168.3217   ZZ=           -152.7225
   XY=              5.1582   XZ=              2.7653   YZ=             -0.7082

 Summary of Natural Population Analysis:

                                       Natural Population
                Natural  -----------------------------------------------
    Atom  No    Charge         Core      Valence    Rydberg      Total
 -----------------------------------------------------------------------
      C    1   -0.30057      0.99963     2.29546    0.00548     3.30057
      C    2    0.08455      0.99954     1.90167    0.01424     2.91545
      N    3   -0.16247      0.99969     2.65161    0.01117     3.66247
      N    4   -0.10331      0.99966     2.59161    0.01204     3.60331
      C    5    0.01038      0.99949     1.97806    0.01206     2.98962
      C    6   -0.09677      0.99945     2.08515    0.01217     3.09677
      C    7    0.06536      0.99952     1.92025    0.01488     2.93464
      C    8   -0.21603      0.99957     2.20628    0.01019     3.21603
      C    9    0.20277      0.99959     1.77990    0.01774     2.79723
      N   10   -0.26409      0.99970     2.75539    0.00900     3.76409
      C   11    0.08305      0.99969     1.89889    0.01837     2.91695
      N   12   -0.16239      0.99974     2.65172    0.01093     3.66239
      N   13   -0.11631      0.99960     2.60321    0.01350     3.61631
      C   14   -0.09105      0.99957     2.07975    0.01173     3.09105
      C   15   -0.11845      0.99961     2.10957    0.00927     3.11845
      C   16   -0.28558      0.99965     2.28105    0.00488     3.28558
      C   17   -0.28305      0.99965     2.27856    0.00485     3.28305
      O   18   -0.37764      0.99990     3.37084    0.00690     4.37764
      C   19   -0.17076      0.99964     2.16279    0.00833     3.17076
      H   20    0.10889      0.00000     0.39017    0.00094     0.39111
      H   21    0.10393      0.00000     0.39509    0.00097     0.39607
      H   22    0.10631      0.00000     0.39237    0.00131     0.39369
      H   23    0.10918      0.00000     0.38894    0.00188     0.39082
      H   24    0.08912      0.00000     0.40789    0.00300     0.41088
      H   25    0.11193      0.00000     0.38627    0.00180     0.38807
      H   26    0.11738      0.00000     0.38132    0.00130     0.38262
      H   27    0.09131      0.00000     0.40790    0.00079     0.40869
      H   28    0.10413      0.00000     0.39442    0.00145     0.39587
      H   29    0.12307      0.00000     0.37479    0.00214     0.37693
      H   30    0.09435      0.00000     0.40354    0.00211     0.40565
      H   31    0.09695      0.00000     0.40218    0.00087     0.40305
      H   32    0.09774      0.00000     0.40144    0.00082     0.40226
      H   33    0.10540      0.00000     0.39360    0.00099     0.39460
      H   34    0.10362      0.00000     0.39525    0.00112     0.39638
      H   35    0.10095      0.00000     0.39799    0.00106     0.39905
      H   36    0.09585      0.00000     0.40311    0.00104     0.40415
      H   37    0.23777      0.00000     0.25626    0.00597     0.26223
      H   38    0.09959      0.00000     0.39930    0.00111     0.40041
      H   39    0.10289      0.00000     0.39576    0.00135     0.39711
      H   40    0.10200      0.00000     0.39673    0.00127     0.39800
 =======================================================================
   * Total *    0.00000     18.99289    51.76608    0.24103    71.00000

 Normal termination of Gaussian 16 at Sun Dec 13 18:16:22 2020.
