 Gaussian 16, Revision A.03,

 -----------------------------------------------------------
 # opt freq B3LYP/6-31G(d) empiricaldispersion=gd3bj scf=xqc
 -----------------------------------------------------------

 -------------------------------
 CID_114609499_JID_9255_neutraal
 -------------------------------
 Symbolic Z-matrix:
 Charge =  0 Multiplicity = 1

 SCF Done:  E(RB3LYP) =  -883.161342272     A.U. after   15 cycles
 SCF Done:  E(RB3LYP) =  -883.139814392     A.U. after   13 cycles
 SCF Done:  E(RB3LYP) =  -883.169426633     A.U. after   12 cycles
 SCF Done:  E(RB3LYP) =  -883.169545657     A.U. after   12 cycles
 SCF Done:  E(RB3LYP) =  -883.170628721     A.U. after   12 cycles
 SCF Done:  E(RB3LYP) =  -883.171127164     A.U. after   12 cycles
 SCF Done:  E(RB3LYP) =  -883.171324989     A.U. after   11 cycles
 SCF Done:  E(RB3LYP) =  -883.171556244     A.U. after   10 cycles
 SCF Done:  E(RB3LYP) =  -883.171810269     A.U. after   12 cycles
 SCF Done:  E(RB3LYP) =  -883.172005283     A.U. after   12 cycles
 SCF Done:  E(RB3LYP) =  -883.172832536     A.U. after    8 cycles
 SCF Done:  E(RB3LYP) =  -883.172832876     A.U. after    8 cycles
 SCF Done:  E(RB3LYP) =  -883.172833061     A.U. after    7 cycles
 SCF Done:  E(RB3LYP) =  -883.172833193     A.U. after    7 cycles
 SCF Done:  E(RB3LYP) =  -883.172833217     A.U. after    6 cycles
 Optimization completed.
    -- Stationary point found.
 Normal termination of Gaussian 16 at Sat Dec 12 09:50:42 2020.

 --------------------------------------------------------------------
 #N Geom=AllCheck Guess=TCheck SCRF=Check GenChk RB3LYP/6-31G(d) Freq
 --------------------------------------------------------------------

 Structure from the checkpoint file:  "JID_9255.chk"
 -------------------------------
 CID_114609499_JID_9255_neutraal
 -------------------------------
 Charge =  0 Multiplicity = 1

 SCF Done:  E(RB3LYP) =  -883.172833217     A.U. after    1 cycles

  Exact polarizability: 185.554  -5.254 173.525   8.805  -2.181 141.408
 Approx polarizability: 260.957  -7.682 260.458  12.659   6.758 207.626

                      1                      2                      3
                      A                      A                      A
 Frequencies --     31.2524                35.3840                42.6645
 Red. masses --      4.3918                 5.0942                 3.9560
 Frc consts  --      0.0025                 0.0038                 0.0042
 IR Inten    --      0.4899                 0.2167                 2.9568

                      4                      5                      6
                      A                      A                      A
 Frequencies --     61.4302                68.3259                91.1615
 Red. masses --      3.5214                 4.5620                 3.5429
 Frc consts  --      0.0078                 0.0125                 0.0173
 IR Inten    --      1.6670                 0.2708                 3.5007

                      7                      8                      9
                      A                      A                      A
 Frequencies --     99.2690               108.0562               136.9739
 Red. masses --      3.5574                 2.2797                 3.9972
 Frc consts  --      0.0207                 0.0157                 0.0442
 IR Inten    --      1.0753                 5.6071                 1.5176

                     10                     11                     12
                      A                      A                      A
 Frequencies --    159.7660               171.5831               176.0493
 Red. masses --      3.2035                 2.9543                 3.8378
 Frc consts  --      0.0482                 0.0512                 0.0701
 IR Inten    --      0.7953                 0.9846                 3.8472

                     13                     14                     15
                      A                      A                      A
 Frequencies --    199.6812               219.7272               238.5592
 Red. masses --      2.5684                 1.9700                 1.8839
 Frc consts  --      0.0603                 0.0560                 0.0632
 IR Inten    --      2.1756                 1.1601                 1.8196

                     16                     17                     18
                      A                      A                      A
 Frequencies --    239.9442               245.0224               252.2671
 Red. masses --      1.6559                 1.7523                 1.3347
 Frc consts  --      0.0562                 0.0620                 0.0500
 IR Inten    --      2.6467                 6.0146                 2.4907

                     19                     20                     21
                      A                      A                      A
 Frequencies --    261.0946               288.9527               337.3553
 Red. masses --      2.4013                 3.2778                 2.7637
 Frc consts  --      0.0964                 0.1612                 0.1853
 IR Inten    --      0.5222                 2.5975                 5.1178

                     22                     23                     24
                      A                      A                      A
 Frequencies --    350.7238               388.3955               405.1642
 Red. masses --      2.4730                 2.3670                 2.8420
 Frc consts  --      0.1792                 0.2104                 0.2749
 IR Inten    --      4.9751                 1.2573                 4.6703

                     25                     26                     27
                      A                      A                      A
 Frequencies --    421.2046               466.9282               476.2180
 Red. masses --      2.9387                 2.5567                 1.8667
 Frc consts  --      0.3072                 0.3284                 0.2494
 IR Inten    --      3.3294                25.6863                14.5193

                     28                     29                     30
                      A                      A                      A
 Frequencies --    501.4733               507.4753               523.3845
 Red. masses --      1.5263                 2.4419                 3.5573
 Frc consts  --      0.2261                 0.3705                 0.5741
 IR Inten    --     54.1616                 6.3403                 1.5221

                     31                     32                     33
                      A                      A                      A
 Frequencies --    558.2682               625.1173               657.1685
 Red. masses --      3.2021                 3.8423                 3.5781
 Frc consts  --      0.5880                 0.8846                 0.9105
 IR Inten    --      0.8485                 3.2404                 2.0953

                     34                     35                     36
                      A                      A                      A
 Frequencies --    679.2323               714.8766               731.9173
 Red. masses --      3.3759                 1.9007                 2.1319
 Frc consts  --      0.9176                 0.5723                 0.6729
 IR Inten    --      7.9129                20.0930                17.0777

                     37                     38                     39
                      A                      A                      A
 Frequencies --    777.2616               806.4725               810.2535
 Red. masses --      4.6114                 1.6263                 1.6114
 Frc consts  --      1.6414                 0.6232                 0.6233
 IR Inten    --     23.1059                23.3129                 1.5305

                     40                     41                     42
                      A                      A                      A
 Frequencies --    835.0265               859.5883               862.1956
 Red. masses --      2.4659                 1.8571                 1.5009
 Frc consts  --      1.0130                 0.8085                 0.6574
 IR Inten    --      6.6440                19.8772                 4.4992

                     43                     44                     45
                      A                      A                      A
 Frequencies --    873.1944               913.0803               932.8981
 Red. masses --      2.2379                 3.6619                 2.7766
 Frc consts  --      1.0054                 1.7988                 1.4237
 IR Inten    --      3.1723                 5.6660                 2.9936

                     46                     47                     48
                      A                      A                      A
 Frequencies --    945.1687               964.4446               967.6676
 Red. masses --      1.1676                 1.6970                 1.6574
 Frc consts  --      0.6146                 0.9300                 0.9144
 IR Inten    --      1.5149                27.1568                20.5553

                     49                     50                     51
                      A                      A                      A
 Frequencies --    988.8240              1040.4954              1049.9291
 Red. masses --      1.9945                 1.5890                 2.5170
 Frc consts  --      1.1490                 1.0135                 1.6347
 IR Inten    --      2.9042                12.5834                17.6610

                     52                     53                     54
                      A                      A                      A
 Frequencies --   1062.3505              1089.1025              1098.3452
 Red. masses --      1.7669                 2.2864                 2.5789
 Frc consts  --      1.1749                 1.5979                 1.8330
 IR Inten    --      8.1641                16.6803                18.4448

                     55                     56                     57
                      A                      A                      A
 Frequencies --   1107.7982              1123.1501              1136.2449
 Red. masses --      2.5212                 1.4011                 2.1183
 Frc consts  --      1.8230                 1.0414                 1.6113
 IR Inten    --     31.4158                15.4336                12.3186

                     58                     59                     60
                      A                      A                      A
 Frequencies --   1158.0424              1166.6792              1172.4440
 Red. masses --      2.6650                 2.2528                 3.8778
 Frc consts  --      2.1057                 1.8066                 3.1406
 IR Inten    --     20.6348                12.2375               104.3966

                     61                     62                     63
                      A                      A                      A
 Frequencies --   1191.4444              1204.2637              1221.8803
 Red. masses --      1.3465                 1.8322                 1.3720
 Frc consts  --      1.1262                 1.5655                 1.2069
 IR Inten    --      1.4681                47.0664                31.5847

                     64                     65                     66
                      A                      A                      A
 Frequencies --   1223.7040              1240.3372              1245.9566
 Red. masses --      1.3382                 2.1287                 1.8079
 Frc consts  --      1.1806                 1.9295                 1.6536
 IR Inten    --      1.7280                 5.9259                50.0846

                     67                     68                     69
                      A                      A                      A
 Frequencies --   1266.5319              1275.5188              1303.6105
 Red. masses --      1.7090                 1.3202                 1.4500
 Frc consts  --      1.6152                 1.2655                 1.4518
 IR Inten    --     56.6802                10.1349                 5.9557

                     70                     71                     72
                      A                      A                      A
 Frequencies --   1325.9155              1353.0316              1377.5238
 Red. masses --      1.5211                 1.8818                 1.3378
 Frc consts  --      1.5756                 2.0297                 1.4956
 IR Inten    --     50.6893                14.6861                 7.0496

                     73                     74                     75
                      A                      A                      A
 Frequencies --   1389.4337              1403.0312              1407.7182
 Red. masses --      1.8672                 1.3876                 1.6331
 Frc consts  --      2.1238                 1.6093                 1.9067
 IR Inten    --    128.5152                 9.7696                35.6256

                     76                     77                     78
                      A                      A                      A
 Frequencies --   1416.2495              1419.6455              1428.0106
 Red. masses --      1.4146                 1.2881                 1.3792
 Frc consts  --      1.6717                 1.5295                 1.6570
 IR Inten    --      8.6513                12.1304                40.4098

                     79                     80                     81
                      A                      A                      A
 Frequencies --   1431.8658              1437.2520              1442.2137
 Red. masses --      1.3569                 1.2807                 1.2920
 Frc consts  --      1.6391                 1.5587                 1.5834
 IR Inten    --     16.6612                28.9947                16.3969

                     82                     83                     84
                      A                      A                      A
 Frequencies --   1453.2663              1462.1588              1484.3061
 Red. masses --      1.8654                 2.3487                 2.1244
 Frc consts  --      2.3211                 2.9585                 2.7577
 IR Inten    --     12.8637                 5.9341                72.2081

                     85                     86                     87
                      A                      A                      A
 Frequencies --   1499.6228              1501.0041              1504.4874
 Red. masses --      1.1136                 1.6302                 1.2554
 Frc consts  --      1.4756                 2.1640                 1.6742
 IR Inten    --      6.1231                15.2172                 7.0380

                     88                     89                     90
                      A                      A                      A
 Frequencies --   1509.8845              1515.5173              1518.9569
 Red. masses --      1.0463                 1.0505                 1.7248
 Frc consts  --      1.4054                 1.4215                 2.3447
 IR Inten    --      1.2299                 4.9057                75.5862

                     91                     92                     93
                      A                      A                      A
 Frequencies --   1523.9828              1527.1754              1532.4583
 Red. masses --      1.1103                 1.0907                 1.0725
 Frc consts  --      1.5193                 1.4987                 1.4840
 IR Inten    --     13.1964                 8.9927                 8.3244

                     94                     95                     96
                      A                      A                      A
 Frequencies --   1532.5879              1535.3804              1552.2188
 Red. masses --      1.0895                 1.0551                 1.0615
 Frc consts  --      1.5077                 1.4654                 1.5069
 IR Inten    --      6.1848                 4.7796                 7.1197

                     97                     98                     99
                      A                      A                      A
 Frequencies --   1557.5844              1588.5905              1717.4198
 Red. masses --      1.0928                 4.3930                 9.7845
 Frc consts  --      1.5620                 6.5318                17.0037
 IR Inten    --      1.0486                34.7177               225.9466

                    100                    101                    102
                      A                      A                      A
 Frequencies --   2985.9868              2998.0599              3009.9907
 Red. masses --      1.0550                 1.0461                 1.0691
 Frc consts  --      5.5420                 5.5400                 5.7066
 IR Inten    --     32.0213                67.8448                58.1026

                    103                    104                    105
                      A                      A                      A
 Frequencies --   3014.7931              3031.6958              3040.7146
 Red. masses --      1.0732                 1.0952                 1.1045
 Frc consts  --      5.7472                 5.9306                 6.0170
 IR Inten    --     36.5567                60.4303                51.5801

                    106                    107                    108
                      A                      A                      A
 Frequencies --   3043.9373              3051.8714              3060.5745
 Red. masses --      1.0639                 1.0403                 1.0420
 Frc consts  --      5.8080                 5.7088                 5.7505
 IR Inten    --     27.3779                26.9176                19.5364

                    109                    110                    111
                      A                      A                      A
 Frequencies --   3073.6706              3086.3326              3093.5247
 Red. masses --      1.0798                 1.0984                 1.0968
 Frc consts  --      6.0105                 6.1646                 6.1844
 IR Inten    --     31.4727                35.1900                71.8487

                    112                    113                    114
                      A                      A                      A
 Frequencies --   3096.7979              3110.3122              3122.1916
 Red. masses --      1.0596                 1.1008                 1.1023
 Frc consts  --      5.9868                 6.2742                 6.3312
 IR Inten    --     24.5251                39.5533                38.7422

                    115                    116                    117
                      A                      A                      A
 Frequencies --   3138.9420              3146.1147              3147.9759
 Red. masses --      1.0894                 1.0969                 1.1076
 Frc consts  --      6.3241                 6.3971                 6.4672
 IR Inten    --     11.1972                23.1003                 8.5656

                    118                    119                    120
                      A                      A                      A
 Frequencies --   3167.7579              3172.9254              3258.6900
 Red. masses --      1.0991                 1.0989                 1.0896
 Frc consts  --      6.4984                 6.5181                 6.8172
 IR Inten    --      3.0410                13.0020                 2.9753

                    121                    122                    123
                      A                      A                      A
 Frequencies --   3269.7125              3284.9932              3666.2616
 Red. masses --      1.0948                 1.1044                 1.0661
 Frc consts  --      6.8958                 7.0217                 8.4433
 IR Inten    --      1.6571                 2.6217               185.1198

 - Thermochemistry -
 -------------------
 Temperature   298.150 Kelvin.  Pressure   1.00000 Atm.
 Atom     1 has atomic number  6 and mass  12.00000

 Molecular mass:   268.17869 amu.
 Principal axes and moments of inertia in atomic units:
                           1         2         3
     Eigenvalues --  4414.307415518.006196426.56797
           X            0.99995   0.00473  -0.00897
           Y           -0.00508   0.99922  -0.03912
           Z            0.00878   0.03916   0.99919
 This molecule is an asymmetric top.
 Rotational symmetry number  1.
 Warning -- assumption of classical behavior for rotation
           may cause significant error
 Rotational temperatures (Kelvin)      0.01962     0.01570     0.01348
 Rotational constants (GHZ):           0.40884     0.32706     0.28083
 Zero-point vibrational energy     991753.8 (Joules/Mol)
                                  237.03485 (Kcal/Mol)
 Warning -- explicit consideration of  31 degrees of freedom as
           vibrations may cause significant error
 Vibrational temperatures:     44.97    50.91    61.38    88.38    98.31
          (Kelvin)            131.16   142.83   155.47   197.07   229.87
                              246.87   253.30   287.30   316.14   343.23
                              345.23   352.53   362.96   375.66   415.74
                              485.38   504.61   558.81   582.94   606.02
                              671.81   685.17   721.51   730.14   753.03
                              803.22   899.40   945.52   977.26  1028.55
                             1053.07  1118.31  1160.33  1165.77  1201.42
                             1236.76  1240.51  1256.33  1313.72  1342.23
                             1359.89  1387.62  1392.26  1422.70  1497.04
                             1510.61  1528.49  1566.98  1580.27  1593.87
                             1615.96  1634.80  1666.16  1678.59  1686.89
                             1714.22  1732.67  1758.01  1760.64  1784.57
                             1792.65  1822.26  1835.19  1875.60  1907.70
                             1946.71  1981.95  1999.09  2018.65  2025.39
                             2037.67  2042.55  2054.59  2060.14  2067.89
                             2075.02  2090.93  2103.72  2135.59  2157.62
                             2159.61  2164.62  2172.39  2180.49  2185.44
                             2192.67  2197.26  2204.87  2205.05  2209.07
                             2233.30  2241.02  2285.63  2470.98  4296.17
                             4313.54  4330.71  4337.61  4361.93  4374.91
                             4379.55  4390.96  4403.48  4422.33  4440.54
                             4450.89  4455.60  4475.05  4492.14  4516.24
                             4526.56  4529.24  4557.70  4565.13  4688.53
                             4704.39  4726.37  5274.93

 Zero-point correction=                           0.377739 (Hartree/Particle)
 Thermal correction to Energy=                    0.398360
 Thermal correction to Enthalpy=                  0.399305
 Thermal correction to Gibbs Free Energy=         0.327971
 Sum of electronic and zero-point Energies=           -882.795094
 Sum of electronic and thermal Energies=              -882.774473
 Sum of electronic and thermal Enthalpies=            -882.773529
 Sum of electronic and thermal Free Energies=         -882.844862

                     E (Thermal)             CV                S
                      KCal/Mol        Cal/Mol-Kelvin    Cal/Mol-Kelvin
 Total                  249.975             76.701            150.134
 Electronic               0.000              0.000              0.000
 Translational            0.889              2.981             42.659
 Rotational               0.889              2.981             33.415
 Vibrational            248.197             70.739             74.061
 Vibration     1          0.594              1.983              5.748
 Vibration     2          0.594              1.982              5.502
 Vibration     3          0.595              1.980              5.131
 Vibration     4          0.597              1.973              4.411
 Vibration     5          0.598              1.969              4.201
 Vibration     6          0.602              1.955              3.635
 Vibration     7          0.604              1.950              3.469
 Vibration     8          0.606              1.943              3.304
 Vibration     9          0.614              1.916              2.846
 Vibration    10          0.622              1.892              2.553
 Vibration    11          0.626              1.877              2.418
 Vibration    12          0.628              1.872              2.370
 Vibration    13          0.638              1.840              2.136
 Vibration    14          0.647              1.811              1.961
 Vibration    15          0.657              1.782              1.814
 Vibration    16          0.657              1.779              1.803
 Vibration    17          0.660              1.771              1.766
 Vibration    18          0.664              1.759              1.715
 Vibration    19          0.669              1.744              1.654
 Vibration    20          0.686              1.694              1.480
 Vibration    21          0.718              1.601              1.225
 Vibration    22          0.728              1.574              1.163
 Vibration    23          0.757              1.495              1.006
 Vibration    24          0.770              1.459              0.944
 Vibration    25          0.784              1.424              0.888
 Vibration    26          0.824              1.323              0.746
 Vibration    27          0.833              1.303              0.720
 Vibration    28          0.857              1.247              0.654
 Vibration    29          0.863              1.233              0.640
 Vibration    30          0.878              1.198              0.602
 Vibration    31          0.914              1.122              0.527

 Optimization completed.
    -- Stationary point found.
 Normal termination of Gaussian 16 at Sat Dec 12 10:17:37 2020.

 ----------------------------------------------------------------------
 # B3LYP/6-311++G(d,p) empiricaldispersion=gd3bj scf=xqc pop=npa geom=c
 heck
 ----------------------------------------------------------------------

 ---------------------------------------
 CID_114609499_JID_9255_Energie_neutraal
 ---------------------------------------
 Structure from the checkpoint file:  "JID_9255.chk"
 Charge =  0 Multiplicity = 1

 SCF Done:  E(RB3LYP) =  -883.431400911     A.U. after   15 cycles
 Normal termination of Gaussian 16 at Sat Dec 12 10:29:20 2020.

 ----------------------------------------------------------------------
 # B3LYP/6-311++G(d,p) empiricaldispersion=gd3bj scf=xqc pop=npa geom=c
 heck
 ----------------------------------------------------------------------

 -------------------------------------
 CID_114609499_JID_9255_Energie_kation
 -------------------------------------
 Structure from the checkpoint file:  "JID_9255.chk"
 Charge =  1 Multiplicity = 2

 SCF Done:  E(UB3LYP) =  -883.142200856     A.U. after   28 cycles
 Normal termination of Gaussian 16 at Sat Dec 12 11:00:37 2020.
 Gaussian 16:  ES64L-G16RevA.03 25-Dec-2016

 ----------------------------------------------------------------------
 # B3LYP/6-311++G(d,p) empiricaldispersion=gd3bj scf=xqc pop=npa geom=c
 heck
 ----------------------------------------------------------------------

 ------------------------------------
 CID_114609499_JID_9255_Energie_anion
 ------------------------------------
 Structure from the checkpoint file:  "JID_9255.chk"
 Charge = -1 Multiplicity = 2

                         Standard orientation:
 ---------------------------------------------------------------------
 Center     Atomic      Atomic             Coordinates (Angstroms)
 Number     Number       Type             X           Y           Z
 ---------------------------------------------------------------------
      1          6           0        2.462577   -2.481286    0.364693
      2          6           0        2.710544   -1.010934    0.001630
      3          6           0        3.550838   -0.845100   -1.266577
      4          7           0        1.450348   -0.231472   -0.066514
      5          6           0        1.026376    0.366341    1.210418
      6          6           0        1.820262    1.604351    1.636854
      7          6           0        1.518729    2.859356    0.818221
      8          8           0        0.187660    3.314956    0.992201
      9          6           0        0.542929   -0.528711   -1.056711
     10          8           0        0.687185   -1.463147   -1.849326
     11          6           0       -0.646514    0.359379   -1.167092
     12          6           0       -0.748876    1.714212   -1.453532
     13          6           0       -2.132152    2.022471   -1.575539
     14          6           0       -2.826552    0.851165   -1.353706
     15          7           0       -1.923354   -0.158500   -1.134035
     16          6           0       -2.269455   -1.534630   -0.805518
     17          6           0       -1.884031   -1.911608    0.619743
     18          8           0       -2.461597   -0.978006    1.504743
     19          6           0       -2.148291   -1.245013    2.855606
     20          1           0        1.933870   -2.987907   -0.444197
     21          1           0        1.866384   -2.563290    1.281480
     22          1           0        3.416979   -2.989778    0.541005
     23          1           0        3.270843   -0.553401    0.823345
     24          1           0        3.059425   -1.305291   -2.124884
     25          1           0        3.711809    0.216841   -1.480580
     26          1           0        4.528213   -1.319002   -1.123533
     27          1           0       -0.036102    0.607899    1.148628
     28          1           0        1.125300   -0.407333    1.985860
     29          1           0        1.574958    1.813123    2.685535
     30          1           0        2.897613    1.395179    1.597171
     31          1           0        2.167660    3.675458    1.153517
     32          1           0        1.752315    2.674805   -0.241864
     33          1           0       -0.393579    2.762079    0.440453
     34          1           0        0.084210    2.376351   -1.643656
     35          1           0       -2.563969    2.986353   -1.805275
     36          1           0       -3.887166    0.649945   -1.320011
     37          1           0       -3.349982   -1.632144   -0.933045
     38          1           0       -1.766929   -2.207281   -1.505759
     39          1           0       -2.243302   -2.934202    0.826280
     40          1           0       -0.788983   -1.924928    0.731395
     41          1           0       -2.533436   -2.226113    3.175703
     42          1           0       -1.060838   -1.225667    3.029265
     43          1           0       -2.618542   -0.462278    3.455135
 ---------------------------------------------------------------------

 SCF Done:  E(UB3LYP) =  -883.421420430     A.U. after   33 cycles
 SCF Done:  E(UB3LYP) =  -883.421420429     a.u. after    1 cycles

 The electronic state is 2-A.
 Alpha  occ. eigenvalues --  -19.04199 -19.02857 -19.00332 -14.28475 -14.25418
 Alpha  occ. eigenvalues --  -10.19107 -10.13515 -10.12997 -10.12756 -10.12024
 Alpha  occ. eigenvalues --  -10.12023 -10.11894 -10.11765 -10.11454 -10.08411
 Alpha  occ. eigenvalues --  -10.08220 -10.08059 -10.06761 -10.06172  -0.95850
 Alpha  occ. eigenvalues --   -0.95402  -0.93163  -0.90771  -0.84951  -0.73656
 Alpha  occ. eigenvalues --   -0.70276  -0.68542  -0.66025  -0.65418  -0.60327
 Alpha  occ. eigenvalues --   -0.59503  -0.59359  -0.55187  -0.54140  -0.51400
 Alpha  occ. eigenvalues --   -0.50711  -0.49061  -0.45705  -0.43445  -0.41767
 Alpha  occ. eigenvalues --   -0.41435  -0.40625  -0.39517  -0.38712  -0.38218
 Alpha  occ. eigenvalues --   -0.37349  -0.35635  -0.35521  -0.34817  -0.34526
 Alpha  occ. eigenvalues --   -0.33972  -0.33325  -0.32744  -0.31455  -0.31198
 Alpha  occ. eigenvalues --   -0.30436  -0.30321  -0.29135  -0.28909  -0.28632
 Alpha  occ. eigenvalues --   -0.27800  -0.27292  -0.26463  -0.25726  -0.25189
 Alpha  occ. eigenvalues --   -0.24174  -0.24043  -0.18936  -0.17974  -0.17797
 Alpha  occ. eigenvalues --   -0.16663  -0.15892  -0.13801   0.03957
 Alpha virt. eigenvalues --    0.05794   0.06369   0.06689   0.07231   0.07660
 Alpha virt. eigenvalues --    0.08031   0.08681   0.09436   0.09609   0.09876
 Alpha virt. eigenvalues --    0.10307   0.11026   0.11183   0.11321   0.11972

  Beta  occ. eigenvalues --  -19.04190 -19.02853 -19.00329 -14.28471 -14.25413
  Beta  occ. eigenvalues --  -10.19104 -10.13492 -10.12986 -10.12749 -10.12011
  Beta  occ. eigenvalues --  -10.11983 -10.11884 -10.11750 -10.11444 -10.08407
  Beta  occ. eigenvalues --  -10.08221 -10.08041 -10.06748 -10.06138  -0.95836
  Beta  occ. eigenvalues --   -0.95393  -0.93154  -0.90757  -0.84935  -0.73637
  Beta  occ. eigenvalues --   -0.70244  -0.68513  -0.65998  -0.65395  -0.60295
  Beta  occ. eigenvalues --   -0.59454  -0.59313  -0.55152  -0.54078  -0.51364
  Beta  occ. eigenvalues --   -0.50701  -0.49032  -0.45683  -0.43421  -0.41741
  Beta  occ. eigenvalues --   -0.41388  -0.40589  -0.39489  -0.38673  -0.38184
  Beta  occ. eigenvalues --   -0.37320  -0.35612  -0.35498  -0.34781  -0.34501
  Beta  occ. eigenvalues --   -0.33946  -0.33308  -0.32719  -0.31437  -0.31175
  Beta  occ. eigenvalues --   -0.30420  -0.30295  -0.29107  -0.28880  -0.28601
  Beta  occ. eigenvalues --   -0.27768  -0.27267  -0.26438  -0.25695  -0.25153
  Beta  occ. eigenvalues --   -0.24125  -0.24019  -0.18919  -0.17954  -0.17781
  Beta  occ. eigenvalues --   -0.16640  -0.15865  -0.13758
  Beta virt. eigenvalues --    0.06157   0.06373   0.06755   0.07106   0.07603
  Beta virt. eigenvalues --    0.08076   0.08431   0.08989   0.09754   0.09979
  Beta virt. eigenvalues --    0.10230   0.10583   0.11289   0.11344   0.11417

 Mulliken charges and spin densities:
               1          2
     1  C    0.853619  -1.329966
     2  C   -0.663413   0.609505
     3  C    0.019203  -0.429131
     4  N    0.519710   0.058045
     5  C   -0.959816   0.452548
     6  C    0.728653  -0.955969
     7  C   -0.349339  -0.137626
     8  O   -0.276270  -0.002295
     9  C   -0.127681  -0.262491
    10  O   -0.197722   0.006762
    11  C   -0.531334   0.004501
    12  C   -0.418631  -0.095264
    13  C   -0.108795  -0.126322
    14  C    0.046554  -0.062099
    15  N    0.507430   0.034114
    16  C    0.293490  -0.677330
    17  C   -0.625356   0.462885
    18  O   -0.072254  -0.010826
    19  C    0.739826  -0.990268
    20  H    0.110957   0.073279
    21  H   -0.398814   0.541498
    22  H   -0.465539   0.633215
    23  H   -0.350485   0.504722
    24  H    0.128911   0.046241
    25  H    0.071911   0.043373
    26  H   -0.087894   0.244586
    27  H    0.536090  -0.412418
    28  H    0.027278   0.163994
    29  H   -0.055910   0.261606
    30  H   -0.140936   0.245033
    31  H   -0.036514   0.216155
    32  H    0.144774  -0.003318
    33  H    0.361211   0.007047
    34  H    0.117225   0.012078
    35  H    0.138573   0.025789
    36  H   -0.005392   0.159706
    37  H   -0.090804   0.273860
    38  H    0.121088   0.085514
    39  H   -0.886178   1.053971
    40  H    1.164253  -0.941685
    41  H   -0.399135   0.543723
    42  H   -0.314728   0.459017
    43  H   -0.067814   0.214241
 Sum of Mulliken charges =  -1.00000   1.00000

 Dipole moment (field-independent basis, Debye):
    X=             -1.5918    Y=              5.2223    Z=             -5.3131  Tot=              7.6181
 Quadrupole moment (field-independent basis, Debye-Ang):
   XX=           -180.3289   YY=           -180.2972   ZZ=           -170.5487
   XY=             -2.2365   XZ=              0.1855   YZ=              5.1111

 Summary of Natural Population Analysis:

                                       Natural Population
                Natural  -----------------------------------------------
    Atom  No    Charge         Core      Valence    Rydberg      Total
 -----------------------------------------------------------------------
      C    1   -0.29324      0.99963     2.28739    0.00622     3.29324
      C    2   -0.00718      0.99959     1.99429    0.01330     3.00718
      C    3   -0.28974      0.99964     2.28430    0.00581     3.28974
      N    4   -0.25556      0.99963     2.74307    0.01286     3.75556
      C    5   -0.09095      0.99958     2.07872    0.01265     3.09095
      C    6   -0.20709      0.99961     2.19883    0.00865     3.20709
      C    7   -0.01244      0.99959     1.99988    0.01297     3.01244
      O    8   -0.37622      0.99990     3.36971    0.00661     4.37622
      C    9    0.33088      0.99957     1.64641    0.02314     2.66912
      O   10   -0.32005      0.99988     3.31548    0.00469     4.32005
      C   11    0.03554      0.99947     1.95126    0.01373     2.96446
      C   12   -0.15893      0.99952     2.14980    0.00960     3.15893
      C   13   -0.14926      0.99957     2.14083    0.00887     3.14926
      C   14   -0.00427      0.99957     1.99283    0.01187     3.00427
      N   15   -0.18872      0.99961     2.67871    0.01040     3.68872
      C   16   -0.09152      0.99960     2.07999    0.01192     3.09152
      C   17   -0.01395      0.99958     2.00223    0.01215     3.01395
      O   18   -0.29765      0.99988     3.28849    0.00928     4.29765
      C   19   -0.09650      0.99962     2.08774    0.00915     3.09650
      H   20    0.10984      0.00000     0.38898    0.00118     0.39016
      H   21    0.10104      0.00000     0.39735    0.00160     0.39896
      H   22    0.10160      0.00000     0.39731    0.00109     0.39840
      H   23    0.09757      0.00000     0.39973    0.00270     0.40243
      H   24    0.11081      0.00000     0.38829    0.00091     0.38919
      H   25    0.09829      0.00000     0.40075    0.00096     0.40171
      H   26    0.10050      0.00000     0.39884    0.00066     0.39950
      H   27    0.10702      0.00000     0.38971    0.00328     0.39298
      H   28    0.09870      0.00000     0.39905    0.00225     0.40130
      H   29    0.10391      0.00000     0.39508    0.00100     0.39609
      H   30    0.10035      0.00000     0.39806    0.00159     0.39965
      H   31    0.08573      0.00000     0.41327    0.00101     0.41427
      H   32    0.07492      0.00000     0.42378    0.00131     0.42508
      H   33    0.23855      0.00000     0.25847    0.00298     0.26145
      H   34    0.11052      0.00000     0.38856    0.00092     0.38948
      H   35    0.10593      0.00000     0.39339    0.00068     0.39407
      H   36    0.10147      0.00000     0.39760    0.00094     0.39853
      H   37    0.10228      0.00000     0.39637    0.00136     0.39772
      H   38    0.11342      0.00000     0.38550    0.00108     0.38658
      H   39    0.08767      0.00000     0.41008    0.00225     0.41233
      H   40    0.08354      0.00000     0.41397    0.00250     0.41646
      H   41    0.08199      0.00000     0.41594    0.00207     0.41801
      H   42    0.08097      0.00000     0.41723    0.00180     0.41903
      H   43    0.09024      0.00000     0.40868    0.00108     0.40976
 =======================================================================
   * Total *   -0.00000     18.99304    53.76594    0.24102    73.00000

 Normal termination of Gaussian 16 at Sat Dec 12 11:37:47 2020.
