 Gaussian 16, Revision A.03,

 -----------------------------------------------------------
 # opt freq B3LYP/6-31G(d) empiricaldispersion=gd3bj scf=xqc
 -----------------------------------------------------------

 ------------------------------
 CID_143411806_JID_147_neutraal
 ------------------------------
 Symbolic Z-matrix:
 Charge =  0 Multiplicity = 1

 SCF Done:  E(RB3LYP) =  -390.679397744     A.U. after   14 cycles
 SCF Done:  E(RB3LYP) =  -390.681728741     A.U. after   12 cycles
 SCF Done:  E(RB3LYP) =  -390.682192611     A.U. after   12 cycles
 SCF Done:  E(RB3LYP) =  -390.682352089     A.U. after   11 cycles
 SCF Done:  E(RB3LYP) =  -390.682416559     A.U. after   10 cycles
 SCF Done:  E(RB3LYP) =  -390.682458894     A.U. after   11 cycles
 SCF Done:  E(RB3LYP) =  -390.682461643     A.U. after    9 cycles
 SCF Done:  E(RB3LYP) =  -390.682462682     A.U. after    8 cycles
 SCF Done:  E(RB3LYP) =  -390.682463779     A.U. after    8 cycles
 SCF Done:  E(RB3LYP) =  -390.682464089     A.U. after    7 cycles
 SCF Done:  E(RB3LYP) =  -390.682464247     A.U. after    7 cycles
 Optimization completed.
    -- Stationary point found.
 Normal termination of Gaussian 16 at Tue Dec  8 10:18:27 2020.

 --------------------------------------------------------------------
 #N Geom=AllCheck Guess=TCheck SCRF=Check GenChk RB3LYP/6-31G(d) Freq
 --------------------------------------------------------------------

 Structure from the checkpoint file:  "JID_147.chk"
 ------------------------------
 CID_143411806_JID_147_neutraal
 ------------------------------
 Charge =  0 Multiplicity = 1

 SCF Done:  E(RB3LYP) =  -390.682464247     A.U. after    1 cycles

  Exact polarizability: 150.469   6.102 104.154  -8.020  -2.676  71.180
 Approx polarizability: 194.947  11.083 152.254 -14.345  -9.462 106.187

                      1                      2                      3
                      A                      A                      A
 Frequencies --     26.5081                47.0877                84.2250
 Red. masses --      3.1621                 3.2436                 3.1795
 Frc consts  --      0.0013                 0.0042                 0.0133
 IR Inten    --      0.0736                 0.0173                 0.0179

                      4                      5                      6
                      A                      A                      A
 Frequencies --     98.5785               135.9761               139.7660
 Red. masses --      2.3748                 1.4687                 1.4703
 Frc consts  --      0.0136                 0.0160                 0.0169
 IR Inten    --      0.4029                 0.3077                 0.6159

                      7                      8                      9
                      A                      A                      A
 Frequencies --    182.2533               207.6195               269.1677
 Red. masses --      1.2336                 2.2831                 2.7304
 Frc consts  --      0.0241                 0.0580                 0.1166
 IR Inten    --      0.3346                 0.1745                 0.4427

                     10                     11                     12
                      A                      A                      A
 Frequencies --    290.4809               328.4495               347.6571
 Red. masses --      2.4987                 2.1757                 2.1478
 Frc consts  --      0.1242                 0.1383                 0.1529
 IR Inten    --      0.2997                 1.9198                 1.1791

                     13                     14                     15
                      A                      A                      A
 Frequencies --    426.1130               464.4692               530.5104
 Red. masses --      2.2329                 2.4933                 2.1549
 Frc consts  --      0.2389                 0.3169                 0.3573
 IR Inten    --      0.1282                 2.9587                 2.2067

                     16                     17                     18
                      A                      A                      A
 Frequencies --    564.7587               602.0305               715.5053
 Red. masses --      2.1911                 2.7863                 1.8882
 Frc consts  --      0.4117                 0.5950                 0.5696
 IR Inten    --      7.9735                 6.4045                 4.1367

                     19                     20                     21
                      A                      A                      A
 Frequencies --    743.1705               761.6269               832.8292
 Red. masses --      1.3300                 2.0689                 1.9193
 Frc consts  --      0.4328                 0.7071                 0.7843
 IR Inten    --     25.8305                 5.7917                 6.2545

                     22                     23                     24
                      A                      A                      A
 Frequencies --    895.1761               904.0009               936.7731
 Red. masses --      1.5049                 2.1962                 1.4166
 Frc consts  --      0.7105                 1.0575                 0.7324
 IR Inten    --      8.8558                 3.3176                41.6950

                     25                     26                     27
                      A                      A                      A
 Frequencies --    942.9665              1001.9130              1018.7760
 Red. masses --      1.8207                 1.6571                 1.1746
 Frc consts  --      0.9538                 0.9800                 0.7183
 IR Inten    --      6.2534                 3.6048                 0.5312

                     28                     29                     30
                      A                      A                      A
 Frequencies --   1035.7244              1041.0648              1048.6803
 Red. masses --      1.1435                 1.7583                 1.4869
 Frc consts  --      0.7228                 1.1228                 0.9634
 IR Inten    --     11.8240                 0.9493                 7.9322

                     31                     32                     33
                      A                      A                      A
 Frequencies --   1075.6067              1079.0500              1102.4667
 Red. masses --      1.5063                 1.5356                 2.4450
 Frc consts  --      1.0268                 1.0534                 1.7509
 IR Inten    --      0.1339                 3.6992                 4.9705

                     34                     35                     36
                      A                      A                      A
 Frequencies --   1121.8433              1140.2429              1181.7079
 Red. masses --      2.0452                 1.9632                 1.6531
 Frc consts  --      1.5165                 1.5038                 1.3601
 IR Inten    --      1.3105                 1.5647                 1.1764

                     37                     38                     39
                      A                      A                      A
 Frequencies --   1234.8765              1271.7326              1311.2575
 Red. masses --      1.3882                 1.3801                 1.1513
 Frc consts  --      1.2472                 1.3151                 1.1663
 IR Inten    --      0.2393                 1.9562                 0.9264

                     40                     41                     42
                      A                      A                      A
 Frequencies --   1346.7389              1355.2789              1366.7766
 Red. masses --      1.2718                 1.2333                 1.3533
 Frc consts  --      1.3591                 1.3347                 1.4895
 IR Inten    --      1.6877                 0.7320                16.0703

                     43                     44                     45
                      A                      A                      A
 Frequencies --   1405.6295              1432.6375              1441.5304
 Red. masses --      1.3610                 1.2335                 1.2473
 Frc consts  --      1.5843                 1.4916                 1.5271
 IR Inten    --      1.9173                 1.2586                 2.0396

                     46                     47                     48
                      A                      A                      A
 Frequencies --   1459.7553              1482.7870              1508.8466
 Red. masses --      1.4307                 1.2811                 1.0487
 Frc consts  --      1.7962                 1.6596                 1.4067
 IR Inten    --      4.8049                 4.2296                 6.9267

                     49                     50                     51
                      A                      A                      A
 Frequencies --   1510.4303              1514.5462              1518.0500
 Red. masses --      1.0986                 1.0470                 1.1038
 Frc consts  --      1.4767                 1.4150                 1.4987
 IR Inten    --      2.8712                 3.6873                 0.8535

                     52                     53                     54
                      A                      A                      A
 Frequencies --   1526.0096              1529.4810              1706.2673
 Red. masses --      1.0649                 1.0776                 5.1529
 Frc consts  --      1.4611                 1.4853                 8.8388
 IR Inten    --      5.1141                 5.4237                 5.1521

                     55                     56                     57
                      A                      A                      A
 Frequencies --   1731.2945              1751.2433              3029.6480
 Red. masses --      5.4436                 6.1198                 1.0655
 Frc consts  --      9.6134                11.0582                 5.7624
 IR Inten    --      0.4124                 2.6086                14.8070

                     58                     59                     60
                      A                      A                      A
 Frequencies --   3031.3206              3034.6131              3039.8801
 Red. masses --      1.0397                 1.0418                 1.0621
 Frc consts  --      5.6290                 5.6524                 5.7824
 IR Inten    --     37.3382                42.6576                34.8614

                     61                     62                     63
                      A                      A                      A
 Frequencies --   3076.9968              3078.6206              3092.1190
 Red. masses --      1.0999                 1.0995                 1.0971
 Frc consts  --      6.1358                 6.1399                 6.1802
 IR Inten    --     25.5110                25.1502                40.8739

                     64                     65                     66
                      A                      A                      A
 Frequencies --   3099.8649              3123.7724              3126.3336
 Red. masses --      1.0959                 1.0876                 1.0976
 Frc consts  --      6.2044                 6.2527                 6.3209
 IR Inten    --     11.6382                20.5477                30.7415

                     67                     68                     69
                      A                      A                      A
 Frequencies --   3129.8002              3141.1387              3147.6894
 Red. masses --      1.0898                 1.0894                 1.0883
 Frc consts  --      6.2899                 6.3329                 6.3531
 IR Inten    --      2.5445                38.7908                10.6963

                     70                     71                     72
                      A                      A                      A
 Frequencies --   3162.7811              3170.9526              3251.1365
 Red. masses --      1.0940                 1.0619                 1.1157
 Frc consts  --      6.4479                 6.2910                 6.9479
 IR Inten    --     55.7486                 9.4865                18.3125

 - Thermochemistry -
 -------------------
 Temperature   298.150 Kelvin.  Pressure   1.00000 Atm.
 Atom     1 has atomic number  6 and mass  12.00000

 Molecular mass:   136.12520 amu.
 Principal axes and moments of inertia in atomic units:
                           1         2         3
     Eigenvalues --   680.228093291.578703696.34625
           X            0.99995  -0.00830  -0.00616
           Y            0.00836   0.99992   0.00898
           Z            0.00608  -0.00903   0.99994
 This molecule is an asymmetric top.
 Rotational symmetry number  1.
 Warning -- assumption of classical behavior for rotation
           may cause significant error
 Rotational temperatures (Kelvin)      0.12733     0.02631     0.02343
 Rotational constants (GHZ):           2.65314     0.54829     0.48825
 Zero-point vibrational energy     612886.4 (Joules/Mol)
                                  146.48338 (Kcal/Mol)
 Warning -- explicit consideration of  17 degrees of freedom as
           vibrations may cause significant error
 Vibrational temperatures:     38.14    67.75   121.18   141.83   195.64
          (Kelvin)            201.09   262.22   298.72   387.27   417.94
                              472.57   500.20   613.08   668.27   763.29
                              812.56   866.19  1029.45  1069.26  1095.81
                             1198.26  1287.96  1300.66  1347.81  1356.72
                             1441.53  1465.79  1490.18  1497.86  1508.82
                             1547.56  1552.51  1586.20  1614.08  1640.56
                             1700.21  1776.71  1829.74  1886.61  1937.66
                             1949.94  1966.49  2022.39  2061.25  2074.04
                             2100.26  2133.40  2170.89  2173.17  2179.09
                             2184.14  2195.59  2200.58  2454.94  2490.95
                             2519.65  4358.99  4361.39  4366.13  4373.71
                             4427.11  4429.45  4448.87  4460.01  4494.41
                             4498.10  4503.08  4519.40  4528.82  4550.54
                             4562.29  4677.66

 Zero-point correction=                           0.233436 (Hartree/Particle)
 Thermal correction to Energy=                    0.245684
 Thermal correction to Enthalpy=                  0.246628
 Thermal correction to Gibbs Free Energy=         0.194027
 Sum of electronic and zero-point Energies=           -390.449028
 Sum of electronic and thermal Energies=              -390.436781
 Sum of electronic and thermal Enthalpies=            -390.435836
 Sum of electronic and thermal Free Energies=         -390.488437

                     E (Thermal)             CV                S
                      KCal/Mol        Cal/Mol-Kelvin    Cal/Mol-Kelvin
 Total                  154.169             43.971            110.708
 Electronic               0.000              0.000              0.000
 Translational            0.889              2.981             40.637
 Rotational               0.889              2.981             30.493
 Vibrational            152.391             38.010             39.577
 Vibration     1          0.593              1.984              6.075
 Vibration     2          0.595              1.979              4.936
 Vibration     3          0.601              1.960              3.790
 Vibration     4          0.604              1.950              3.482
 Vibration     5          0.614              1.917              2.860
 Vibration     6          0.615              1.914              2.807
 Vibration     7          0.630              1.864              2.305
 Vibration     8          0.641              1.829              2.065
 Vibration     9          0.674              1.730              1.602
 Vibration    10          0.686              1.691              1.471
 Vibration    11          0.712              1.619              1.268
 Vibration    12          0.725              1.580              1.177
 Vibration    13          0.788              1.413              0.871
 Vibration    14          0.822              1.329              0.753
 Vibration    15          0.885              1.182              0.586
 Vibration    16          0.921              1.108              0.514
 Vibration    17          0.960              1.027              0.446

                           ! Non-Optimized Parameters !
 Normal termination of Gaussian 16 at Tue Dec  8 10:22:34 2020.

 ----------------------------------------------------------------------
 # B3LYP/6-311++G(d,p) empiricaldispersion=gd3bj scf=xqc pop=npa geom=c
 heck
 ----------------------------------------------------------------------

 --------------------------------------
 CID_143411806_JID_147_Energie_neutraal
 --------------------------------------
 Structure from the checkpoint file:  "JID_147.chk"
 Charge =  0 Multiplicity = 1

 SCF Done:  E(RB3LYP) =  -390.793056053     A.U. after   14 cycles
 Normal termination of Gaussian 16 at Tue Dec  8 10:24:26 2020.

 ----------------------------------------------------------------------
 # B3LYP/6-311++G(d,p) empiricaldispersion=gd3bj scf=xqc pop=npa geom=c
 heck
 ----------------------------------------------------------------------

 ------------------------------------
 CID_143411806_JID_147_Energie_kation
 ------------------------------------
 Structure from the checkpoint file:  "JID_147.chk"
 Charge =  1 Multiplicity = 2

 SCF Done:  E(UB3LYP) =  -390.497667531     A.U. after   21 cycles
 Normal termination of Gaussian 16 at Tue Dec  8 10:28:10 2020.
 Gaussian 16:  ES64L-G16RevA.03 25-Dec-2016

 ----------------------------------------------------------------------
 # B3LYP/6-311++G(d,p) empiricaldispersion=gd3bj scf=xqc pop=npa geom=c
 heck
 ----------------------------------------------------------------------

 -----------------------------------
 CID_143411806_JID_147_Energie_anion
 -----------------------------------
 Structure from the checkpoint file:  "JID_147.chk"
 Charge = -1 Multiplicity = 2

                         Standard orientation:
 ---------------------------------------------------------------------
 Center     Atomic      Atomic             Coordinates (Angstroms)
 Number     Number       Type             X           Y           Z
 ---------------------------------------------------------------------
      1          6           0       -4.209096    0.185774    0.373398
      2          6           0       -3.263610   -0.661389   -0.429965
      3          6           0       -1.979115   -0.410844   -0.708064
      4          6           0       -1.164158    0.774583   -0.268096
      5          6           0       -0.141069    0.431482    0.846915
      6          6           0        0.821418   -0.658202    0.472315
      7          6           0        2.123452   -0.540454    0.150702
      8          6           0        2.962962   -1.766854   -0.131190
      9          6           0        2.865506    0.733398    0.090139
     10          6           0        2.457150    1.880881   -0.463966
     11          1           0       -3.744730    1.102675    0.745786
     12          1           0       -4.589337   -0.371568    1.240072
     13          1           0       -5.085627    0.470100   -0.224208
     14          1           0       -3.693989   -1.583434   -0.822283
     15          1           0       -1.437477   -1.148470   -1.299746
     16          1           0       -0.615150    1.169067   -1.134030
     17          1           0       -1.809698    1.583107    0.091140
     18          1           0        0.403639    1.341461    1.118495
     19          1           0       -0.710205    0.108829    1.729623
     20          1           0        0.406987   -1.666301    0.486248
     21          1           0        3.385472   -1.734330   -1.143944
     22          1           0        3.813558   -1.829418    0.561535
     23          1           0        2.378080   -2.686360   -0.033437
     24          1           0        3.873953    0.696729    0.508185
     25          1           0        3.090319    2.763828   -0.461178
     26          1           0        1.493569    1.973826   -0.955389
 ---------------------------------------------------------------------

 SCF Done:  E(UB3LYP) =  -390.775427221     A.U. after   33 cycles
 SCF Done:  E(UB3LYP) =  -390.775427221     a.u. after    1 cycles

 The electronic state is 2-A.
 Alpha  occ. eigenvalues --  -10.06329 -10.06236 -10.06052 -10.05679 -10.05559
 Alpha  occ. eigenvalues --  -10.05371 -10.04962 -10.04928 -10.04818 -10.04806
 Alpha  occ. eigenvalues --   -0.71528  -0.68978  -0.64821  -0.63007  -0.58910
 Alpha  occ. eigenvalues --   -0.55284  -0.50735  -0.48219  -0.42157  -0.39414
 Alpha  occ. eigenvalues --   -0.37311  -0.35303  -0.33965  -0.33018  -0.31027
 Alpha  occ. eigenvalues --   -0.30498  -0.29621  -0.28886  -0.27660  -0.27180
 Alpha  occ. eigenvalues --   -0.25843  -0.25275  -0.22984  -0.22281  -0.20449
 Alpha  occ. eigenvalues --   -0.17941  -0.13366  -0.11865   0.05198
 Alpha virt. eigenvalues --    0.07213   0.07245   0.08186   0.09055   0.09363
 Alpha virt. eigenvalues --    0.09752   0.10646   0.11202   0.11514   0.11634
 Alpha virt. eigenvalues --    0.12382   0.12755   0.13251   0.13737   0.14121

  Beta  occ. eigenvalues --  -10.06324 -10.06190 -10.05981 -10.05653 -10.05563
  Beta  occ. eigenvalues --  -10.05357 -10.04914 -10.04836 -10.04750 -10.04724
  Beta  occ. eigenvalues --   -0.71369  -0.68899  -0.64711  -0.62857  -0.58816
  Beta  occ. eigenvalues --   -0.55195  -0.50585  -0.48008  -0.42056  -0.39303
  Beta  occ. eigenvalues --   -0.37245  -0.35194  -0.33885  -0.32941  -0.30952
  Beta  occ. eigenvalues --   -0.30425  -0.29562  -0.28833  -0.27578  -0.27112
  Beta  occ. eigenvalues --   -0.25785  -0.25208  -0.22918  -0.22225  -0.20368
  Beta  occ. eigenvalues --   -0.17362  -0.13266  -0.11382
  Beta virt. eigenvalues --    0.07096   0.07921   0.08280   0.08631   0.09554
  Beta virt. eigenvalues --    0.09715   0.10090   0.10995   0.11336   0.11876
  Beta virt. eigenvalues --    0.12043   0.12756   0.12824   0.13306   0.13974

 Mulliken charges and spin densities:
               1          2
     1  C    2.782835  -3.490018
     2  C    0.088224  -0.461151
     3  C   -0.829088   1.058201
     4  C   -0.653665   0.485934
     5  C    0.965013  -1.225057
     6  C   -0.606028   0.435639
     7  C    0.319335   0.110575
     8  C    0.151078  -0.889312
     9  C   -0.879157   0.915482
    10  C   -0.367471  -0.117198
    11  H   -0.322640   0.429968
    12  H   -0.422268   0.573314
    13  H   -0.471322   0.610950
    14  H   -0.737298   0.888874
    15  H   -0.148261   0.337150
    16  H   -0.137248   0.224789
    17  H   -0.089202   0.238916
    18  H    0.227660  -0.078880
    19  H   -0.143225   0.293618
    20  H    0.055389   0.100371
    21  H    0.014806   0.124730
    22  H    0.102346   0.009311
    23  H   -0.023528   0.167688
    24  H    0.070603   0.080383
    25  H    0.067518   0.026915
    26  H   -0.014406   0.148808
 Sum of Mulliken charges =  -1.00000   1.00000

 Dipole moment (field-independent basis, Debye):
    X=              8.2663    Y=              0.6712    Z=              1.0456  Tot=              8.3591
 Quadrupole moment (field-independent basis, Debye-Ang):
   XX=           -148.9607   YY=            -91.9399   ZZ=            -93.0368
   XY=             -4.5004   XZ=              4.9445   YZ=             -0.5890

 Summary of Natural Population Analysis:

                                       Natural Population
                Natural  -----------------------------------------------
    Atom  No    Charge         Core      Valence    Rydberg      Total
 -----------------------------------------------------------------------
      C    1   -0.30452      0.99965     2.29853    0.00634     3.30452
      C    2   -0.08889      0.99953     2.07905    0.01032     3.08889
      C    3   -0.09790      0.99952     2.08716    0.01122     3.09790
      C    4   -0.20115      0.99960     2.19252    0.00903     3.20115
      C    5   -0.20519      0.99961     2.19662    0.00896     3.20519
      C    6   -0.06713      0.99947     2.05842    0.00923     3.06713
      C    7   -0.03311      0.99948     2.02234    0.01129     3.03311
      C    8   -0.28605      0.99963     2.28194    0.00448     3.28605
      C    9   -0.09286      0.99954     2.08352    0.00980     3.09286
      C   10   -0.16742      0.99958     2.16045    0.00740     3.16742
      H   11    0.09907      0.00000     0.39957    0.00136     0.40093
      H   12    0.10463      0.00000     0.39307    0.00230     0.39537
      H   13    0.10365      0.00000     0.39432    0.00203     0.39635
      H   14    0.09223      0.00000     0.40617    0.00160     0.40777
      H   15    0.09583      0.00000     0.40273    0.00143     0.40417
      H   16    0.09844      0.00000     0.39998    0.00158     0.40156
      H   17    0.09787      0.00000     0.40075    0.00139     0.40213
      H   18    0.10373      0.00000     0.39487    0.00141     0.39627
      H   19    0.09928      0.00000     0.39955    0.00117     0.40072
      H   20    0.09096      0.00000     0.40779    0.00125     0.40904
      H   21    0.09922      0.00000     0.39941    0.00137     0.40078
      H   22    0.09430      0.00000     0.40451    0.00119     0.40570
      H   23    0.09983      0.00000     0.39928    0.00089     0.40017
      H   24    0.08770      0.00000     0.41106    0.00124     0.41230
      H   25    0.08673      0.00000     0.41228    0.00099     0.41327
      H   26    0.09077      0.00000     0.40774    0.00149     0.40923
 =======================================================================
   * Total *    0.00000      9.99560    27.89364    0.11076    38.00000

 Normal termination of Gaussian 16 at Tue Dec  8 10:36:15 2020.
