 Gaussian 16, Revision A.03,

 -----------------------------------------------------------
 # opt freq B3LYP/6-31G(d) empiricaldispersion=gd3bj scf=xqc
 -----------------------------------------------------------

 ------------------------------
 CID_88977976_JID_1943_neutraal
 ------------------------------
 Symbolic Z-matrix:
 Charge =  0 Multiplicity = 1

 SCF Done:  E(RB3LYP) =  -833.427337595     A.U. after   15 cycles
 SCF Done:  E(RB3LYP) =  -833.432596426     A.U. after   13 cycles
 SCF Done:  E(RB3LYP) =  -833.433391575     A.U. after   12 cycles
 SCF Done:  E(RB3LYP) =  -833.433500085     A.U. after   11 cycles
 SCF Done:  E(RB3LYP) =  -833.433544213     A.U. after   11 cycles
 SCF Done:  E(RB3LYP) =  -833.433562961     A.U. after    9 cycles
 SCF Done:  E(RB3LYP) =  -833.433572095     A.U. after    9 cycles
 SCF Done:  E(RB3LYP) =  -833.433576271     A.U. after    9 cycles
 SCF Done:  E(RB3LYP) =  -833.433577653     A.U. after    8 cycles
 Optimization completed.
    -- Stationary point found.
 Normal termination of Gaussian 16 at Tue Dec  8 21:39:16 2020.

 --------------------------------------------------------------------
 #N Geom=AllCheck Guess=TCheck SCRF=Check GenChk RB3LYP/6-31G(d) Freq
 --------------------------------------------------------------------

 Structure from the checkpoint file:  "JID_1943.chk"
 ------------------------------
 CID_88977976_JID_1943_neutraal
 ------------------------------
 Charge =  0 Multiplicity = 1

 SCF Done:  E(RB3LYP) =  -833.433577653     A.U. after    1 cycles

  Exact polarizability: 179.241   3.048 103.709  -0.607  -0.213  47.705
 Approx polarizability: 282.605   5.756 206.745  -4.083   0.145  74.642

                      1                      2                      3
                      A                      A                      A
 Frequencies --     77.3597               140.5160               197.3766
 Red. masses --      3.2914                 2.9845                 3.0468
 Frc consts  --      0.0116                 0.0347                 0.0699
 IR Inten    --      2.2625                 0.4177                 1.8624

                      4                      5                      6
                      A                      A                      A
 Frequencies --    203.6809               230.0079               308.5577
 Red. masses --      4.6699                 1.3493                 3.0954
 Frc consts  --      0.1141                 0.0421                 0.1736
 IR Inten    --      0.2586                 1.3488                21.9605

                      7                      8                      9
                      A                      A                      A
 Frequencies --    330.1419               407.0656               444.2921
 Red. masses --      4.2992                 1.9002                 6.2719
 Frc consts  --      0.2761                 0.1855                 0.7294
 IR Inten    --      1.8307               125.5254                 4.0675

                     10                     11                     12
                      A                      A                      A
 Frequencies --    457.8818               530.8659               538.3647
 Red. masses --      5.0815                 6.0711                 7.4591
 Frc consts  --      0.6277                 1.0081                 1.2738
 IR Inten    --      7.8283                 9.1812                 2.9248

                     13                     14                     15
                      A                      A                      A
 Frequencies --    589.4033               624.8446               652.0942
 Red. masses --      3.4177                 3.3706                 9.9491
 Frc consts  --      0.6995                 0.7754                 2.4926
 IR Inten    --     19.1506                 1.3355                15.3860

                     16                     17                     18
                      A                      A                      A
 Frequencies --    713.5067               760.9276               786.2821
 Red. masses --      5.9034                 4.2819                 5.7723
 Frc consts  --      1.7707                 1.4608                 2.1026
 IR Inten    --      4.1088                 0.0747                16.1468

                     19                     20                     21
                      A                      A                      A
 Frequencies --    820.9904               836.7882               865.0298
 Red. masses --      1.4420                 5.7140                 1.5155
 Frc consts  --      0.5727                 2.3573                 0.6681
 IR Inten    --     17.9426                31.5949                28.8824

                     22                     23                     24
                      A                      A                      A
 Frequencies --    902.7243               933.3002              1068.0854
 Red. masses --      1.4028                 5.4694                 2.9801
 Frc consts  --      0.6735                 2.8069                 2.0031
 IR Inten    --      6.9828                 2.7291                32.3763

                     25                     26                     27
                      A                      A                      A
 Frequencies --   1099.9933              1161.1918              1186.4166
 Red. masses --      2.3788                 1.3267                 1.9950
 Frc consts  --      1.6959                 1.0540                 1.6545
 IR Inten    --     21.5160                18.8821                23.2153

                     28                     29                     30
                      A                      A                      A
 Frequencies --   1225.1480              1291.0399              1321.9142
 Red. masses --      1.8264                 1.8050                 2.2446
 Frc consts  --      1.6152                 1.7726                 2.3110
 IR Inten    --     12.8916                10.0169                 3.4854

                     31                     32                     33
                      A                      A                      A
 Frequencies --   1353.2350              1367.4557              1429.3295
 Red. masses --      5.2087                 1.9015                 3.4242
 Frc consts  --      5.6198                 2.0949                 4.1217
 IR Inten    --     74.8425                25.1146                78.0106

                     34                     35                     36
                      A                      A                      A
 Frequencies --   1464.5604              1496.6223              1514.3851
 Red. masses --      1.9553                 1.2435                 1.0737
 Frc consts  --      2.4710                 1.6410                 1.4508
 IR Inten    --      8.4071                 0.3869                15.5405

                     37                     38                     39
                      A                      A                      A
 Frequencies --   1542.5211              1552.4177              1572.3645
 Red. masses --      2.0257                 1.4775                 3.8885
 Frc consts  --      2.8398                 2.0980                 5.6641
 IR Inten    --     16.3423                62.2000               141.5251

                     40                     41                     42
                      A                      A                      A
 Frequencies --   1594.9816              1654.8485              3007.4214
 Red. masses --      3.2230                 6.0808                 1.0521
 Frc consts  --      4.8308                 9.8113                 5.6063
 IR Inten    --      3.4678               169.5722                83.0368

                     43                     44                     45
                      A                      A                      A
 Frequencies --   3088.9761              3145.8281              3190.7159
 Red. masses --      1.0873                 1.1000                 1.0912
 Frc consts  --      6.1127                 6.4136                 6.5454
 IR Inten    --     34.4370                21.8538                10.2474

                     46                     47                     48
                      A                      A                      A
 Frequencies --   3197.6138              3241.4967              3603.8232
 Red. masses --      1.0890                 1.0945                 1.0762
 Frc consts  --      6.5605                 6.7758                 8.2351
 IR Inten    --     26.7609                 1.4737                16.8860

 - Thermochemistry -
 -------------------
 Temperature   298.150 Kelvin.  Pressure   1.00000 Atm.
 Atom     1 has atomic number  6 and mass  12.00000

 Molecular mass:   165.03607 amu.
 Principal axes and moments of inertia in atomic units:
                           1         2         3
     Eigenvalues --   666.523712978.340403628.24900
           X            0.99999  -0.00453   0.00291
           Y            0.00453   0.99999  -0.00151
           Z           -0.00291   0.00152   0.99999
 This molecule is an asymmetric top.
 Rotational symmetry number  1.
 Warning -- assumption of classical behavior for rotation
           may cause significant error
 Rotational temperatures (Kelvin)      0.12995     0.02908     0.02387
 Rotational constants (GHZ):           2.70769     0.60596     0.49741
 Zero-point vibrational energy     357231.2 (Joules/Mol)
                                   85.38030 (Kcal/Mol)
 Warning -- explicit consideration of  13 degrees of freedom as
           vibrations may cause significant error
 Vibrational temperatures:    111.30   202.17   283.98   293.05   330.93
          (Kelvin)            443.95   475.00   585.68   639.24   658.79
                              763.80   774.59   848.02   899.01   938.22
                             1026.58  1094.81  1131.28  1181.22  1203.95
                             1244.58  1298.82  1342.81  1536.74  1582.65
                             1670.70  1706.99  1762.71  1857.52  1901.94
                             1947.00  1967.46  2056.49  2107.18  2153.31
                             2178.86  2219.34  2233.58  2262.28  2294.82
                             2380.96  4327.01  4444.35  4526.15  4590.73
                             4600.65  4663.79  5185.10

 Zero-point correction=                           0.136062 (Hartree/Particle)
 Thermal correction to Energy=                    0.145204
 Thermal correction to Enthalpy=                  0.146149
 Thermal correction to Gibbs Free Energy=         0.101485
 Sum of electronic and zero-point Energies=           -833.297515
 Sum of electronic and thermal Energies=              -833.288373
 Sum of electronic and thermal Enthalpies=            -833.287429
 Sum of electronic and thermal Free Energies=         -833.332093

                     E (Thermal)             CV                S
                      KCal/Mol        Cal/Mol-Kelvin    Cal/Mol-Kelvin
 Total                   91.117             35.331             94.003
 Electronic               0.000              0.000              0.000
 Translational            0.889              2.981             41.211
 Rotational               0.889              2.981             30.355
 Vibrational             89.340             29.370             22.436
 Vibration     1          0.599              1.964              3.957
 Vibration     2          0.615              1.913              2.797
 Vibration     3          0.637              1.844              2.157
 Vibration     4          0.639              1.835              2.100
 Vibration     5          0.652              1.795              1.879
 Vibration     6          0.698              1.657              1.370
 Vibration     7          0.713              1.615              1.259
 Vibration     8          0.772              1.455              0.937
 Vibration     9          0.804              1.373              0.813
 Vibration    10          0.816              1.343              0.772
 Vibration    11          0.886              1.182              0.585
 Vibration    12          0.893              1.165              0.569
 Vibration    13          0.947              1.054              0.468

                           ! Non-Optimized Parameters !
 Normal termination of Gaussian 16 at Tue Dec  8 21:42:57 2020.

 ----------------------------------------------------------------------
 # B3LYP/6-311++G(d,p) empiricaldispersion=gd3bj scf=xqc pop=npa geom=c
 heck
 ----------------------------------------------------------------------

 --------------------------------------
 CID_88977976_JID_1943_Energie_neutraal
 --------------------------------------
 Structure from the checkpoint file:  "JID_1943.chk"
 Charge =  0 Multiplicity = 1

 SCF Done:  E(RB3LYP) =  -833.574867275     A.U. after   16 cycles
 Normal termination of Gaussian 16 at Tue Dec  8 21:46:46 2020.

 ----------------------------------------------------------------------
 # B3LYP/6-311++G(d,p) empiricaldispersion=gd3bj scf=xqc pop=npa geom=c
 heck
 ----------------------------------------------------------------------

 ------------------------------------
 CID_88977976_JID_1943_Energie_kation
 ------------------------------------
 Structure from the checkpoint file:  "JID_1943.chk"
 Charge =  1 Multiplicity = 2

 SCF Done:  E(UB3LYP) =  -833.290355647     A.U. after   23 cycles
 Normal termination of Gaussian 16 at Tue Dec  8 21:51:22 2020.
 Gaussian 16:  ES64L-G16RevA.03 25-Dec-2016

 ----------------------------------------------------------------------
 # B3LYP/6-311++G(d,p) empiricaldispersion=gd3bj scf=xqc pop=npa geom=c
 heck
 ----------------------------------------------------------------------

 -----------------------------------
 CID_88977976_JID_1943_Energie_anion
 -----------------------------------
 Structure from the checkpoint file:  "JID_1943.chk"
 Charge = -1 Multiplicity = 2

                         Standard orientation:
 ---------------------------------------------------------------------
 Center     Atomic      Atomic             Coordinates (Angstroms)
 Number     Number       Type             X           Y           Z
 ---------------------------------------------------------------------
      1          6           0        4.057627   -0.010279    0.134908
      2          7           0        2.872906   -0.804690   -0.133283
      3          6           0        1.600473   -0.262719   -0.065503
      4          6           0        0.473310   -1.098891   -0.040793
      5          6           0       -0.775107   -0.494110   -0.013489
      6          6           0       -0.880818    0.922845   -0.009603
      7          7           0        0.189596    1.719322   -0.028900
      8          6           0        1.385753    1.140885   -0.053140
      9          7           0       -2.179657    1.417292    0.020372
     10          6           0       -3.030603    0.452057    0.038383
     11         16           0       -2.372684   -1.203702    0.022511
     12          1           0        4.031253    0.491945    1.114665
     13          1           0        4.188840    0.755324   -0.637443
     14          1           0        4.930036   -0.666759    0.101737
     15          1           0        2.931352   -1.769250    0.162442
     16          1           0        0.586968   -2.179539   -0.049772
     17          1           0        2.236469    1.816018   -0.065629
     18          1           0       -4.105695    0.589296    0.061928
 ---------------------------------------------------------------------

 SCF Done:  E(UB3LYP) =  -833.571523387     A.U. after   33 cycles
 SCF Done:  E(UB3LYP) =  -833.571523387     a.u. after    1 cycles

 The electronic state is 2-A.
 Alpha  occ. eigenvalues --  -88.75553 -14.20445 -14.18484 -14.16481 -10.10146
 Alpha  occ. eigenvalues --  -10.09290 -10.08816 -10.08721 -10.08685 -10.06575
 Alpha  occ. eigenvalues --  -10.05252  -7.84194  -5.80472  -5.80163  -5.79754
 Alpha  occ. eigenvalues --   -0.84956  -0.81835  -0.78401  -0.69688  -0.64195
 Alpha  occ. eigenvalues --   -0.61353  -0.57007  -0.52188  -0.47562  -0.45911
 Alpha  occ. eigenvalues --   -0.40773  -0.38124  -0.37100  -0.34226  -0.32725
 Alpha  occ. eigenvalues --   -0.30638  -0.30521  -0.29361  -0.27759  -0.26676
 Alpha  occ. eigenvalues --   -0.25731  -0.24203  -0.20224  -0.17152  -0.15664
 Alpha  occ. eigenvalues --   -0.12725  -0.12689  -0.08262   0.04707
 Alpha virt. eigenvalues --    0.06645   0.08421   0.08600   0.09842   0.09997
 Alpha virt. eigenvalues --    0.11444   0.11882   0.12258   0.13539   0.14139
 Alpha virt. eigenvalues --    0.14345   0.14676   0.15149   0.16614   0.17154

  Beta  occ. eigenvalues --  -88.75552 -14.20402 -14.18415 -14.16126 -10.09900
  Beta  occ. eigenvalues --  -10.09285 -10.08749 -10.08724 -10.08691 -10.06538
  Beta  occ. eigenvalues --  -10.05094  -7.84193  -5.80474  -5.80166  -5.79745
  Beta  occ. eigenvalues --   -0.84683  -0.81696  -0.77983  -0.69540  -0.64006
  Beta  occ. eigenvalues --   -0.61110  -0.56871  -0.51755  -0.47459  -0.45658
  Beta  occ. eigenvalues --   -0.40652  -0.37992  -0.36910  -0.34113  -0.32566
  Beta  occ. eigenvalues --   -0.30467  -0.29985  -0.29261  -0.27635  -0.26592
  Beta  occ. eigenvalues --   -0.25618  -0.23465  -0.19429  -0.16690  -0.15543
  Beta  occ. eigenvalues --   -0.12368  -0.12060  -0.07564
  Beta virt. eigenvalues --    0.07731   0.08539   0.09020   0.09141   0.10408
  Beta virt. eigenvalues --    0.10588   0.11563   0.12202   0.12272   0.13762
  Beta virt. eigenvalues --    0.14071   0.14412   0.14964   0.15401   0.16823

 Mulliken charges and spin densities:
               1          2
     1  C    0.587807  -0.976369
     2  N   -0.191925   0.073860
     3  C    0.650754  -0.911738
     4  C   -1.180593   1.268317
     5  C    1.655767  -0.962041
     6  C   -0.787565  -0.071228
     7  N   -0.132443   0.157454
     8  C   -0.159069   0.128389
     9  N   -0.030575   0.011252
    10  C    0.169755   0.162708
    11  S   -0.663602  -0.042281
    12  H    0.097843   0.037894
    13  H   -0.129546   0.272278
    14  H   -0.733749   0.880063
    15  H   -0.260384   0.522579
    16  H   -0.306456   0.472537
    17  H    0.187780  -0.011299
    18  H    0.226199  -0.012375
 Sum of Mulliken charges =  -1.00000   1.00000

 Dipole moment (field-independent basis, Debye):
    X=             -4.9628    Y=             -0.0048    Z=             -0.2952  Tot=              4.9715
 Quadrupole moment (field-independent basis, Debye-Ang):
   XX=           -126.1544   YY=           -104.9598   ZZ=            -86.4387
   XY=             18.2887   XZ=             -0.8691   YZ=              2.4614

 Summary of Natural Population Analysis:

                                       Natural Population
                Natural  -----------------------------------------------
    Atom  No    Charge         Core      Valence    Rydberg      Total
 -----------------------------------------------------------------------
      C    1   -0.17781      0.99965     2.16889    0.00926     3.17781
      N    2   -0.31047      0.99968     2.79843    0.01236     3.81047
      C    3    0.08512      0.99950     1.90367    0.01171     2.91488
      C    4   -0.09494      0.99947     2.08423    0.01124     3.09494
      C    5   -0.12070      0.99940     2.11039    0.01091     3.12070
      C    6    0.14094      0.99943     1.83976    0.01987     2.85906
      N    7   -0.17213      0.99966     2.66126    0.01120     3.67213
      C    8   -0.00158      0.99957     1.98687    0.01514     3.00158
      N    9   -0.22138      0.99966     2.71087    0.01085     3.72138
      C   10    0.00180      0.99966     1.98302    0.01552     2.99820
      S   11    0.13694      4.99949     2.84216    0.02141     7.86306
      H   12    0.08306      0.00000     0.41540    0.00154     0.41694
      H   13    0.09132      0.00000     0.40723    0.00145     0.40868
      H   14    0.10034      0.00000     0.39767    0.00199     0.39966
      H   15    0.18753      0.00000     0.30351    0.00896     0.31247
      H   16    0.09949      0.00000     0.39903    0.00148     0.40051
      H   17    0.08512      0.00000     0.41279    0.00209     0.41488
      H   18    0.08734      0.00000     0.41148    0.00118     0.41266
 =======================================================================
   * Total *    0.00000     14.99518    27.83666    0.16816    43.00000

 Normal termination of Gaussian 16 at Tue Dec  8 21:56:16 2020.
