 Gaussian 16, Revision A.03,

 -----------------------------------------------------------
 # opt freq B3LYP/6-31G(d) empiricaldispersion=gd3bj scf=xqc
 -----------------------------------------------------------

 ------------------------------
 CID_79724434_JID_8773_neutraal
 ------------------------------
 Symbolic Z-matrix:
 Charge =  0 Multiplicity = 1

 SCF Done:  E(RB3LYP) =  -750.973475020     A.U. after   14 cycles
 SCF Done:  E(RB3LYP) =  -750.978667834     A.U. after   12 cycles
 SCF Done:  E(RB3LYP) =  -750.979188171     A.U. after   11 cycles
 SCF Done:  E(RB3LYP) =  -750.979347621     A.U. after   11 cycles
 SCF Done:  E(RB3LYP) =  -750.979416406     A.U. after   10 cycles
 SCF Done:  E(RB3LYP) =  -750.979474630     A.U. after   10 cycles
 SCF Done:  E(RB3LYP) =  -750.979491127     A.U. after   10 cycles
 SCF Done:  E(RB3LYP) =  -750.979501271     A.U. after    9 cycles
 SCF Done:  E(RB3LYP) =  -750.979505270     A.U. after    8 cycles
 SCF Done:  E(RB3LYP) =  -750.979505896     A.U. after    7 cycles
 SCF Done:  E(RB3LYP) =  -750.979505952     A.U. after    7 cycles
 SCF Done:  E(RB3LYP) =  -750.979506022     A.U. after    6 cycles
 Optimization completed.
    -- Stationary point found.
 Normal termination of Gaussian 16 at Fri Dec 11 22:12:52 2020.

 --------------------------------------------------------------------
 #N Geom=AllCheck Guess=TCheck SCRF=Check GenChk RB3LYP/6-31G(d) Freq
 --------------------------------------------------------------------

 Structure from the checkpoint file:  "JID_8773.chk"
 ------------------------------
 CID_79724434_JID_8773_neutraal
 ------------------------------
 Charge =  0 Multiplicity = 1

 SCF Done:  E(RB3LYP) =  -750.979506022     A.U. after    1 cycles

  Exact polarizability: 245.719  -0.709 170.083 -19.107  -2.497 126.537
 Approx polarizability: 303.570  -0.731 275.603 -37.891  -7.459 194.348

                      1                      2                      3
                      A                      A                      A
 Frequencies --     31.7411                40.8397                45.1003
 Red. masses --      3.9450                 3.5916                 3.0401
 Frc consts  --      0.0023                 0.0035                 0.0036
 IR Inten    --      0.1165                 0.4379                 0.5660

                      4                      5                      6
                      A                      A                      A
 Frequencies --     70.2681               102.1484               107.0703
 Red. masses --      3.1066                 3.6360                 3.9979
 Frc consts  --      0.0090                 0.0224                 0.0270
 IR Inten    --      0.5791                 2.3056                 2.1746

                      7                      8                      9
                      A                      A                      A
 Frequencies --    138.7921               148.1387               183.7944
 Red. masses --      1.1199                 1.5982                 1.6994
 Frc consts  --      0.0127                 0.0207                 0.0338
 IR Inten    --      2.2941                 4.4773                 0.9765

                     10                     11                     12
                      A                      A                      A
 Frequencies --    195.2526               212.5512               237.0871
 Red. masses --      2.1114                 2.0373                 2.4353
 Frc consts  --      0.0474                 0.0542                 0.0807
 IR Inten    --      0.6998                 5.3707                 1.9459

                     13                     14                     15
                      A                      A                      A
 Frequencies --    237.5042               252.4480               256.6314
 Red. masses --      2.2830                 1.2282                 1.8432
 Frc consts  --      0.0759                 0.0461                 0.0715
 IR Inten    --     19.8223                34.8435                 0.5981

                     16                     17                     18
                      A                      A                      A
 Frequencies --    281.6344               319.7619               353.2884
 Red. masses --      2.3574                 3.3718                 3.0986
 Frc consts  --      0.1102                 0.2031                 0.2279
 IR Inten    --      1.4750                 0.6546                 7.7801

                     19                     20                     21
                      A                      A                      A
 Frequencies --    385.6316               396.3352               408.8369
 Red. masses --      2.4622                 2.4583                 2.4251
 Frc consts  --      0.2157                 0.2275                 0.2388
 IR Inten    --      1.4383                 1.7714                 7.1649

                     22                     23                     24
                      A                      A                      A
 Frequencies --    431.1142               457.2543               463.9358
 Red. masses --      2.5656                 2.1080                 2.8458
 Frc consts  --      0.2809                 0.2597                 0.3609
 IR Inten    --      3.0723                 1.1423                 6.4134

                     25                     26                     27
                      A                      A                      A
 Frequencies --    486.9464               515.1856               535.5711
 Red. masses --      3.0513                 3.2927                 3.8008
 Frc consts  --      0.4263                 0.5149                 0.6423
 IR Inten    --      4.2857                 2.0910                 4.4612

                     28                     29                     30
                      A                      A                      A
 Frequencies --    553.5959               580.2508               609.5287
 Red. masses --      3.3977                 3.8548                 2.6258
 Frc consts  --      0.6135                 0.7647                 0.5748
 IR Inten    --      0.9824                 3.2931                 3.6345

                     31                     32                     33
                      A                      A                      A
 Frequencies --    672.4108               718.2245               734.2567
 Red. masses --      2.2925                 4.9077                 3.2116
 Frc consts  --      0.6107                 1.4916                 1.0202
 IR Inten    --      4.1797                 2.2590                 2.6961

                     34                     35                     36
                      A                      A                      A
 Frequencies --    784.3468               797.8819               802.0357
 Red. masses --      3.3126                 1.5874                 1.7731
 Frc consts  --      1.2007                 0.5954                 0.6720
 IR Inten    --      6.1485                 4.8093                27.7429

                     37                     38                     39
                      A                      A                      A
 Frequencies --    813.2507               839.1351               848.2195
 Red. masses --      2.3599                 2.2483                 1.8268
 Frc consts  --      0.9196                 0.9328                 0.7744
 IR Inten    --     35.5657                 0.9497                29.9229

                     40                     41                     42
                      A                      A                      A
 Frequencies --    857.4888               897.8870               910.8014
 Red. masses --      1.5165                 1.8059                 3.1604
 Frc consts  --      0.6570                 0.8578                 1.5447
 IR Inten    --     12.5815                55.3862                43.9430

                     43                     44                     45
                      A                      A                      A
 Frequencies --    926.1134               946.9204               964.7349
 Red. masses --      1.3493                 1.9515                 1.5148
 Frc consts  --      0.6818                 1.0310                 0.8307
 IR Inten    --      9.8537                30.4321                32.0964

                     46                     47                     48
                      A                      A                      A
 Frequencies --    989.5908               991.7844              1013.6019
 Red. masses --      2.3533                 2.1072                 1.7700
 Frc consts  --      1.3578                 1.2212                 1.0714
 IR Inten    --      5.4759                 6.2713                 5.7497

                     49                     50                     51
                      A                      A                      A
 Frequencies --   1043.2840              1045.3626              1079.0811
 Red. masses --      1.9603                 1.7080                 1.5012
 Frc consts  --      1.2571                 1.0997                 1.0299
 IR Inten    --     10.6490                17.5699                 6.6525

                     52                     53                     54
                      A                      A                      A
 Frequencies --   1086.4301              1092.5281              1093.5394
 Red. masses --      2.2363                 1.5326                 1.6740
 Frc consts  --      1.5552                 1.0778                 1.1795
 IR Inten    --     11.6141                27.7100                 8.1752

                     55                     56                     57
                      A                      A                      A
 Frequencies --   1119.1972              1131.8382              1150.9413
 Red. masses --      1.2890                 1.8411                 1.2553
 Frc consts  --      0.9513                 1.3896                 0.9797
 IR Inten    --      1.7875                21.6952                 2.0073

                     58                     59                     60
                      A                      A                      A
 Frequencies --   1152.7441              1165.5473              1176.8440
 Red. masses --      1.7203                 1.5886                 1.6808
 Frc consts  --      1.3469                 1.2715                 1.3715
 IR Inten    --     15.4067                29.0291                12.7596

                     61                     62                     63
                      A                      A                      A
 Frequencies --   1194.9838              1221.2581              1225.7361
 Red. masses --      1.4799                 1.4796                 1.5086
 Frc consts  --      1.2451                 1.3002                 1.3354
 IR Inten    --      7.2835                 7.9136                 9.4674

                     64                     65                     66
                      A                      A                      A
 Frequencies --   1242.2549              1273.6491              1285.1918
 Red. masses --      1.8466                 3.0258                 1.8529
 Frc consts  --      1.6790                 2.8919                 1.8031
 IR Inten    --      8.3948                45.0503                37.2305

                     67                     68                     69
                      A                      A                      A
 Frequencies --   1288.6303              1302.3479              1318.3360
 Red. masses --      2.4340                 1.2447                 1.5115
 Frc consts  --      2.3814                 1.2438                 1.5478
 IR Inten    --     19.9526                 6.6494                35.3015

                     70                     71                     72
                      A                      A                      A
 Frequencies --   1346.1247              1353.7011              1362.7771
 Red. masses --      1.2938                 1.8630                 2.0665
 Frc consts  --      1.3813                 2.0114                 2.2611
 IR Inten    --      6.5155                 1.6694                 3.3869

                     73                     74                     75
                      A                      A                      A
 Frequencies --   1367.5684              1390.5252              1394.0203
 Red. masses --      1.4679                 1.4138                 3.1908
 Frc consts  --      1.6175                 1.6106                 3.6533
 IR Inten    --      2.2364                 6.6752               111.7332

                     76                     77                     78
                      A                      A                      A
 Frequencies --   1395.5510              1407.6829              1419.0462
 Red. masses --      1.4717                 1.4898                 1.5223
 Frc consts  --      1.6887                 1.7393                 1.8062
 IR Inten    --      9.1352                11.8294                22.4477

                     79                     80                     81
                      A                      A                      A
 Frequencies --   1434.0202              1442.8591              1462.9732
 Red. masses --      1.2591                 1.4044                 1.6858
 Frc consts  --      1.5256                 1.7226                 2.1259
 IR Inten    --      4.2667                18.0392                10.3880

                     82                     83                     84
                      A                      A                      A
 Frequencies --   1478.7216              1494.4850              1506.4565
 Red. masses --      1.4067                 1.4465                 1.0791
 Frc consts  --      1.8123                 1.9035                 1.4429
 IR Inten    --      8.1928                10.1873                 2.1137

                     85                     86                     87
                      A                      A                      A
 Frequencies --   1509.8259              1512.6662              1514.7956
 Red. masses --      1.1374                 1.0665                 1.2121
 Frc consts  --      1.5276                 1.4377                 1.6386
 IR Inten    --     12.7886                 7.3832                10.1752

                     88                     89                     90
                      A                      A                      A
 Frequencies --   1518.6997              1520.1040              1523.5642
 Red. masses --      1.0910                 1.0836                 1.0955
 Frc consts  --      1.4825                 1.4752                 1.4983
 IR Inten    --      5.9494                15.9237                 2.5295

                     91                     92                     93
                      A                      A                      A
 Frequencies --   1531.1452              1541.5172              1544.5850
 Red. masses --      1.1311                 1.0968                 1.0944
 Frc consts  --      1.5624                 1.5355                 1.5383
 IR Inten    --      5.0552                 3.7547                 5.0604

                     94                     95                     96
                      A                      A                      A
 Frequencies --   1560.1723              1569.0044              1627.4890
 Red. masses --      1.0742                 2.2942                 5.4655
 Frc consts  --      1.5405                 3.3275                 8.5294
 IR Inten    --     44.3664               194.7270                 6.5985

                     97                     98                     99
                      A                      A                      A
 Frequencies --   1673.6269              1698.9700              2914.9843
 Red. masses --      5.5660                 1.0899                 1.0807
 Frc consts  --      9.1857                 1.8535                 5.4103
 IR Inten    --    114.0930                26.4406                42.8963

                    100                    101                    102
                      A                      A                      A
 Frequencies --   2985.3792              2993.8782              3021.6437
 Red. masses --      1.0539                 1.0582                 1.0626
 Frc consts  --      5.5344                 5.5882                 5.7164
 IR Inten    --     70.6181               110.7611                17.3732

                    103                    104                    105
                      A                      A                      A
 Frequencies --   3030.1591              3036.2088              3046.4033
 Red. masses --      1.0618                 1.0726                 1.0468
 Frc consts  --      5.7443                 5.8258                 5.7239
 IR Inten    --     41.1374                12.8750                15.2703

                    106                    107                    108
                      A                      A                      A
 Frequencies --   3051.1296              3052.7666              3059.5778
 Red. masses --      1.0765                 1.0599                 1.0999
 Frc consts  --      5.9045                 5.8196                 6.0665
 IR Inten    --     48.1124                61.8293                49.6850

                    109                    110                    111
                      A                      A                      A
 Frequencies --   3070.2343              3078.3911              3079.8777
 Red. masses --      1.1019                 1.0828                 1.0843
 Frc consts  --      6.1198                 6.0456                 6.0601
 IR Inten    --     65.2347                21.4690                50.4068

                    112                    113                    114
                      A                      A                      A
 Frequencies --   3096.0927              3101.0019              3101.9108
 Red. masses --      1.0982                 1.0977                 1.0992
 Frc consts  --      6.2022                 6.2195                 6.2315
 IR Inten    --     34.3127                29.9136                35.8390

                    115                    116                    117
                      A                      A                      A
 Frequencies --   3136.9729              3148.0446              3150.9210
 Red. masses --      1.0994                 1.0966                 1.0995
 Frc consts  --      6.3741                 6.4027                 6.4316
 IR Inten    --      3.0716                54.3227                 7.3261

                    118                    119                    120
                      A                      A                      A
 Frequencies --   3167.1344              3217.8328              3230.7552
 Red. masses --      1.0892                 1.0882                 1.0904
 Frc consts  --      6.4369                 6.6388                 6.7056
 IR Inten    --     22.5665                15.5005                16.5919

                    121                    122                    123
                      A                      A                      A
 Frequencies --   3461.4762              3469.1903              3546.6217
 Red. masses --      1.0497                 1.0732                 1.0910
 Frc consts  --      7.4102                 7.6101                 8.0857
 IR Inten    --      2.7646                 0.8236                 1.2390

 - Thermochemistry -
 -------------------
 Temperature   298.150 Kelvin.  Pressure   1.00000 Atm.
 Atom     1 has atomic number  6 and mass  12.00000

 Molecular mass:   247.20485 amu.
 Principal axes and moments of inertia in atomic units:
                           1         2         3
     Eigenvalues --  1714.84620********************
           X            0.99999  -0.00271  -0.00305
           Y            0.00263   0.99967  -0.02559
           Z            0.00312   0.02558   0.99967
 This molecule is an asymmetric top.
 Rotational symmetry number  1.
 Warning -- assumption of classical behavior for rotation
           may cause significant error
 Rotational temperatures (Kelvin)      0.05051     0.00822     0.00790
 Rotational constants (GHZ):           1.05242     0.17131     0.16451
 Zero-point vibrational energy    1020342.3 (Joules/Mol)
                                  243.86767 (Kcal/Mol)
 Warning -- explicit consideration of  30 degrees of freedom as
           vibrations may cause significant error
 Vibrational temperatures:     45.67    58.76    64.89   101.10   146.97
          (Kelvin)            154.05   199.69   213.14   264.44   280.92
                              305.81   341.12   341.72   363.22   369.24
                              405.21   460.07   508.30   554.84   570.24
                              588.23   620.28   657.89   667.50   700.61
                              741.24   770.57   796.50   834.85   876.98
                              967.45  1033.36  1056.43  1128.50  1147.97
                             1153.95  1170.09  1207.33  1220.40  1233.74
                             1291.86  1310.44  1332.47  1362.41  1388.04
                             1423.80  1426.96  1458.35  1501.05  1504.04
                             1552.56  1563.13  1571.90  1573.36  1610.28
                             1628.46  1655.95  1658.54  1676.96  1693.22
                             1719.32  1757.12  1763.56  1787.33  1832.50
                             1849.10  1854.05  1873.79  1896.79  1936.77
                             1947.67  1960.73  1967.63  2000.66  2005.68
                             2007.89  2025.34  2041.69  2063.24  2075.95
                             2104.89  2127.55  2150.23  2167.45  2172.30
                             2176.39  2179.45  2185.07  2187.09  2192.07
                             2202.98  2217.90  2222.31  2244.74  2257.45
                             2341.59  2407.98  2444.44  4194.01  4295.29
                             4307.52  4347.47  4359.72  4368.43  4383.09
                             4389.89  4392.25  4402.05  4417.38  4429.12
                             4431.26  4454.59  4461.65  4462.96  4513.40
                             4529.33  4533.47  4556.80  4629.74  4648.34
                             4980.29  4991.39  5102.80

 Zero-point correction=                           0.388628 (Hartree/Particle)
 Thermal correction to Energy=                    0.407103
 Thermal correction to Enthalpy=                  0.408047
 Thermal correction to Gibbs Free Energy=         0.341937
 Sum of electronic and zero-point Energies=           -750.590878
 Sum of electronic and thermal Energies=              -750.572403
 Sum of electronic and thermal Enthalpies=            -750.571459
 Sum of electronic and thermal Free Energies=         -750.637569

                     E (Thermal)             CV                S
                      KCal/Mol        Cal/Mol-Kelvin    Cal/Mol-Kelvin
 Total                  255.461             71.893            139.140
 Electronic               0.000              0.000              0.000
 Translational            0.889              2.981             42.416
 Rotational               0.889              2.981             33.649
 Vibrational            253.683             65.931             63.075
 Vibration     1          0.594              1.983              5.718
 Vibration     2          0.594              1.981              5.218
 Vibration     3          0.595              1.979              5.021
 Vibration     4          0.598              1.968              4.146
 Vibration     5          0.604              1.947              3.413
 Vibration     6          0.606              1.944              3.321
 Vibration     7          0.614              1.915              2.820
 Vibration     8          0.618              1.905              2.696
 Vibration     9          0.631              1.862              2.290
 Vibration    10          0.636              1.846              2.177
 Vibration    11          0.644              1.822              2.022
 Vibration    12          0.656              1.784              1.825
 Vibration    13          0.656              1.783              1.821
 Vibration    14          0.664              1.759              1.713
 Vibration    15          0.666              1.752              1.685
 Vibration    16          0.681              1.708              1.524
 Vibration    17          0.706              1.636              1.311
 Vibration    18          0.729              1.569              1.151
 Vibration    19          0.754              1.501              1.017
 Vibration    20          0.763              1.478              0.976
 Vibration    21          0.773              1.451              0.931
 Vibration    22          0.792              1.402              0.855
 Vibration    23          0.815              1.345              0.774
 Vibration    24          0.821              1.330              0.755
 Vibration    25          0.843              1.279              0.692
 Vibration    26          0.870              1.216              0.621
 Vibration    27          0.891              1.171              0.575
 Vibration    28          0.909              1.132              0.537
 Vibration    29          0.937              1.074              0.485
 Vibration    30          0.968              1.012              0.434

                           ! Non-Optimized Parameters !
 Normal termination of Gaussian 16 at Fri Dec 11 22:32:46 2020.

 ----------------------------------------------------------------------
 # B3LYP/6-311++G(d,p) empiricaldispersion=gd3bj scf=xqc pop=npa geom=c
 heck
 ----------------------------------------------------------------------

 --------------------------------------
 CID_79724434_JID_8773_Energie_neutraal
 --------------------------------------
 Structure from the checkpoint file:  "JID_8773.chk"
 Charge =  0 Multiplicity = 1

 SCF Done:  E(RB3LYP) =  -751.189440507     A.U. after   14 cycles
 Normal termination of Gaussian 16 at Fri Dec 11 22:42:27 2020.

 ----------------------------------------------------------------------
 # B3LYP/6-311++G(d,p) empiricaldispersion=gd3bj scf=xqc pop=npa geom=c
 heck
 ----------------------------------------------------------------------

 ------------------------------------
 CID_79724434_JID_8773_Energie_kation
 ------------------------------------
 Structure from the checkpoint file:  "JID_8773.chk"
 Charge =  1 Multiplicity = 2

 SCF Done:  E(UB3LYP) =  -750.937673670     A.U. after   25 cycles
 Normal termination of Gaussian 16 at Fri Dec 11 23:06:32 2020.
 Gaussian 16:  ES64L-G16RevA.03 25-Dec-2016

 ----------------------------------------------------------------------
 # B3LYP/6-311++G(d,p) empiricaldispersion=gd3bj scf=xqc pop=npa geom=c
 heck
 ----------------------------------------------------------------------

 -----------------------------------
 CID_79724434_JID_8773_Energie_anion
 -----------------------------------
 Structure from the checkpoint file:  "JID_8773.chk"
 Charge = -1 Multiplicity = 2

                         Standard orientation:
 ---------------------------------------------------------------------
 Center     Atomic      Atomic             Coordinates (Angstroms)
 Number     Number       Type             X           Y           Z
 ---------------------------------------------------------------------
      1          6           0       -0.393391    2.236735   -1.080666
      2          6           0       -1.100413    0.957533   -0.707344
      3          6           0       -0.471036   -0.290992   -0.851569
      4          6           0       -1.193434   -1.442674   -0.522725
      5          6           0       -2.499816   -1.388697   -0.053328
      6          6           0       -3.136812   -0.143167    0.129238
      7          6           0       -2.410887    1.011287   -0.225105
      8          7           0       -4.431304   -0.058136    0.641035
      9          6           0       -5.231961   -1.266668    0.706961
     10          6           0       -5.140119    1.203784    0.535155
     11          7           0        0.876020   -0.376520   -1.349641
     12          6           0        1.897790   -0.653524   -0.323012
     13          6           0        3.238331   -0.933451   -1.009750
     14          6           0        4.349646   -1.198168    0.013799
     15          6           0        4.501500   -0.034336    1.017842
     16          6           0        3.147144    0.255594    1.684095
     17          6           0        2.034972    0.515256    0.657878
     18          7           0        5.044229    1.206998    0.443276
     19          1           0        0.121825    2.675592   -0.216875
     20          1           0        0.363273    2.044593   -1.844501
     21          1           0       -1.104292    2.983279   -1.450531
     22          1           0       -0.717801   -2.413687   -0.647600
     23          1           0       -3.016066   -2.314357    0.168326
     24          1           0       -2.873731    1.987441   -0.140379
     25          1           0       -4.760584   -2.009669    1.359698
     26          1           0       -6.206480   -1.025154    1.136284
     27          1           0       -5.392402   -1.733294   -0.279353
     28          1           0       -4.611382    1.992729    1.081264
     29          1           0       -5.269879    1.540225   -0.506991
     30          1           0       -6.127772    1.096286    0.988306
     31          1           0        0.921163   -1.128588   -2.036079
     32          1           0        1.625117   -1.548959    0.270358
     33          1           0        3.140176   -1.791179   -1.689460
     34          1           0        3.491646   -0.068604   -1.637758
     35          1           0        5.304652   -1.372503   -0.499627
     36          1           0        4.119162   -2.119740    0.567446
     37          1           0        5.210077   -0.342628    1.797406
     38          1           0        3.254696    1.115541    2.353278
     39          1           0        2.868601   -0.608228    2.302769
     40          1           0        2.242149    1.428555    0.085750
     41          1           0        1.082278    0.681796    1.172233
     42          1           0        5.935055    1.007339   -0.010969
     43          1           0        4.428811    1.545752   -0.294489
 ---------------------------------------------------------------------

 SCF Done:  E(UB3LYP) =  -751.178326332     A.U. after   33 cycles
 SCF Done:  E(UB3LYP) =  -751.178326331     a.u. after    1 cycles

 The electronic state is 2-A.
 Alpha  occ. eigenvalues --  -14.23923 -14.21121 -14.20522 -10.12000 -10.10904
 Alpha  occ. eigenvalues --  -10.10864 -10.10714 -10.10610 -10.09819 -10.08796
 Alpha  occ. eigenvalues --  -10.07896 -10.07757 -10.07674 -10.07636 -10.07438
 Alpha  occ. eigenvalues --  -10.07407 -10.07269 -10.07195  -0.85783  -0.82988
 Alpha  occ. eigenvalues --   -0.80400  -0.75030  -0.71266  -0.68031  -0.65844
 Alpha  occ. eigenvalues --   -0.64987  -0.63544  -0.61975  -0.58903  -0.56159
 Alpha  occ. eigenvalues --   -0.52970  -0.51227  -0.50530  -0.46980  -0.45912
 Alpha  occ. eigenvalues --   -0.43195  -0.41786  -0.40722  -0.39338  -0.38848
 Alpha  occ. eigenvalues --   -0.37775  -0.37405  -0.35511  -0.35271  -0.34562
 Alpha  occ. eigenvalues --   -0.33896  -0.32863  -0.32508  -0.31622  -0.31500
 Alpha  occ. eigenvalues --   -0.30507  -0.30225  -0.29427  -0.29256  -0.28749
 Alpha  occ. eigenvalues --   -0.28282  -0.26895  -0.26595  -0.25876  -0.24900
 Alpha  occ. eigenvalues --   -0.24091  -0.23196  -0.21653  -0.19001  -0.15741
 Alpha  occ. eigenvalues --   -0.15509  -0.14885  -0.10312   0.03709
 Alpha virt. eigenvalues --    0.04813   0.06242   0.06702   0.06952   0.07347
 Alpha virt. eigenvalues --    0.07707   0.08335   0.08803   0.08992   0.09364
 Alpha virt. eigenvalues --    0.09588   0.10095   0.10346   0.10615   0.10803

  Beta  occ. eigenvalues --  -14.23918 -14.21113 -14.20499 -10.11999 -10.10898
  Beta  occ. eigenvalues --  -10.10859 -10.10676 -10.10572 -10.09819 -10.08795
  Beta  occ. eigenvalues --  -10.07888 -10.07743 -10.07668 -10.07614 -10.07434
  Beta  occ. eigenvalues --  -10.07398 -10.07264 -10.07190  -0.85767  -0.82975
  Beta  occ. eigenvalues --   -0.80362  -0.75018  -0.71240  -0.68018  -0.65820
  Beta  occ. eigenvalues --   -0.64960  -0.63495  -0.61943  -0.58882  -0.56119
  Beta  occ. eigenvalues --   -0.52933  -0.51197  -0.50504  -0.46949  -0.45878
  Beta  occ. eigenvalues --   -0.43169  -0.41748  -0.40698  -0.39315  -0.38820
  Beta  occ. eigenvalues --   -0.37748  -0.37372  -0.35485  -0.35244  -0.34538
  Beta  occ. eigenvalues --   -0.33872  -0.32851  -0.32484  -0.31595  -0.31463
  Beta  occ. eigenvalues --   -0.30478  -0.30199  -0.29409  -0.29228  -0.28710
  Beta  occ. eigenvalues --   -0.28262  -0.26881  -0.26581  -0.25857  -0.24883
  Beta  occ. eigenvalues --   -0.24069  -0.23174  -0.21629  -0.18986  -0.15714
  Beta  occ. eigenvalues --   -0.15499  -0.14871  -0.10293
  Beta virt. eigenvalues --    0.05590   0.05958   0.06663   0.06954   0.07430
  Beta virt. eigenvalues --    0.07617   0.07969   0.08794   0.09130   0.09268
  Beta virt. eigenvalues --    0.09474   0.09695   0.10160   0.10458   0.10872

 Mulliken charges and spin densities:
               1          2
     1  C   -0.455440  -0.038891
     2  C    0.667262  -0.090421
     3  C    0.817075  -0.933521
     4  C    0.522530  -0.557547
     5  C   -0.732955   0.499838
     6  C   -0.957150   0.305500
     7  C   -0.304321   0.134778
     8  N   -0.138398   0.229462
     9  C    0.588992  -0.975725
    10  C    0.498269  -0.905644
    11  N    0.134285   0.077712
    12  C   -0.751126  -0.266669
    13  C   -0.376409   0.420106
    14  C    0.133785  -0.868354
    15  C    0.016244   0.237733
    16  C   -0.013332  -0.929448
    17  C    0.245237  -0.065657
    18  N   -0.276807  -0.095169
    19  H    0.122991   0.046167
    20  H    0.180161  -0.003169
    21  H   -0.010403   0.165265
    22  H   -0.333275   0.500621
    23  H    0.118943   0.040569
    24  H    0.291604  -0.124611
    25  H   -0.243456   0.392113
    26  H   -0.479309   0.622419
    27  H   -0.081162   0.231213
    28  H   -0.216864   0.364682
    29  H   -0.067618   0.222308
    30  H   -0.425518   0.573176
    31  H    0.221181   0.018505
    32  H    0.170890  -0.037244
    33  H   -0.205989   0.342532
    34  H    0.104651   0.066679
    35  H   -0.433593   0.633103
    36  H   -0.020945   0.146963
    37  H   -0.028373   0.257212
    38  H    0.169539   0.022891
    39  H    0.013850   0.127044
    40  H    0.140319  -0.007184
    41  H    0.220763  -0.039880
    42  H    0.000037   0.224636
    43  H    0.173831   0.035910
 Sum of Mulliken charges =  -1.00000   1.00000

 Dipole moment (field-independent basis, Debye):
    X=              2.8704    Y=              1.5231    Z=             -1.3775  Tot=              3.5294
 Quadrupole moment (field-independent basis, Debye-Ang):
   XX=           -264.8667   YY=           -151.6913   ZZ=           -146.3783
   XY=              0.8581   XZ=              9.7068   YZ=             -2.9956

 Summary of Natural Population Analysis:

                                       Natural Population
                Natural  -----------------------------------------------
    Atom  No    Charge         Core      Valence    Rydberg      Total
 -----------------------------------------------------------------------
      C    1   -0.29546      0.99963     2.29104    0.00478     3.29546
      C    2   -0.00939      0.99947     2.00133    0.00858     3.00939
      C    3    0.05181      0.99941     1.93703    0.01175     2.94819
      C    4   -0.09828      0.99952     2.08912    0.00964     3.09828
      C    5   -0.14514      0.99957     2.13146    0.01410     3.14514
      C    6    0.14798      0.99949     1.84560    0.00693     2.85202
      C    7   -0.14551      0.99953     2.13214    0.01384     3.14551
      N    8   -0.26575      0.99970     2.75065    0.01540     3.76575
      C    9   -0.17552      0.99964     2.16681    0.00907     3.17552
      C   10   -0.17554      0.99964     2.16686    0.00904     3.17554
      N   11   -0.34099      0.99970     2.83032    0.01096     3.84099
      C   12   -0.00484      0.99956     1.99359    0.01169     3.00484
      C   13   -0.19561      0.99961     2.18495    0.01105     3.19561
      C   14   -0.19638      0.99961     2.18693    0.00984     3.19638
      C   15   -0.01380      0.99960     2.00119    0.01302     3.01380
      C   16   -0.19083      0.99961     2.18326    0.00797     3.19083
      C   17   -0.19861      0.99960     2.19111    0.00790     3.19861
      N   18   -0.42404      0.99977     2.91385    0.01042     3.92404
      H   19    0.10272      0.00000     0.39620    0.00108     0.39728
      H   20    0.11257      0.00000     0.38638    0.00105     0.38743
      H   21    0.09882      0.00000     0.40034    0.00084     0.40118
      H   22    0.09959      0.00000     0.39937    0.00104     0.40041
      H   23    0.10393      0.00000     0.39486    0.00121     0.39607
      H   24    0.10116      0.00000     0.39760    0.00123     0.39884
      H   25    0.09650      0.00000     0.40183    0.00167     0.40350
      H   26    0.10097      0.00000     0.39761    0.00143     0.39903
      H   27    0.08825      0.00000     0.41022    0.00153     0.41175
      H   28    0.09579      0.00000     0.40274    0.00147     0.40421
      H   29    0.08804      0.00000     0.41047    0.00149     0.41196
      H   30    0.10123      0.00000     0.39743    0.00134     0.39877
      H   31    0.17542      0.00000     0.32201    0.00257     0.32458
      H   32    0.07912      0.00000     0.41868    0.00220     0.42088
      H   33    0.09988      0.00000     0.39888    0.00124     0.40012
      H   34    0.09573      0.00000     0.40265    0.00162     0.40427
      H   35    0.09999      0.00000     0.39828    0.00173     0.40001
      H   36    0.09762      0.00000     0.40106    0.00132     0.40238
      H   37    0.09134      0.00000     0.40720    0.00146     0.40866
      H   38    0.10370      0.00000     0.39529    0.00101     0.39630
      H   39    0.09754      0.00000     0.40140    0.00106     0.40246
      H   40    0.09514      0.00000     0.40354    0.00132     0.40486
      H   41    0.10569      0.00000     0.39286    0.00144     0.39431
      H   42    0.17453      0.00000     0.32383    0.00163     0.32547
      H   43    0.17086      0.00000     0.32724    0.00191     0.32914
 =======================================================================
   * Total *    0.00024     17.99266    49.78523    0.22187    67.99976

 Normal termination of Gaussian 16 at Fri Dec 11 23:38:40 2020.
