 Gaussian 16, Revision A.03,

 -----------------------------------------------------------
 # opt freq B3LYP/6-31G(d) empiricaldispersion=gd3bj scf=xqc
 -----------------------------------------------------------

 -------------------------------
 CID_113508516_JID_8226_neutraal
 -------------------------------
 Symbolic Z-matrix:
 Charge =  0 Multiplicity = 1

 SCF Done:  E(RB3LYP) =  -1290.51517606     A.U. after   15 cycles
 SCF Done:  E(RB3LYP) =  -1290.51892290     A.U. after   13 cycles
 SCF Done:  E(RB3LYP) =  -1290.51539598     A.U. after   14 cycles
 SCF Done:  E(RB3LYP) =  -1290.52186968     A.U. after   12 cycles
 SCF Done:  E(RB3LYP) =  -1290.52046230     A.U. after   14 cycles
 SCF Done:  E(RB3LYP) =  -1290.52304308     A.U. after   13 cycles
 SCF Done:  E(RB3LYP) =  -1290.52443193     A.U. after   13 cycles
 SCF Done:  E(RB3LYP) =  -1290.52470102     A.U. after   12 cycles
 SCF Done:  E(RB3LYP) =  -1290.52509263     A.U. after   12 cycles
 SCF Done:  E(RB3LYP) =  -1290.52550434     A.U. after   12 cycles
 SCF Done:  E(RB3LYP) =  -1290.52589118     A.U. after    8 cycles
 SCF Done:  E(RB3LYP) =  -1290.52589147     A.U. after    8 cycles
 SCF Done:  E(RB3LYP) =  -1290.52589160     A.U. after    8 cycles
 SCF Done:  E(RB3LYP) =  -1290.52589166     A.U. after    7 cycles
 SCF Done:  E(RB3LYP) =  -1290.52589170     A.U. after    7 cycles
 Optimization completed.
    -- Stationary point found.
 Normal termination of Gaussian 16 at Fri Dec 11 19:45:16 2020.

 --------------------------------------------------------------------
 #N Geom=AllCheck Guess=TCheck SCRF=Check GenChk RB3LYP/6-31G(d) Freq
 --------------------------------------------------------------------

 Structure from the checkpoint file:  "JID_8226.chk"
 -------------------------------
 CID_113508516_JID_8226_neutraal
 -------------------------------
 Charge =  0 Multiplicity = 1

 SCF Done:  E(RB3LYP) =  -1290.52589170     A.U. after    1 cycles

  Exact polarizability: 161.043  -7.840 147.389  16.891   9.776 116.685
 Approx polarizability: 219.548 -13.066 241.263  30.955  26.673 195.350

                      1                      2                      3
                      A                      A                      A
 Frequencies --     21.5162                36.9604                58.9281
 Red. masses --      5.6969                 9.1675                 4.1274
 Frc consts  --      0.0016                 0.0074                 0.0084
 IR Inten    --      0.1478                 1.0388                 0.9123

                      4                      5                      6
                      A                      A                      A
 Frequencies --     68.4200               102.4864               115.4054
 Red. masses --      4.3277                 4.0977                 6.9886
 Frc consts  --      0.0119                 0.0254                 0.0548
 IR Inten    --      0.4780                 3.1273                 1.0604

                      7                      8                      9
                      A                      A                      A
 Frequencies --    132.4496               180.6295               191.6039
 Red. masses --      8.4828                 5.0919                 5.2622
 Frc consts  --      0.0877                 0.0979                 0.1138
 IR Inten    --      1.3819                 2.0275                 0.4733

                     10                     11                     12
                      A                      A                      A
 Frequencies --    211.5401               220.8111               247.3541
 Red. masses --      4.0666                 5.3881                 1.1510
 Frc consts  --      0.1072                 0.1548                 0.0415
 IR Inten    --      1.4415                 0.2177                 0.5473

                     13                     14                     15
                      A                      A                      A
 Frequencies --    260.8879               265.1957               277.7206
 Red. masses --      1.9378                 1.4097                 1.5523
 Frc consts  --      0.0777                 0.0584                 0.0705
 IR Inten    --      8.7967                14.4916                28.7630

                     16                     17                     18
                      A                      A                      A
 Frequencies --    290.7397               307.3302               317.6393
 Red. masses --      3.5237                 2.1296                 4.2016
 Frc consts  --      0.1755                 0.1185                 0.2498
 IR Inten    --      6.2566                28.2166                 3.4918

                     19                     20                     21
                      A                      A                      A
 Frequencies --    321.9020               329.3999               350.4221
 Red. masses --      2.2728                 2.1381                 1.8985
 Frc consts  --      0.1388                 0.1367                 0.1374
 IR Inten    --      2.3672                 3.1813                21.9455

                     22                     23                     24
                      A                      A                      A
 Frequencies --    369.6833               384.5377               398.2929
 Red. masses --      4.7248                 2.1203                 2.4992
 Frc consts  --      0.3804                 0.1847                 0.2336
 IR Inten    --      7.7546                30.2885                 1.9493

                     25                     26                     27
                      A                      A                      A
 Frequencies --    441.1546               465.4413               503.0106
 Red. masses --      7.2540                 2.7163                 5.5427
 Frc consts  --      0.8318                 0.3467                 0.8263
 IR Inten    --     14.8239                28.5556                45.3571

                     28                     29                     30
                      A                      A                      A
 Frequencies --    539.5708               573.9077               586.0185
 Red. masses --      3.8872                 4.7575                 1.8798
 Frc consts  --      0.6668                 0.9232                 0.3803
 IR Inten    --     25.4564                41.8719                56.5610

                     31                     32                     33
                      A                      A                      A
 Frequencies --    601.3685               627.8442               634.8782
 Red. masses --      3.7969                 2.8626                 3.2129
 Frc consts  --      0.8090                 0.6648                 0.7630
 IR Inten    --     67.6852                14.4908                23.6651

                     34                     35                     36
                      A                      A                      A
 Frequencies --    675.0281               711.1380               720.2060
 Red. masses --      3.3874                 3.7514                 1.6134
 Frc consts  --      0.9094                 1.1178                 0.4931
 IR Inten    --     45.8487                54.1119                48.0389

                     37                     38                     39
                      A                      A                      A
 Frequencies --    747.1750               781.6743               812.4354
 Red. masses --      3.0254                 4.8377                 3.0664
 Frc consts  --      0.9951                 1.7416                 1.1925
 IR Inten    --      2.4325                67.6638                51.0662

                     40                     41                     42
                      A                      A                      A
 Frequencies --    910.0393               913.5112               946.7478
 Red. masses --      1.3741                 2.3657                 2.2095
 Frc consts  --      0.6705                 1.1631                 1.1669
 IR Inten    --     12.1302                55.3277                33.7072

                     43                     44                     45
                      A                      A                      A
 Frequencies --    960.7675               962.5505              1020.3290
 Red. masses --      1.8890                 3.7699                 2.0099
 Frc consts  --      1.0273                 2.0579                 1.2328
 IR Inten    --      5.8935                24.1557                58.0751

                     46                     47                     48
                      A                      A                      A
 Frequencies --   1025.8730              1065.6199              1080.6717
 Red. masses --      1.4886                 1.5058                 6.6898
 Frc consts  --      0.9230                 1.0075                 4.6031
 IR Inten    --     34.2467                45.8039               177.7685

                     49                     50                     51
                      A                      A                      A
 Frequencies --   1098.7472              1123.6894              1131.9425
 Red. masses --      1.6952                 4.1849                 2.8856
 Frc consts  --      1.2058                 3.1133                 2.1784
 IR Inten    --     40.9554                87.2591                87.8747

                     52                     53                     54
                      A                      A                      A
 Frequencies --   1134.0838              1177.1634              1208.9413
 Red. masses --      4.0135                 3.7077                 2.1357
 Frc consts  --      3.0413                 3.0271                 1.8391
 IR Inten    --     74.6631               109.5164                34.4376

                     55                     56                     57
                      A                      A                      A
 Frequencies --   1217.5167              1231.3350              1269.4770
 Red. masses --      2.3734                 1.6458                 2.8780
 Frc consts  --      2.0728                 1.4702                 2.7327
 IR Inten    --     11.6629                67.2697                11.5279

                     58                     59                     60
                      A                      A                      A
 Frequencies --   1281.4101              1312.6985              1335.0463
 Red. masses --      2.3000                 1.5065                 3.1811
 Frc consts  --      2.2252                 1.5295                 3.3406
 IR Inten    --     69.6609                23.9142                15.1785

                     61                     62                     63
                      A                      A                      A
 Frequencies --   1344.6055              1389.6467              1415.3417
 Red. masses --      4.4908                 1.4882                 5.5886
 Frc consts  --      4.7837                 1.6933                 6.5959
 IR Inten    --    118.9222                28.5116                13.8773

                     64                     65                     66
                      A                      A                      A
 Frequencies --   1426.0904              1430.8301              1439.9272
 Red. masses --      1.2294                 1.2458                 1.2991
 Frc consts  --      1.4732                 1.5027                 1.5870
 IR Inten    --      6.6395                 9.2835                44.7275

                     67                     68                     69
                      A                      A                      A
 Frequencies --   1444.2287              1449.5604              1477.3100
 Red. masses --      4.4625                 1.2468                 1.3540
 Frc consts  --      5.4840                 1.5435                 1.7410
 IR Inten    --     20.4669                51.1590                61.0435

                     70                     71                     72
                      A                      A                      A
 Frequencies --   1495.9370              1513.6411              1523.3397
 Red. masses --      2.6282                 1.0602                 1.0561
 Frc consts  --      3.4652                 1.4311                 1.4439
 IR Inten    --     58.3158                 0.7692                 3.8721

                     73                     74                     75
                      A                      A                      A
 Frequencies --   1525.2748              1531.1691              1539.8881
 Red. masses --      1.0762                 1.0544                 1.0556
 Frc consts  --      1.4751                 1.4564                 1.4748
 IR Inten    --      2.4286                 3.1521                 6.6203

                     76                     77                     78
                      A                      A                      A
 Frequencies --   1548.3020              1590.3784              1821.6385
 Red. masses --      1.0559                 5.2724                 9.7612
 Frc consts  --      1.4914                 7.8571                19.0844
 IR Inten    --      7.2391                47.1216               367.8891

                     79                     80                     81
                      A                      A                      A
 Frequencies --   3044.8250              3051.0665              3063.3777
 Red. masses --      1.0708                 1.0564                 1.0393
 Frc consts  --      5.8491                 5.7942                 5.7461
 IR Inten    --      4.6743                39.1140                16.9231

                     82                     83                     84
                      A                      A                      A
 Frequencies --   3082.2893              3120.7536              3129.6820
 Red. masses --      1.0451                 1.0951                 1.0998
 Frc consts  --      5.8502                 6.2840                 6.3468
 IR Inten    --     21.7886                18.9583                28.0766

                     85                     86                     87
                      A                      A                      A
 Frequencies --   3157.3891              3158.0070              3163.0537
 Red. masses --      1.0999                 1.0960                 1.1002
 Frc consts  --      6.4607                 6.4399                 6.4853
 IR Inten    --     13.4534                 1.0170                19.3208

                     88                     89                     90
                      A                      A                      A
 Frequencies --   3203.5575              3287.2351              3564.1078
 Red. masses --      1.0997                 1.0973                 1.0751
 Frc consts  --      6.6495                 6.9861                 8.0463
 IR Inten    --      0.8222                 0.3411                34.4648

                     91                     92                     93
                      A                      A                      A
 Frequencies --   3628.7928              3689.1308              3741.2649
 Red. masses --      1.0817                 1.0640                 1.0660
 Frc consts  --      8.3925                 8.5317                 8.7909
 IR Inten    --    139.6982                70.4495                13.2640

 - Thermochemistry -
 -------------------
 Temperature   298.150 Kelvin.  Pressure   1.00000 Atm.
 Atom     1 has atomic number  6 and mass  12.00000

 Molecular mass:   277.07324 amu.
 Principal axes and moments of inertia in atomic units:
                           1         2         3
     Eigenvalues --  3379.252375707.005837030.36151
           X            0.99999   0.00206   0.00369
           Y           -0.00208   0.99998   0.00517
           Z           -0.00368  -0.00517   0.99998
 This molecule is an asymmetric top.
 Rotational symmetry number  1.
 Warning -- assumption of classical behavior for rotation
           may cause significant error
 Rotational temperatures (Kelvin)      0.02563     0.01518     0.01232
 Rotational constants (GHZ):           0.53407     0.31623     0.25671
 Zero-point vibrational energy     683561.2 (Joules/Mol)
                                  163.37505 (Kcal/Mol)
 Warning -- explicit consideration of  31 degrees of freedom as
           vibrations may cause significant error
 Vibrational temperatures:     30.96    53.18    84.78    98.44   147.46
          (Kelvin)            166.04   190.57   259.89   275.68   304.36
                              317.70   355.89   375.36   381.56   399.58
                              418.31   442.18   457.01   463.15   473.93
                              504.18   531.89   553.26   573.05   634.72
                              669.67   723.72   776.32   825.73   843.15
                              865.24   903.33   913.45   971.21  1023.17
                             1036.22  1075.02  1124.65  1168.91  1309.34
                             1314.34  1362.16  1382.33  1384.90  1468.03
                             1476.00  1533.19  1554.85  1580.85  1616.74
                             1628.61  1631.69  1693.68  1739.40  1751.73
                             1771.62  1826.49  1843.66  1888.68  1920.83
                             1934.59  1999.39  2036.36  2051.83  2058.65
                             2071.73  2077.92  2085.59  2125.52  2152.32
                             2177.79  2191.75  2194.53  2203.01  2215.56
                             2227.66  2288.20  2620.93  4380.82  4389.80
                             4407.52  4434.73  4490.07  4502.91  4542.78
                             4543.67  4550.93  4609.20  4729.60  5127.96
                             5221.02  5307.84  5382.85

 Zero-point correction=                           0.260355 (Hartree/Particle)
 Thermal correction to Energy=                    0.279113
 Thermal correction to Enthalpy=                  0.280057
 Thermal correction to Gibbs Free Energy=         0.213341
 Sum of electronic and zero-point Energies=          -1290.265537
 Sum of electronic and thermal Energies=             -1290.246779
 Sum of electronic and thermal Enthalpies=           -1290.245834
 Sum of electronic and thermal Free Energies=        -1290.312551

                     E (Thermal)             CV                S
                      KCal/Mol        Cal/Mol-Kelvin    Cal/Mol-Kelvin
 Total                  175.146             70.514            140.417
 Electronic               0.000              0.000              0.000
 Translational            0.889              2.981             42.756
 Rotational               0.889              2.981             33.272
 Vibrational            173.369             64.553             64.389
 Vibration     1          0.593              1.985              6.489
 Vibration     2          0.594              1.982              5.416
 Vibration     3          0.596              1.974              4.493
 Vibration     4          0.598              1.969              4.198
 Vibration     5          0.605              1.947              3.406
 Vibration     6          0.608              1.937              3.176
 Vibration     7          0.613              1.921              2.910
 Vibration     8          0.630              1.866              2.322
 Vibration     9          0.634              1.851              2.212
 Vibration    10          0.643              1.823              2.030
 Vibration    11          0.648              1.809              1.952
 Vibration    12          0.661              1.767              1.749
 Vibration    13          0.669              1.744              1.656
 Vibration    14          0.671              1.737              1.627
 Vibration    15          0.679              1.715              1.548
 Vibration    16          0.687              1.691              1.470
 Vibration    17          0.697              1.660              1.377
 Vibration    18          0.704              1.640              1.322
 Vibration    19          0.707              1.632              1.300
 Vibration    20          0.712              1.617              1.263
 Vibration    21          0.727              1.574              1.164
 Vibration    22          0.742              1.535              1.081
 Vibration    23          0.753              1.503              1.021
 Vibration    24          0.765              1.474              0.969
 Vibration    25          0.801              1.380              0.823
 Vibration    26          0.823              1.327              0.750
 Vibration    27          0.858              1.243              0.651
 Vibration    28          0.895              1.163              0.566
 Vibration    29          0.930              1.088              0.497
 Vibration    30          0.943              1.062              0.474
 Vibration    31          0.960              1.029              0.447

                           ! Non-Optimized Parameters !
 Normal termination of Gaussian 16 at Fri Dec 11 20:01:04 2020.

 ----------------------------------------------------------------------
 # B3LYP/6-311++G(d,p) empiricaldispersion=gd3bj scf=xqc pop=npa geom=c
 heck
 ----------------------------------------------------------------------

 ---------------------------------------
 CID_113508516_JID_8226_Energie_neutraal
 ---------------------------------------
 Structure from the checkpoint file:  "JID_8226.chk"
 Charge =  0 Multiplicity = 1

 SCF Done:  E(RB3LYP) =  -1290.83014896     A.U. after   16 cycles
 Normal termination of Gaussian 16 at Fri Dec 11 20:07:07 2020.

 ----------------------------------------------------------------------
 # B3LYP/6-311++G(d,p) empiricaldispersion=gd3bj scf=xqc pop=npa geom=c
 heck
 ----------------------------------------------------------------------

 -------------------------------------
 CID_113508516_JID_8226_Energie_kation
 -------------------------------------
 Structure from the checkpoint file:  "JID_8226.chk"
 Charge =  1 Multiplicity = 2

 SCF Done:  E(UB3LYP) =  -1290.49386314     A.U. after   29 cycles
 Normal termination of Gaussian 16 at Fri Dec 11 20:22:04 2020.
 Gaussian 16:  ES64L-G16RevA.03 25-Dec-2016

 ----------------------------------------------------------------------
 # B3LYP/6-311++G(d,p) empiricaldispersion=gd3bj scf=xqc pop=npa geom=c
 heck
 ----------------------------------------------------------------------

 ------------------------------------
 CID_113508516_JID_8226_Energie_anion
 ------------------------------------
 Structure from the checkpoint file:  "JID_8226.chk"
 Charge = -1 Multiplicity = 2

                         Standard orientation:
 ---------------------------------------------------------------------
 Center     Atomic      Atomic             Coordinates (Angstroms)
 Number     Number       Type             X           Y           Z
 ---------------------------------------------------------------------
      1          6           0       -1.185146   -1.829080    1.245967
      2          6           0       -2.390174   -0.897594    1.164732
      3          6           0       -2.306803    0.177525    0.034229
      4          6           0       -2.233861   -0.467668   -1.349158
      5          6           0       -3.539326    1.089812    0.111176
      6          7           0       -1.118402    1.020270    0.361102
      7         16           0        0.170664    1.546431   -0.528147
      8          8           0        0.038485    1.202304   -1.934317
      9          8           0        0.404623    2.926695   -0.077256
     10          6           0        1.593140    0.689314    0.146109
     11          6           0        2.191280   -0.572387    0.068977
     12          6           0        3.288863   -0.486309    0.964481
     13          7           0        3.373695    0.706616    1.543098
     14          7           0        2.332505    1.393296    1.035439
     15          6           0        1.920482   -1.774900   -0.722451
     16          8           0        2.582664   -2.790508   -0.649900
     17          8           0        0.863977   -1.657468   -1.562486
     18          8           0       -3.608728   -1.632862    1.066638
     19          1           0       -1.079740   -2.425796    0.332608
     20          1           0       -1.311589   -2.513898    2.089639
     21          1           0       -0.257118   -1.270349    1.386508
     22          1           0       -2.475600   -0.350920    2.112772
     23          1           0       -3.103407   -1.124142   -1.455369
     24          1           0       -2.278242    0.284826   -2.137359
     25          1           0       -1.322659   -1.045536   -1.493066
     26          1           0       -3.599638    1.589844    1.086379
     27          1           0       -3.495286    1.855601   -0.668990
     28          1           0       -4.448264    0.496872   -0.011029
     29          1           0       -1.290561    1.696912    1.098076
     30          1           0        4.006904   -1.264673    1.179384
     31          1           0        2.182421    2.368611    1.263466
     32          1           0        0.820383   -2.500740   -2.051267
     33          1           0       -3.471714   -2.338340    0.415332
 ---------------------------------------------------------------------

 SCF Done:  E(UB3LYP) =  -1290.84271793     A.U. after   33 cycles
 SCF Done:  E(UB3LYP) =  -1290.84271793     a.u. after    1 cycles

 The electronic state is 2-A.
 Alpha  occ. eigenvalues --  -88.94993 -19.03755 -19.02593 -18.99875 -18.99858
 Alpha  occ. eigenvalues --  -18.94722 -14.24285 -14.22897 -14.20496 -10.13599
 Alpha  occ. eigenvalues --  -10.13255 -10.13232 -10.07768 -10.07291 -10.06111
 Alpha  occ. eigenvalues --  -10.06044 -10.05961 -10.03701  -8.00939  -5.97269
 Alpha  occ. eigenvalues --   -5.97226  -5.97024  -1.00594  -0.96209  -0.94129
 Alpha  occ. eigenvalues --   -0.91902  -0.89578  -0.86567  -0.82385  -0.70424
 Alpha  occ. eigenvalues --   -0.69418  -0.66225  -0.64444  -0.60300  -0.56709
 Alpha  occ. eigenvalues --   -0.54544  -0.52597  -0.48769  -0.47876  -0.45422
 Alpha  occ. eigenvalues --   -0.42648  -0.41167  -0.39574  -0.38764  -0.36482
 Alpha  occ. eigenvalues --   -0.35947  -0.35316  -0.34225  -0.33202  -0.32999
 Alpha  occ. eigenvalues --   -0.32512  -0.32310  -0.30542  -0.30073  -0.29752
 Alpha  occ. eigenvalues --   -0.29116  -0.28980  -0.27860  -0.26956  -0.26061
 Alpha  occ. eigenvalues --   -0.24953  -0.23893  -0.22771  -0.21186  -0.21029
 Alpha  occ. eigenvalues --   -0.19872  -0.19509  -0.18651  -0.17034  -0.16535
 Alpha  occ. eigenvalues --   -0.13755  -0.13527  -0.12828   0.04511
 Alpha virt. eigenvalues --    0.06278   0.07562   0.08627   0.09501   0.10414
 Alpha virt. eigenvalues --    0.10721   0.11013   0.11351   0.12170   0.12603
 Alpha virt. eigenvalues --    0.12938   0.13434   0.14108   0.14719   0.15517

  Beta  occ. eigenvalues --  -88.94978 -19.03746 -19.02537 -18.99829 -18.99827
  Beta  occ. eigenvalues --  -18.94388 -14.23944 -14.22794 -14.20535 -10.13292
  Beta  occ. eigenvalues --  -10.13244 -10.13226 -10.07300 -10.07280 -10.06106
  Beta  occ. eigenvalues --  -10.06040 -10.05955 -10.03606  -8.00923  -5.97225
  Beta  occ. eigenvalues --   -5.97196  -5.97023  -1.00459  -0.95901  -0.94113
  Beta  occ. eigenvalues --   -0.91548  -0.89494  -0.86071  -0.82242  -0.70234
  Beta  occ. eigenvalues --   -0.69097  -0.65686  -0.64418  -0.60274  -0.56393
  Beta  occ. eigenvalues --   -0.54320  -0.52139  -0.48598  -0.47713  -0.45216
  Beta  occ. eigenvalues --   -0.42419  -0.41088  -0.39402  -0.38711  -0.36430
  Beta  occ. eigenvalues --   -0.35891  -0.34984  -0.33958  -0.33013  -0.32861
  Beta  occ. eigenvalues --   -0.32278  -0.31475  -0.30318  -0.29805  -0.29192
  Beta  occ. eigenvalues --   -0.28999  -0.28638  -0.27749  -0.26912  -0.25863
  Beta  occ. eigenvalues --   -0.24823  -0.23793  -0.22708  -0.21048  -0.20900
  Beta  occ. eigenvalues --   -0.19616  -0.19285  -0.17472  -0.16949  -0.16183
  Beta  occ. eigenvalues --   -0.13214  -0.12565  -0.11235
  Beta virt. eigenvalues --    0.06388   0.07597   0.08569   0.09397   0.10350
  Beta virt. eigenvalues --    0.10659   0.10873   0.11033   0.11411   0.12158
  Beta virt. eigenvalues --    0.12717   0.13373   0.13577   0.14205   0.14703

 Mulliken charges and spin densities:
               1          2
     1  C   -0.482468  -0.063378
     2  C   -0.054957  -0.113986
     3  C   -0.471242   0.168001
     4  C   -0.583288  -0.123059
     5  C   -0.199785  -0.159555
     6  N   -0.150214   0.010278
     7  S    0.400949   0.090293
     8  O   -0.064013  -0.007566
     9  O   -0.218424  -0.000294
    10  C   -1.215328   0.255787
    11  C    0.860412   0.085671
    12  C   -0.149986   0.029954
    13  N   -0.211645  -0.007130
    14  N    0.031215   0.120026
    15  C   -0.393680   0.178619
    16  O   -0.378137   0.116263
    17  O   -0.235081   0.004445
    18  O   -0.159355  -0.005694
    19  H    0.054215   0.096227
    20  H    0.142374   0.035444
    21  H    0.243584  -0.010890
    22  H    0.168167   0.010392
    23  H   -0.017122   0.101814
    24  H    0.195382   0.002053
    25  H    0.263993  -0.013804
    26  H    0.067559   0.052471
    27  H    0.164149   0.009673
    28  H    0.095878   0.073421
    29  H    0.343915  -0.009087
    30  H    0.164470   0.000428
    31  H    0.319766  -0.008738
    32  H    0.286681   0.008007
    33  H    0.182016   0.073914
 Sum of Mulliken charges =  -1.00000   1.00000

 Dipole moment (field-independent basis, Debye):
    X=             -6.4307    Y=              0.8342    Z=              0.9092  Tot=              6.5480
 Quadrupole moment (field-independent basis, Debye-Ang):
   XX=           -165.7053   YY=           -144.7946   ZZ=           -130.0191
   XY=              4.6737   XZ=              0.0607   YZ=              5.8126

 Summary of Natural Population Analysis:

                                       Natural Population
                Natural  -----------------------------------------------
    Atom  No    Charge         Core      Valence    Rydberg      Total
 -----------------------------------------------------------------------
      C    1   -0.30590      0.99964     2.29941    0.00685     3.30590
      C    2    0.06559      0.99951     1.92017    0.01473     2.93441
      C    3    0.05770      0.99955     1.92855    0.01420     2.94230
      C    4   -0.30699      0.99960     2.29768    0.00971     3.30699
      C    5   -0.28771      0.99962     2.28214    0.00594     3.28771
      N    6   -0.45032      0.99969     2.93538    0.01525     3.95032
      S    7    1.13109      4.99920     1.76758    0.10213     6.86891
      O    8   -0.44966      0.99990     3.44429    0.00548     4.44966
      O    9   -0.48400      0.99991     3.47906    0.00503     4.48400
      C   10    0.05184      0.99935     1.93218    0.01662     2.94816
      C   11   -0.11686      0.99941     2.10696    0.01049     3.11686
      C   12    0.00360      0.99962     1.98144    0.01534     2.99640
      N   13   -0.17119      0.99974     2.65709    0.01436     3.67119
      N   14   -0.12687      0.99964     2.61463    0.01260     3.62687
      C   15    0.42985      0.99965     1.54770    0.02279     2.57015
      O   16   -0.29990      0.99987     3.29448    0.00555     4.29990
      O   17   -0.35274      0.99988     3.34542    0.00744     4.35274
      O   18   -0.37507      0.99990     3.36856    0.00661     4.37507
      H   19    0.10038      0.00000     0.39812    0.00151     0.39962
      H   20    0.09928      0.00000     0.39993    0.00079     0.40072
      H   21    0.11984      0.00000     0.37902    0.00114     0.38016
      H   22    0.08117      0.00000     0.41705    0.00177     0.41883
      H   23    0.09433      0.00000     0.40467    0.00099     0.40567
      H   24    0.11152      0.00000     0.38735    0.00113     0.38848
      H   25    0.12216      0.00000     0.37640    0.00144     0.37784
      H   26    0.09407      0.00000     0.40499    0.00095     0.40593
      H   27    0.10205      0.00000     0.39680    0.00115     0.39795
      H   28    0.10855      0.00000     0.39044    0.00101     0.39145
      H   29    0.19767      0.00000     0.30070    0.00163     0.30233
      H   30    0.09947      0.00000     0.39944    0.00109     0.40053
      H   31    0.19983      0.00000     0.29821    0.00195     0.30017
      H   32    0.23070      0.00000     0.26519    0.00411     0.26930
      H   33    0.22651      0.00000     0.27072    0.00277     0.27349
 =======================================================================
   * Total *    0.00000     21.99368    50.69176    0.31457    73.00000

 Normal termination of Gaussian 16 at Fri Dec 11 20:39:59 2020.
