 Gaussian 16, Revision A.03,

 -----------------------------------------------------------
 # opt freq B3LYP/6-31G(d) empiricaldispersion=gd3bj scf=xqc
 -----------------------------------------------------------

 -------------------------------
 CID_79849022_JID_10995_neutraal
 -------------------------------
 Symbolic Z-matrix:
 Charge =  0 Multiplicity = 1

 SCF Done:  E(RB3LYP) =  -937.522774182     A.U. after   15 cycles
 SCF Done:  E(RB3LYP) =  -937.529878315     A.U. after   12 cycles
 SCF Done:  E(RB3LYP) =  -937.528110179     A.U. after   13 cycles
 SCF Done:  E(RB3LYP) =  -937.531219742     A.U. after   13 cycles
 SCF Done:  E(RB3LYP) =  -937.532450608     A.U. after   13 cycles
 SCF Done:  E(RB3LYP) =  -937.533216925     A.U. after   13 cycles
 SCF Done:  E(RB3LYP) =  -937.533953807     A.U. after   15 cycles
 SCF Done:  E(RB3LYP) =  -937.535684428     A.U. after   12 cycles
 SCF Done:  E(RB3LYP) =  -937.536541847     A.U. after   13 cycles
 SCF Done:  E(RB3LYP) =  -937.537082576     A.U. after   12 cycles
 SCF Done:  E(RB3LYP) =  -937.537550851     A.U. after    9 cycles
 SCF Done:  E(RB3LYP) =  -937.537550961     A.U. after    7 cycles
 SCF Done:  E(RB3LYP) =  -937.537551054     A.U. after    7 cycles
 SCF Done:  E(RB3LYP) =  -937.537551124     A.U. after    7 cycles
 SCF Done:  E(RB3LYP) =  -937.537551169     A.U. after    7 cycles
 Optimization completed.
    -- Stationary point found.
 Normal termination of Gaussian 16 at Sat Dec 12 17:03:03 2020.

 --------------------------------------------------------------------
 #N Geom=AllCheck Guess=TCheck SCRF=Check GenChk RB3LYP/6-31G(d) Freq
 --------------------------------------------------------------------

 Structure from the checkpoint file:  "JID_10995.chk"
 -------------------------------
 CID_79849022_JID_10995_neutraal
 -------------------------------
 Charge =  0 Multiplicity = 1

 SCF Done:  E(RB3LYP) =  -937.537551169     A.U. after    1 cycles

  Exact polarizability: 203.676   0.857 170.285  11.740  -6.827 122.912
 Approx polarizability: 279.883  -0.072 280.119  29.712 -27.420 190.852

                      1                      2                      3
                      A                      A                      A
 Frequencies --     19.1585                34.4683                40.1512
 Red. masses --      5.8959                 6.4970                 4.3570
 Frc consts  --      0.0013                 0.0045                 0.0041
 IR Inten    --      0.4534                 0.5382                 0.2773

                      4                      5                      6
                      A                      A                      A
 Frequencies --     53.4154                61.5610                87.4162
 Red. masses --      7.6359                 6.1851                 4.0607
 Frc consts  --      0.0128                 0.0138                 0.0183
 IR Inten    --      2.4572                 1.9076                 0.4820

                      7                      8                      9
                      A                      A                      A
 Frequencies --     96.3462               136.6389               139.0593
 Red. masses --      3.1110                 2.6679                 3.8178
 Frc consts  --      0.0170                 0.0293                 0.0435
 IR Inten    --      6.6147                 1.1575                 0.0594

                     10                     11                     12
                      A                      A                      A
 Frequencies --    161.0353               175.2606               213.8407
 Red. masses --      4.5430                 3.7339                 3.0288
 Frc consts  --      0.0694                 0.0676                 0.0816
 IR Inten    --      0.1755                 1.2057                 1.5731

                     13                     14                     15
                      A                      A                      A
 Frequencies --    265.1988               277.4951               328.1786
 Red. masses --      2.6379                 5.2651                 3.3736
 Frc consts  --      0.1093                 0.2389                 0.2141
 IR Inten    --      1.0990                 8.1154                 2.8652

                     16                     17                     18
                      A                      A                      A
 Frequencies --    336.3384               351.0090               375.6582
 Red. masses --      6.0526                 3.8886                 4.2600
 Frc consts  --      0.4034                 0.2823                 0.3542
 IR Inten    --      1.5246                 3.2264                 2.4822

                     19                     20                     21
                      A                      A                      A
 Frequencies --    404.2918               423.7112               438.7641
 Red. masses --      3.1553                 3.5210                 3.2946
 Frc consts  --      0.3039                 0.3724                 0.3737
 IR Inten    --      1.8975                 4.0031                 0.7320

                     22                     23                     24
                      A                      A                      A
 Frequencies --    518.9800               520.7856               564.3885
 Red. masses --      1.8224                 4.1196                 4.5094
 Frc consts  --      0.2892                 0.6583                 0.8463
 IR Inten    --     11.3554                 8.8262                15.6736

                     25                     26                     27
                      A                      A                      A
 Frequencies --    587.1635               615.9517               620.7262
 Red. masses --      3.4955                 2.4404                 3.8610
 Frc consts  --      0.7100                 0.5455                 0.8765
 IR Inten    --     56.6142                 4.8808                36.0710

                     28                     29                     30
                      A                      A                      A
 Frequencies --    664.1747               684.4969               693.7312
 Red. masses --      2.3320                 1.8586                 1.6838
 Frc consts  --      0.6061                 0.5131                 0.4774
 IR Inten    --     16.2624                33.4953                66.9551

                     31                     32                     33
                      A                      A                      A
 Frequencies --    708.2561               722.1310               730.9272
 Red. masses --      2.3468                 5.6027                 3.5802
 Frc consts  --      0.6936                 1.7214                 1.1269
 IR Inten    --     43.4825                 7.6362                 7.9162

                     34                     35                     36
                      A                      A                      A
 Frequencies --    772.8285               781.1553               822.8083
 Red. masses --      3.4442                 1.5875                 1.7893
 Frc consts  --      1.2120                 0.5708                 0.7137
 IR Inten    --     46.1780                 0.3297                 6.5334

                     37                     38                     39
                      A                      A                      A
 Frequencies --    845.0067               858.5007               887.4337
 Red. masses --      2.9315                 1.8154                 3.1815
 Frc consts  --      1.2333                 0.7883                 1.4762
 IR Inten    --     12.6062                14.5604                 4.2846

                     40                     41                     42
                      A                      A                      A
 Frequencies --    899.0301               907.4707               914.5516
 Red. masses --      2.2042                 1.6824                 2.6547
 Frc consts  --      1.0497                 0.8163                 1.3082
 IR Inten    --      0.8108                25.3003                 3.5250

                     43                     44                     45
                      A                      A                      A
 Frequencies --    937.7556               946.2669               956.9459
 Red. masses --      4.3574                 2.6201                 2.2922
 Frc consts  --      2.2576                 1.3823                 1.2367
 IR Inten    --     16.8532                16.9332                 1.3209

                     46                     47                     48
                      A                      A                      A
 Frequencies --    966.3772               981.4296               992.7880
 Red. masses --      1.3198                 2.6769                 2.1470
 Frc consts  --      0.7262                 1.5191                 1.2468
 IR Inten    --      0.5954                 4.1775                 3.9274

                     49                     50                     51
                      A                      A                      A
 Frequencies --   1035.1247              1066.5139              1069.3385
 Red. masses --      1.6367                 1.5287                 1.7993
 Frc consts  --      1.0333                 1.0245                 1.2122
 IR Inten    --      1.3819                18.2427                 2.2543

                     52                     53                     54
                      A                      A                      A
 Frequencies --   1102.5717              1103.7372              1119.9252
 Red. masses --      3.4229                 2.5305                 2.2802
 Frc consts  --      2.4517                 1.8163                 1.6850
 IR Inten    --     33.6834                61.4069                 4.8570

                     55                     56                     57
                      A                      A                      A
 Frequencies --   1145.1221              1161.2497              1186.5653
 Red. masses --      2.3468                 1.7857                 2.5839
 Frc consts  --      1.8132                 1.4187                 2.1434
 IR Inten    --     56.0819                17.6800               212.6036

                     58                     59                     60
                      A                      A                      A
 Frequencies --   1196.9311              1211.3675              1214.8282
 Red. masses --      1.1193                 1.8814                 1.9247
 Frc consts  --      0.9448                 1.6266                 1.6735
 IR Inten    --      1.3721                 6.1614                 7.3119

                     61                     62                     63
                      A                      A                      A
 Frequencies --   1224.6311              1226.6818              1243.1120
 Red. masses --      1.6022                 1.0654                 1.4463
 Frc consts  --      1.4157                 0.9446                 1.3169
 IR Inten    --     23.0076                 1.1908                 1.5964

                     64                     65                     66
                      A                      A                      A
 Frequencies --   1258.0608              1277.9091              1293.5652
 Red. masses --      2.6408                 1.2857                 1.3665
 Frc consts  --      2.4625                 1.2370                 1.3472
 IR Inten    --     10.8675                 0.6689                12.2755

                     67                     68                     69
                      A                      A                      A
 Frequencies --   1298.0035              1313.5005              1322.4522
 Red. masses --      1.3701                 1.6616                 1.5810
 Frc consts  --      1.3601                 1.6891                 1.6291
 IR Inten    --      1.6101                10.2360                47.6149

                     70                     71                     72
                      A                      A                      A
 Frequencies --   1332.6370              1341.8973              1358.9565
 Red. masses --      1.8333                 2.9904                 1.5868
 Frc consts  --      1.9183                 3.1726                 1.7265
 IR Inten    --      4.7010                 3.3192                 1.4587

                     73                     74                     75
                      A                      A                      A
 Frequencies --   1397.5868              1418.8510              1424.1077
 Red. masses --      3.0842                 2.3233                 2.4996
 Frc consts  --      3.5493                 2.7557                 2.9868
 IR Inten    --    336.5493                26.7651               122.0510

                     76                     77                     78
                      A                      A                      A
 Frequencies --   1468.6618              1477.3463              1486.5625
 Red. masses --      3.4724                 1.4821                 1.1563
 Frc consts  --      4.4129                 1.9059                 1.5055
 IR Inten    --      9.0461                41.9795                15.5495

                     79                     80                     81
                      A                      A                      A
 Frequencies --   1508.6809              1516.7548              1538.3067
 Red. masses --      1.1135                 1.0881                 1.6942
 Frc consts  --      1.4933                 1.4749                 2.3621
 IR Inten    --      3.3185                 2.6721                 6.6869

                     82                     83                     84
                      A                      A                      A
 Frequencies --   1539.2152              1540.7555              1552.9292
 Red. masses --      1.1569                 1.3951                 1.1087
 Frc consts  --      1.6148                 1.9512                 1.5753
 IR Inten    --      3.6733                 1.6335                 0.4854

                     85                     86                     87
                      A                      A                      A
 Frequencies --   1640.7836              1675.8948              1754.3719
 Red. masses --      7.1762                 6.5208                 8.2531
 Frc consts  --     11.3828                10.7905                14.9661
 IR Inten    --     12.2068                 7.4101               358.0679

                     88                     89                     90
                      A                      A                      A
 Frequencies --   1837.3828              2988.9363              2994.6306
 Red. masses --      9.4639                 1.0695                 1.0723
 Frc consts  --     18.8244                 5.6296                 5.6659
 IR Inten    --    193.0359                71.5004                71.4118

                     91                     92                     93
                      A                      A                      A
 Frequencies --   3055.3695              3059.8650              3060.5578
 Red. masses --      1.0918                 1.0934                 1.0679
 Frc consts  --      6.0049                 6.0314                 5.8938
 IR Inten    --     31.7530                45.5146                 4.8820

                     94                     95                     96
                      A                      A                      A
 Frequencies --   3079.2606              3085.0137              3086.2356
 Red. masses --      1.0627                 1.0706                 1.0592
 Frc consts  --      5.9370                 6.0033                 5.9439
 IR Inten    --     26.9939                21.7677                33.2634

                     97                     98                     99
                      A                      A                      A
 Frequencies --   3117.3288              3131.6319              3145.3829
 Red. masses --      1.0932                 1.1064                 1.1068
 Frc consts  --      6.2591                 6.3929                 6.4513
 IR Inten    --     13.4941                11.9844                36.3345

                    100                    101                    102
                      A                      A                      A
 Frequencies --   3185.1168              3192.9913              3217.7462
 Red. masses --      1.0959                 1.0895                 1.0890
 Frc consts  --      6.5505                 6.5447                 6.6434
 IR Inten    --     11.5861                12.9232                10.2260

                    103                    104                    105
                      A                      A                      A
 Frequencies --   3223.0347              3575.1068              3679.6255
 Red. masses --      1.0929                 1.0748                 1.0639
 Frc consts  --      6.6889                 8.0941                 8.4874
 IR Inten    --      3.9353                34.9413                53.8598

 - Thermochemistry -
 -------------------
 Temperature   298.150 Kelvin.  Pressure   1.00000 Atm.
 Atom     1 has atomic number  6 and mass  12.00000

 Molecular mass:   275.11576 amu.
 Principal axes and moments of inertia in atomic units:
                           1         2         3
     Eigenvalues --  3344.303238649.058459869.19796
           X            0.99996  -0.00350  -0.00825
           Y            0.00381   0.99928   0.03764
           Z            0.00812  -0.03767   0.99926
 This molecule is an asymmetric top.
 Rotational symmetry number  1.
 Warning -- assumption of classical behavior for rotation
           may cause significant error
 Rotational temperatures (Kelvin)      0.02590     0.01001     0.00878
 Rotational constants (GHZ):           0.53965     0.20866     0.18287
 Zero-point vibrational energy     797202.0 (Joules/Mol)
                                  190.53585 (Kcal/Mol)
 Warning -- explicit consideration of  27 degrees of freedom as
           vibrations may cause significant error
 Vibrational temperatures:     27.56    49.59    57.77    76.85    88.57
          (Kelvin)            125.77   138.62   196.59   200.08   231.69
                              252.16   307.67   381.56   399.25   472.18
                              483.92   505.02   540.49   581.69   609.63
                              631.28   746.70   749.29   812.03   844.80
                              886.22   893.09   955.60   984.84   998.12
                             1019.02  1038.99  1051.64  1111.93  1123.91
                             1183.84  1215.78  1235.19  1276.82  1293.50
                             1305.65  1315.84  1349.22  1361.47  1376.83
                             1390.40  1412.06  1428.40  1489.31  1534.48
                             1538.54  1586.35  1588.03  1611.32  1647.58
                             1670.78  1707.20  1722.12  1742.89  1747.87
                             1761.97  1764.92  1788.56  1810.07  1838.63
                             1861.15  1867.54  1889.83  1902.71  1917.37
                             1930.69  1955.24  2010.82  2041.41  2048.97
                             2113.08  2125.57  2138.83  2170.66  2182.27
                             2213.28  2214.59  2216.80  2234.32  2360.72
                             2411.24  2524.15  2643.58  4300.41  4308.61
                             4396.00  4402.46  4403.46  4430.37  4438.65
                             4440.40  4485.14  4505.72  4525.50  4582.67
                             4594.00  4629.62  4637.23  5143.78  5294.16

 Zero-point correction=                           0.303638 (Hartree/Particle)
 Thermal correction to Energy=                    0.321631
 Thermal correction to Enthalpy=                  0.322576
 Thermal correction to Gibbs Free Energy=         0.255102
 Sum of electronic and zero-point Energies=           -937.233913
 Sum of electronic and thermal Energies=              -937.215920
 Sum of electronic and thermal Enthalpies=            -937.214976
 Sum of electronic and thermal Free Energies=         -937.282449

                     E (Thermal)             CV                S
                      KCal/Mol        Cal/Mol-Kelvin    Cal/Mol-Kelvin
 Total                  201.827             68.391            142.009
 Electronic               0.000              0.000              0.000
 Translational            0.889              2.981             42.735
 Rotational               0.889              2.981             34.012
 Vibrational            200.049             62.429             65.263
 Vibration     1          0.593              1.986              6.720
 Vibration     2          0.594              1.983              5.554
 Vibration     3          0.594              1.981              5.252
 Vibration     4          0.596              1.976              4.687
 Vibration     5          0.597              1.973              4.407
 Vibration     6          0.601              1.958              3.717
 Vibration     7          0.603              1.952              3.527
 Vibration     8          0.614              1.917              2.850
 Vibration     9          0.615              1.914              2.817
 Vibration    10          0.622              1.890              2.538
 Vibration    11          0.627              1.873              2.378
 Vibration    12          0.644              1.820              2.011
 Vibration    13          0.671              1.737              1.627
 Vibration    14          0.678              1.715              1.549
 Vibration    15          0.711              1.619              1.269
 Vibration    16          0.717              1.603              1.229
 Vibration    17          0.728              1.573              1.162
 Vibration    18          0.746              1.522              1.057
 Vibration    19          0.769              1.461              0.947
 Vibration    20          0.786              1.419              0.879
 Vibration    21          0.799              1.386              0.830
 Vibration    22          0.874              1.208              0.612
 Vibration    23          0.876              1.204              0.608
 Vibration    24          0.920              1.108              0.515
 Vibration    25          0.944              1.059              0.472
 Vibration    26          0.976              0.998              0.423
 Vibration    27          0.981              0.988              0.415

 Optimization completed.
    -- Stationary point found.
 Normal termination of Gaussian 16 at Sat Dec 12 17:22:16 2020.

 ----------------------------------------------------------------------
 # B3LYP/6-311++G(d,p) empiricaldispersion=gd3bj scf=xqc pop=npa geom=c
 heck
 ----------------------------------------------------------------------

 ---------------------------------------
 CID_79849022_JID_10995_Energie_neutraal
 ---------------------------------------
 Structure from the checkpoint file:  "JID_10995.chk"
 Charge =  0 Multiplicity = 1

 SCF Done:  E(RB3LYP) =  -937.807745086     A.U. after   17 cycles
 Normal termination of Gaussian 16 at Sat Dec 12 17:31:39 2020.

 ----------------------------------------------------------------------
 # B3LYP/6-311++G(d,p) empiricaldispersion=gd3bj scf=xqc pop=npa geom=c
 heck
 ----------------------------------------------------------------------

 -------------------------------------
 CID_79849022_JID_10995_Energie_kation
 -------------------------------------
 Structure from the checkpoint file:  "JID_10995.chk"
 Charge =  1 Multiplicity = 2

 SCF Done:  E(UB3LYP) =  -937.501815617     A.U. after   28 cycles
 Normal termination of Gaussian 16 at Sat Dec 12 17:53:28 2020.
 Gaussian 16:  ES64L-G16RevA.03 25-Dec-2016

 ----------------------------------------------------------------------
 # B3LYP/6-311++G(d,p) empiricaldispersion=gd3bj scf=xqc pop=npa geom=c
 heck
 ----------------------------------------------------------------------

 ------------------------------------
 CID_79849022_JID_10995_Energie_anion
 ------------------------------------
 Structure from the checkpoint file:  "JID_10995.chk"
 Charge = -1 Multiplicity = 2

                         Standard orientation:
 ---------------------------------------------------------------------
 Center     Atomic      Atomic             Coordinates (Angstroms)
 Number     Number       Type             X           Y           Z
 ---------------------------------------------------------------------
      1          6           0       -1.957161    1.899678    2.091226
      2          6           0       -0.960664    0.756022    1.788855
      3          6           0       -1.905756    0.261592    0.648034
      4          6           0       -3.037088    1.102623    1.324454
      5          6           0       -2.161258   -1.243430    0.564402
      6          6           0       -3.296363   -1.580767   -0.376124
      7          8           0       -4.067529   -0.788195   -0.874179
      8          8           0       -3.378425   -2.912961   -0.599779
      9          7           0       -1.619675    0.824232   -0.678330
     10          6           0       -0.492092    1.384664   -1.230779
     11          8           0       -0.582916    2.206878   -2.138370
     12          6           0        0.855706    0.931770   -0.757420
     13          6           0        1.161712   -0.422936   -0.573313
     14          6           0        2.447680   -0.774096   -0.182643
     15          6           0        3.422027    0.200184    0.027308
     16          6           0        4.701232   -0.483494    0.431276
     17          8           0        4.349230   -1.856208    0.627267
     18          6           0        3.063042   -2.126809    0.063619
     19          6           0        3.135550    1.547646   -0.175814
     20          6           0        1.850571    1.904715   -0.583217
     21          1           0       -1.684472    2.821977    1.570532
     22          1           0       -2.151546    2.131735    3.141576
     23          1           0        0.064963    1.015358    1.534721
     24          1           0       -0.940665    0.014171    2.593866
     25          1           0       -3.641557    0.479650    1.991461
     26          1           0       -3.707145    1.641700    0.651027
     27          1           0       -1.267980   -1.789789    0.247356
     28          1           0       -2.422965   -1.639919    1.554007
     29          1           0       -4.139232   -3.042460   -1.197554
     30          1           0       -2.453776    1.114650   -1.177140
     31          1           0        0.407275   -1.179116   -0.761188
     32          1           0        5.125021   -0.096235    1.366690
     33          1           0        5.474053   -0.390817   -0.349501
     34          1           0        3.163771   -2.702851   -0.871034
     35          1           0        2.495266   -2.741488    0.773928
     36          1           0        3.894883    2.310966   -0.028982
     37          1           0        1.596118    2.942562   -0.770159
 ---------------------------------------------------------------------

 SCF Done:  E(UB3LYP) =  -937.806569539     A.U. after   33 cycles
 SCF Done:  E(UB3LYP) =  -937.806569539     a.u. after    1 cycles

 The electronic state is 2-A.
 Alpha  occ. eigenvalues --  -19.07349 -19.03016 -19.01954 -18.96398 -14.21711
 Alpha  occ. eigenvalues --  -10.21092 -10.14827 -10.12990 -10.12672 -10.12646
 Alpha  occ. eigenvalues --  -10.08987 -10.07818 -10.07782 -10.07585 -10.07277
 Alpha  occ. eigenvalues --  -10.06626 -10.06547 -10.06367 -10.06047 -10.05966
 Alpha  occ. eigenvalues --   -1.01476  -0.94638  -0.92594  -0.91676  -0.82058
 Alpha  occ. eigenvalues --   -0.75333  -0.73659  -0.67438  -0.66619  -0.66269
 Alpha  occ. eigenvalues --   -0.62050  -0.57620  -0.56757  -0.54456  -0.51055
 Alpha  occ. eigenvalues --   -0.50266  -0.49686  -0.47685  -0.44553  -0.41278
 Alpha  occ. eigenvalues --   -0.40454  -0.39867  -0.39294  -0.39017  -0.38242
 Alpha  occ. eigenvalues --   -0.37533  -0.37129  -0.36792  -0.34114  -0.33485
 Alpha  occ. eigenvalues --   -0.32621  -0.32113  -0.31350  -0.30933  -0.30151
 Alpha  occ. eigenvalues --   -0.29884  -0.29616  -0.28008  -0.25949  -0.25784
 Alpha  occ. eigenvalues --   -0.25293  -0.24599  -0.24337  -0.23372  -0.22806
 Alpha  occ. eigenvalues --   -0.22431  -0.21892  -0.18856  -0.17240  -0.15117
 Alpha  occ. eigenvalues --   -0.14871  -0.14122  -0.12797   0.04038
 Alpha virt. eigenvalues --    0.05734   0.06604   0.07220   0.08083   0.08517
 Alpha virt. eigenvalues --    0.08696   0.09266   0.09506   0.09710   0.10411
 Alpha virt. eigenvalues --    0.10761   0.11453   0.11542   0.11837   0.12739

  Beta  occ. eigenvalues --  -19.07299 -19.03012 -19.01915 -18.96269 -14.21701
  Beta  occ. eigenvalues --  -10.21059 -10.14731 -10.12987 -10.12664 -10.12663
  Beta  occ. eigenvalues --  -10.08971 -10.07815 -10.07775 -10.07580 -10.07343
  Beta  occ. eigenvalues --  -10.06642 -10.06474 -10.06162 -10.05890 -10.05777
  Beta  occ. eigenvalues --   -1.01388  -0.94621  -0.92510  -0.91447  -0.81991
  Beta  occ. eigenvalues --   -0.75086  -0.73618  -0.67361  -0.66356  -0.66117
  Beta  occ. eigenvalues --   -0.61866  -0.57580  -0.56669  -0.54207  -0.50924
  Beta  occ. eigenvalues --   -0.50166  -0.49529  -0.47611  -0.44458  -0.41209
  Beta  occ. eigenvalues --   -0.40368  -0.39787  -0.39239  -0.38921  -0.38154
  Beta  occ. eigenvalues --   -0.37435  -0.37019  -0.36689  -0.34018  -0.33392
  Beta  occ. eigenvalues --   -0.32453  -0.32023  -0.31270  -0.30867  -0.30058
  Beta  occ. eigenvalues --   -0.29731  -0.29577  -0.27612  -0.25775  -0.25644
  Beta  occ. eigenvalues --   -0.25114  -0.24520  -0.24158  -0.23209  -0.22684
  Beta  occ. eigenvalues --   -0.22364  -0.21837  -0.18786  -0.17099  -0.14719
  Beta  occ. eigenvalues --   -0.14174  -0.13807  -0.12155
  Beta virt. eigenvalues --    0.06425   0.07186   0.07352   0.07896   0.08252
  Beta virt. eigenvalues --    0.08579   0.08958   0.09275   0.09677   0.09814
  Beta virt. eigenvalues --    0.10549   0.10816   0.11364   0.11568   0.11879

 Mulliken charges and spin densities:
               1          2
     1  C   -0.367408  -0.008254
     2  C   -0.126225  -0.412817
     3  C   -0.512213   1.057283
     4  C   -0.044243  -0.499103
     5  C    1.087434  -1.518618
     6  C   -0.239702   0.252791
     7  O   -0.248868  -0.007206
     8  O   -0.161641   0.038029
     9  N   -0.147574   0.034893
    10  C   -0.237577  -0.080028
    11  O   -0.320703   0.046935
    12  C    0.340182   0.086730
    13  C   -0.410190   0.124656
    14  C   -0.293988   0.073873
    15  C    0.727374   0.114654
    16  C   -0.433007  -0.041703
    17  O   -0.160025   0.009273
    18  C   -0.081853  -0.140105
    19  C   -0.671515   0.107377
    20  C    0.002877  -0.008425
    21  H    0.127833   0.009910
    22  H    0.092059   0.058011
    23  H    0.202656  -0.033948
    24  H    0.089734   0.069646
    25  H   -0.052006   0.197577
    26  H    0.171831  -0.000333
    27  H    0.503608  -0.263491
    28  H   -0.434929   0.627257
    29  H   -0.459233   0.749840
    30  H    0.295919   0.020017
    31  H   -0.077121   0.207738
    32  H    0.156571   0.002733
    33  H    0.090340   0.064621
    34  H    0.122874   0.045438
    35  H    0.161007   0.010292
    36  H    0.127355   0.000509
    37  H    0.180365   0.003948
 Sum of Mulliken charges =  -1.00000   1.00000

 Dipole moment (field-independent basis, Debye):
    X=              3.7136    Y=              2.4521    Z=              4.0798  Tot=              6.0373
 Quadrupole moment (field-independent basis, Debye-Ang):
   XX=           -187.9213   YY=           -158.3560   ZZ=           -148.6205
   XY=            -10.0038   XZ=             -6.3544   YZ=              8.5014

 Summary of Natural Population Analysis:

                                       Natural Population
                Natural  -----------------------------------------------
    Atom  No    Charge         Core      Valence    Rydberg      Total
 -----------------------------------------------------------------------
      C    1   -0.19446      0.99965     2.18662    0.00819     3.19446
      C    2   -0.18725      0.99960     2.17897    0.00869     3.18725
      C    3    0.06817      0.99956     1.91706    0.01521     2.93183
      C    4   -0.18219      0.99960     2.17380    0.00880     3.18219
      C    5   -0.24490      0.99951     2.23488    0.01051     3.24490
      C    6    0.41714      0.99972     1.55819    0.02495     2.58286
      O    7   -0.31010      0.99987     3.30447    0.00576     4.31010
      O    8   -0.34348      0.99988     3.33718    0.00642     4.34348
      N    9   -0.33081      0.99964     2.82018    0.01099     3.83081
      C   10    0.35178      0.99961     1.62641    0.02220     2.64822
      O   11   -0.31323      0.99988     3.30816    0.00519     4.31323
      C   12   -0.04297      0.99947     2.03101    0.01248     3.04297
      C   13   -0.05928      0.99948     2.05139    0.00841     3.05928
      C   14   -0.04416      0.99946     2.03538    0.00931     3.04416
      C   15   -0.00031      0.99946     1.99096    0.00988     3.00031
      C   16   -0.00795      0.99956     1.99897    0.00942     3.00795
      O   17   -0.30275      0.99990     3.29477    0.00809     4.30275
      C   18   -0.00658      0.99956     1.99644    0.01058     3.00658
      C   19   -0.09271      0.99952     2.08521    0.00797     3.09271
      C   20   -0.08564      0.99954     2.07819    0.00791     3.08564
      H   21    0.09909      0.00000     0.39991    0.00100     0.40091
      H   22    0.09362      0.00000     0.40543    0.00095     0.40638
      H   23    0.11409      0.00000     0.38486    0.00104     0.38591
      H   24    0.09749      0.00000     0.40157    0.00094     0.40251
      H   25    0.09784      0.00000     0.40113    0.00103     0.40216
      H   26    0.10215      0.00000     0.39695    0.00090     0.39785
      H   27    0.11698      0.00000     0.38159    0.00143     0.38302
      H   28    0.11629      0.00000     0.38199    0.00172     0.38371
      H   29    0.24321      0.00000     0.24228    0.01451     0.25679
      H   30    0.19779      0.00000     0.29987    0.00234     0.30221
      H   31    0.09715      0.00000     0.40121    0.00164     0.40285
      H   32    0.08705      0.00000     0.41178    0.00117     0.41295
      H   33    0.08117      0.00000     0.41702    0.00181     0.41883
      H   34    0.08135      0.00000     0.41675    0.00189     0.41865
      H   35    0.08685      0.00000     0.41131    0.00184     0.41315
      H   36    0.09487      0.00000     0.40430    0.00083     0.40513
      H   37    0.10467      0.00000     0.39445    0.00088     0.39533
 =======================================================================
   * Total *    0.00000     19.99246    52.76065    0.24689    73.00000

 Normal termination of Gaussian 16 at Sat Dec 12 18:18:50 2020.
