 Gaussian 16, Revision A.03,

 -----------------------------------------------------------
 # opt freq B3LYP/6-31G(d) empiricaldispersion=gd3bj scf=xqc
 -----------------------------------------------------------

 ------------------------------
 CID_82398504_JID_4156_neutraal
 ------------------------------
 Symbolic Z-matrix:
 Charge =  0 Multiplicity = 1

 SCF Done:  E(RB3LYP) =  -755.920985709     A.U. after   16 cycles
 SCF Done:  E(RB3LYP) =  -755.925573288     A.U. after   15 cycles
 SCF Done:  E(RB3LYP) =  -755.918821667     A.U. after   17 cycles
 SCF Done:  E(RB3LYP) =  -755.926895585     A.U. after   13 cycles
 SCF Done:  E(RB3LYP) =  -755.926902888     A.U. after   13 cycles
 SCF Done:  E(RB3LYP) =  -755.926976635     A.U. after   12 cycles
 SCF Done:  E(RB3LYP) =  -755.927004743     A.U. after   12 cycles
 SCF Done:  E(RB3LYP) =  -755.927030676     A.U. after   12 cycles
 SCF Done:  E(RB3LYP) =  -755.927085400     A.U. after   14 cycles
 SCF Done:  E(RB3LYP) =  -755.927188799     A.U. after   17 cycles
 SCF Done:  E(RB3LYP) =  -755.927311332     A.U. after   13 cycles
 SCF Done:  E(RB3LYP) =  -755.927362254     A.U. after   14 cycles
 SCF Done:  E(RB3LYP) =  -755.927361100     A.U. after   12 cycles
 SCF Done:  E(RB3LYP) =  -755.927363369     A.U. after   13 cycles
 SCF Done:  E(RB3LYP) =  -755.927363503     A.U. after    9 cycles
 SCF Done:  E(RB3LYP) =  -755.927363513     A.U. after    8 cycles
 Optimization completed.
    -- Stationary point found.
 Normal termination of Gaussian 16 at Thu Dec 10 09:17:55 2020.

 --------------------------------------------------------------------
 #N Geom=AllCheck Guess=TCheck SCRF=Check GenChk RB3LYP/6-31G(d) Freq
 --------------------------------------------------------------------

 Structure from the checkpoint file:  "JID_4156.chk"
 ------------------------------
 CID_82398504_JID_4156_neutraal
 ------------------------------
 Charge =  0 Multiplicity = 1

 SCF Done:  E(RB3LYP) =  -755.927363513     A.U. after    1 cycles

  Exact polarizability: 131.296  -6.679 119.063  -0.000  -0.002  57.643
 Approx polarizability: 198.158 -22.858 207.017  -0.001  -0.010 115.544

                      1                      2                      3
                      A                      A                      A
 Frequencies --     19.1602                71.3019                89.9691
 Red. masses --     12.3051                 7.6477                11.7202
 Frc consts  --      0.0027                 0.0229                 0.0559
 IR Inten    --      0.1798                 0.4378                 0.0558

                      4                      5                      6
                      A                      A                      A
 Frequencies --    116.3800               139.8182               162.3088
 Red. masses --      1.6199                 2.1284                11.4543
 Frc consts  --      0.0129                 0.0245                 0.1778
 IR Inten    --      0.3266                 0.0778                 0.4174

                      7                      8                      9
                      A                      A                      A
 Frequencies --    175.1431               190.3091               223.4334
 Red. masses --      5.0956                 6.3415                 4.8246
 Frc consts  --      0.0921                 0.1353                 0.1419
 IR Inten    --      0.9404                 0.1246                 1.1277

                     10                     11                     12
                      A                      A                      A
 Frequencies --    293.5896               315.3681               379.0355
 Red. masses --      4.2139                11.0501                 6.5724
 Frc consts  --      0.2140                 0.6475                 0.5563
 IR Inten    --      0.3123                 2.2658                 4.2704

                     13                     14                     15
                      A                      A                      A
 Frequencies --    426.2180               438.6996               526.7007
 Red. masses --      8.6895                 4.1218                 3.9268
 Frc consts  --      0.9301                 0.4674                 0.6418
 IR Inten    --      7.4269                 2.1251                 0.0587

                     16                     17                     18
                      A                      A                      A
 Frequencies --    562.2635               576.7760               610.4892
 Red. masses --      5.7089                 7.8713                 2.8683
 Frc consts  --      1.0634                 1.5428                 0.6298
 IR Inten    --     15.3608                 0.6962                18.5946

                     19                     20                     21
                      A                      A                      A
 Frequencies --    636.2565               644.6198               675.5373
 Red. masses --      6.5524                 1.5253                 4.3071
 Frc consts  --      1.5628                 0.3734                 1.1581
 IR Inten    --     22.1984               108.7460                62.1587

                     22                     23                     24
                      A                      A                      A
 Frequencies --    712.6102               737.5952               759.5618
 Red. masses --      1.5181                 7.2845                 4.1581
 Frc consts  --      0.4542                 2.3350                 1.4134
 IR Inten    --      4.9585                 1.6248                90.9104

                     25                     26                     27
                      A                      A                      A
 Frequencies --    788.6989               838.5481               846.4119
 Red. masses --      4.9296                 1.4591                10.6760
 Frc consts  --      1.8067                 0.6045                 4.5063
 IR Inten    --     12.3998                 6.9417                50.9170

                     28                     29                     30
                      A                      A                      A
 Frequencies --    944.8047              1030.2027              1066.7791
 Red. masses --      7.2459                 1.7095                 3.5198
 Frc consts  --      3.8109                 1.0690                 2.3600
 IR Inten    --      0.4062                 0.2935                18.7246

                     31                     32                     33
                      A                      A                      A
 Frequencies --   1079.7674              1112.9286              1194.6262
 Red. masses --      1.5059                 6.4666                 2.3098
 Frc consts  --      1.0344                 4.7192                 1.9422
 IR Inten    --      5.0916                40.9747                76.2784

                     34                     35                     36
                      A                      A                      A
 Frequencies --   1198.1212              1239.6398              1309.1418
 Red. masses --      2.8994                 2.2092                 2.8035
 Frc consts  --      2.4522                 2.0002                 2.8309
 IR Inten    --    296.7780                 6.1122                 4.5552

                     37                     38                     39
                      A                      A                      A
 Frequencies --   1386.8101              1434.0006              1440.7044
 Red. masses --      2.0002                 8.0447                 2.9653
 Frc consts  --      2.2665                 9.7468                 3.6263
 IR Inten    --     51.1536                90.0998                54.5171

                     40                     41                     42
                      A                      A                      A
 Frequencies --   1446.8362              1484.6845              1508.7970
 Red. masses --      1.3164                 2.1646                 1.0418
 Frc consts  --      1.6236                 2.8112                 1.3973
 IR Inten    --      2.7588                51.4298                 9.4682

                     43                     44                     45
                      A                      A                      A
 Frequencies --   1530.8374              1613.4535              1677.6453
 Red. masses --      1.3593                 7.3812                14.6344
 Frc consts  --      1.8768                11.3212                24.2674
 IR Inten    --      6.2397                95.8817               261.6072

                     46                     47                     48
                      A                      A                      A
 Frequencies --   1687.9927              1796.6573              1842.0432
 Red. masses --      5.9944                 9.1914                10.4763
 Frc consts  --     10.0632                17.4808                20.9439
 IR Inten    --     90.2923               463.1989               198.6793

                     49                     50                     51
                      A                      A                      A
 Frequencies --   3051.0515              3104.5429              3161.1369
 Red. masses --      1.0394                 1.1014                 1.0992
 Frc consts  --      5.7008                 6.2544                 6.4714
 IR Inten    --     17.0823                 9.0800                 5.9943

                     52                     53                     54
                      A                      A                      A
 Frequencies --   3273.6258              3581.0390              3695.4916
 Red. masses --      1.0920                 1.0774                 1.0643
 Frc consts  --      6.8947                 8.1401                 8.5632
 IR Inten    --      3.4243                63.0560                92.4800

 - Thermochemistry -
 -------------------
 Temperature   298.150 Kelvin.  Pressure   1.00000 Atm.
 Atom     1 has atomic number  6 and mass  12.00000

 Molecular mass:   198.02767 amu.
 Principal axes and moments of inertia in atomic units:
                           1         2         3
     Eigenvalues --  2023.177472616.592144354.64377
           X            0.99991  -0.01377  -0.00000
           Y            0.01377   0.99991  -0.00000
           Z            0.00000   0.00000   1.00000
 This molecule is an asymmetric top.
 Rotational symmetry number  1.
 Warning -- assumption of classical behavior for rotation
           may cause significant error
 Rotational temperatures (Kelvin)      0.04281     0.03310     0.01989
 Rotational constants (GHZ):           0.89203     0.68973     0.41444
 Zero-point vibrational energy     363964.8 (Joules/Mol)
                                   86.98968 (Kcal/Mol)
 Warning -- explicit consideration of  18 degrees of freedom as
           vibrations may cause significant error
 Vibrational temperatures:     27.57   102.59   129.45   167.44   201.17
          (Kelvin)            233.53   251.99   273.81   321.47   422.41
                              453.74   545.35   613.23   631.19   757.80
                              808.97   829.85   878.36   915.43   927.46
                              971.95  1025.29  1061.23  1092.84  1134.76
                             1206.48  1217.80  1359.36  1482.23  1534.86
                             1553.54  1601.26  1718.80  1723.83  1783.57
                             1883.56  1995.31  2063.21  2072.85  2081.67
                             2136.13  2170.82  2202.53  2321.40  2413.76
                             2428.64  2584.99  2650.29  4389.78  4466.74
                             4548.17  4710.02  5152.32  5316.99

 Zero-point correction=                           0.138627 (Hartree/Particle)
 Thermal correction to Energy=                    0.151209
 Thermal correction to Enthalpy=                  0.152153
 Thermal correction to Gibbs Free Energy=         0.098227
 Sum of electronic and zero-point Energies=           -755.788737
 Sum of electronic and thermal Energies=              -755.776155
 Sum of electronic and thermal Enthalpies=            -755.775211
 Sum of electronic and thermal Free Energies=         -755.829136

                     E (Thermal)             CV                S
                      KCal/Mol        Cal/Mol-Kelvin    Cal/Mol-Kelvin
 Total                   94.885             45.255            113.495
 Electronic               0.000              0.000              0.000
 Translational            0.889              2.981             41.755
 Rotational               0.889              2.981             31.511
 Vibrational             93.107             39.294             40.230
 Vibration     1          0.593              1.986              6.719
 Vibration     2          0.598              1.968              4.117
 Vibration     3          0.602              1.956              3.661
 Vibration     4          0.608              1.936              3.160
 Vibration     5          0.615              1.914              2.806
 Vibration     6          0.622              1.889              2.523
 Vibration     7          0.627              1.873              2.380
 Vibration     8          0.634              1.853              2.225
 Vibration     9          0.649              1.805              1.931
 Vibration    10          0.688              1.686              1.453
 Vibration    11          0.703              1.644              1.334
 Vibration    12          0.749              1.515              1.043
 Vibration    13          0.788              1.413              0.871
 Vibration    14          0.799              1.386              0.831
 Vibration    15          0.882              1.191              0.595
 Vibration    16          0.918              1.113              0.519
 Vibration    17          0.933              1.081              0.491
 Vibration    18          0.970              1.010              0.432

 Optimization completed.
    -- Stationary point found.
 Normal termination of Gaussian 16 at Thu Dec 10 09:22:43 2020.

 ----------------------------------------------------------------------
 # B3LYP/6-311++G(d,p) empiricaldispersion=gd3bj scf=xqc pop=npa geom=c
 heck
 ----------------------------------------------------------------------

 --------------------------------------
 CID_82398504_JID_4156_Energie_neutraal
 --------------------------------------
 Structure from the checkpoint file:  "JID_4156.chk"
 Charge =  0 Multiplicity = 1

 SCF Done:  E(RB3LYP) =  -756.159944290     A.U. after   16 cycles
 Normal termination of Gaussian 16 at Thu Dec 10 09:24:19 2020.

 ----------------------------------------------------------------------
 # B3LYP/6-311++G(d,p) empiricaldispersion=gd3bj scf=xqc pop=npa geom=c
 heck
 ----------------------------------------------------------------------

 ------------------------------------
 CID_82398504_JID_4156_Energie_kation
 ------------------------------------
 Structure from the checkpoint file:  "JID_4156.chk"
 Charge =  1 Multiplicity = 2

 SCF Done:  E(UB3LYP) =  -755.834424867     A.U. after   24 cycles
 Normal termination of Gaussian 16 at Thu Dec 10 09:27:33 2020.
 Gaussian 16:  ES64L-G16RevA.03 25-Dec-2016

 ----------------------------------------------------------------------
 # B3LYP/6-311++G(d,p) empiricaldispersion=gd3bj scf=xqc pop=npa geom=c
 heck
 ----------------------------------------------------------------------

 -----------------------------------
 CID_82398504_JID_4156_Energie_anion
 -----------------------------------
 Structure from the checkpoint file:  "JID_4156.chk"
 Charge = -1 Multiplicity = 2

                         Standard orientation:
 ---------------------------------------------------------------------
 Center     Atomic      Atomic             Coordinates (Angstroms)
 Number     Number       Type             X           Y           Z
 ---------------------------------------------------------------------
      1          6           0       -3.765297    0.628073    0.000100
      2          6           0       -2.304348    0.292435    0.000060
      3          6           0       -1.299592    1.218196    0.000082
      4          6           0        0.061798    0.787423    0.000040
      5          6           0        0.347278   -0.550361   -0.000032
      6          6           0       -0.682668   -1.580755   -0.000107
      7          8           0       -0.496694   -2.787724   -0.000233
      8          7           0       -1.976467   -1.037180   -0.000029
      9          7           0        1.714095   -1.095920   -0.000030
     10          8           0        2.207749   -1.325663   -1.094767
     11          8           0        2.207393   -1.326229    1.094779
     12          6           0        1.173040    1.790088    0.000076
     13          8           0        2.350943    1.516910    0.000458
     14          8           0        0.709316    3.061639   -0.000361
     15          1           0       -4.263356    0.215209   -0.885666
     16          1           0       -4.263424    0.214750    0.885611
     17          1           0       -3.908717    1.710235    0.000373
     18          1           0       -1.528267    2.273770    0.000140
     19          1           0       -2.709505   -1.738800   -0.000057
     20          1           0        1.498957    3.634481   -0.000309
 ---------------------------------------------------------------------

 SCF Done:  E(UB3LYP) =  -756.207833064     A.U. after   22 cycles

 The electronic state is 2-A.
 Alpha  occ. eigenvalues --  -19.03430 -19.01205 -19.01203 -18.95823 -18.94308
 Alpha  occ. eigenvalues --  -14.40029 -14.22152 -10.14759 -10.13295 -10.09175
 Alpha  occ. eigenvalues --  -10.07892 -10.05651 -10.04437 -10.04093  -1.08449
 Alpha  occ. eigenvalues --   -0.97145  -0.91551  -0.90289  -0.87783  -0.82336
 Alpha  occ. eigenvalues --   -0.70076  -0.66679  -0.61810  -0.55738  -0.53118
 Alpha  occ. eigenvalues --   -0.48094  -0.47060  -0.42314  -0.40364  -0.37278
 Alpha  occ. eigenvalues --   -0.37013  -0.36456  -0.35794  -0.34003  -0.33130
 Alpha  occ. eigenvalues --   -0.31721  -0.30817  -0.29543  -0.29154  -0.28681
 Alpha  occ. eigenvalues --   -0.26172  -0.25514  -0.20623  -0.20077  -0.18317
 Alpha  occ. eigenvalues --   -0.16874  -0.16294  -0.15056  -0.14194  -0.12658
 Alpha  occ. eigenvalues --   -0.08968   0.01714
 Alpha virt. eigenvalues --    0.07043   0.07351   0.08874   0.10175   0.10371
 Alpha virt. eigenvalues --    0.11753   0.13285   0.13610   0.15378   0.16395
 Alpha virt. eigenvalues --    0.16513   0.17023   0.17126   0.18441   0.18509

  Beta  occ. eigenvalues --  -19.03342 -19.01167 -19.01165 -18.95520 -18.94208
  Beta  occ. eigenvalues --  -14.40054 -14.21897 -10.14574 -10.13276 -10.08941
  Beta  occ. eigenvalues --  -10.07913 -10.05222 -10.04211 -10.04111  -1.08398
  Beta  occ. eigenvalues --   -0.96847  -0.91472  -0.90044  -0.87326  -0.81920
  Beta  occ. eigenvalues --   -0.69360  -0.66351  -0.61484  -0.55155  -0.52836
  Beta  occ. eigenvalues --   -0.47953  -0.46809  -0.42191  -0.40206  -0.37147
  Beta  occ. eigenvalues --   -0.36763  -0.36123  -0.35583  -0.33514  -0.32917
  Beta  occ. eigenvalues --   -0.30710  -0.30515  -0.29391  -0.28493  -0.28308
  Beta  occ. eigenvalues --   -0.25995  -0.25258  -0.19830  -0.18830  -0.17259
  Beta  occ. eigenvalues --   -0.16611  -0.16039  -0.14003  -0.13878  -0.12433
  Beta  occ. eigenvalues --   -0.07383
  Beta virt. eigenvalues --    0.07010   0.07353   0.08386   0.08881   0.10128
  Beta virt. eigenvalues --    0.10619   0.11728   0.13561   0.14074   0.15361
  Beta virt. eigenvalues --    0.16488   0.16670   0.17017   0.17672   0.18499

 Mulliken charges and spin densities:
               1          2
     1  C   -0.924249  -0.019174
     2  C   -0.555983   0.147924
     3  C    0.117992  -0.070501
     4  C    1.363510   0.189413
     5  C   -1.593564   0.289537
     6  C    0.616372   0.026942
     7  O   -0.420347   0.038926
     8  N   -0.192560   0.108031
     9  N   -0.275854  -0.029921
    10  O    0.018632   0.010150
    11  O    0.018587   0.010147
    12  C    0.254385   0.135547
    13  O   -0.360477   0.108697
    14  O   -0.212636   0.019442
    15  H    0.124994   0.017806
    16  H    0.124967   0.017798
    17  H    0.138949  -0.000159
    18  H    0.203055   0.007520
    19  H    0.292280  -0.007008
    20  H    0.261945  -0.001117
 Sum of Mulliken charges =  -1.00000   1.00000

 Dipole moment (field-independent basis, Debye):
    X=             -6.6249    Y=              4.7294    Z=             -0.0003  Tot=              8.1399
 Quadrupole moment (field-independent basis, Debye-Ang):
   XX=            -99.8862   YY=           -102.0385   ZZ=            -88.7263
   XY=              5.4009   XZ=             -0.0027   YZ=             -0.0006

 Summary of Natural Population Analysis:

                                       Natural Population
                Natural  -----------------------------------------------
    Atom  No    Charge         Core      Valence    Rydberg      Total
 -----------------------------------------------------------------------
      C    1   -0.29899      0.99964     2.29496    0.00439     3.29899
      C    2    0.14244      0.99955     1.84827    0.00974     2.85756
      C    3   -0.16086      0.99950     2.15261    0.00875     3.16086
      C    4   -0.00564      0.99942     1.99582    0.01040     3.00564
      C    5    0.09550      0.99931     1.89284    0.01235     2.90450
      C    6    0.31529      0.99961     1.66398    0.02112     2.68471
      O    7   -0.32921      0.99988     3.32233    0.00701     4.32921
      N    8   -0.25727      0.99963     2.74847    0.00917     3.75727
      N    9    0.25591      0.99971     2.21407    0.03031     3.24409
      O   10   -0.18585      0.99989     3.17789    0.00807     4.18585
      O   11   -0.18586      0.99989     3.17790    0.00807     4.18586
      C   12    0.41906      0.99969     1.55715    0.02411     2.58094
      O   13   -0.28411      0.99987     3.27581    0.00843     4.28411
      O   14   -0.35317      0.99988     3.34489    0.00840     4.35317
      H   15    0.09999      0.00000     0.39867    0.00133     0.40001
      H   16    0.09999      0.00000     0.39867    0.00133     0.40001
      H   17    0.10382      0.00000     0.39537    0.00081     0.39618
      H   18    0.10801      0.00000     0.39098    0.00100     0.39199
      H   19    0.18872      0.00000     0.30932    0.00196     0.31128
      H   20    0.23223      0.00000     0.26475    0.00303     0.26777
 =======================================================================
   * Total *    0.00000     13.99546    36.82475    0.17979    51.00000

 Normal termination of Gaussian 16 at Thu Dec 10 09:30:31 2020.
