 Gaussian 16, Revision A.03,

 -----------------------------------------------------------
 # opt freq B3LYP/6-31G(d) empiricaldispersion=gd3bj scf=xqc
 -----------------------------------------------------------

 -----------------------------
 CID_9855872_JID_5543_neutraal
 -----------------------------
 Symbolic Z-matrix:
 Charge =  0 Multiplicity = 1

 SCF Done:  E(RB3LYP) =  -707.237230708     A.U. after   15 cycles
 SCF Done:  E(RB3LYP) =  -707.244920377     A.U. after   13 cycles
 SCF Done:  E(RB3LYP) =  -707.246566399     A.U. after   15 cycles
 SCF Done:  E(RB3LYP) =  -707.241869678     A.U. after   13 cycles
 SCF Done:  E(RB3LYP) =  -707.246539687     A.U. after   13 cycles
 SCF Done:  E(RB3LYP) =  -707.248184114     A.U. after   11 cycles
 SCF Done:  E(RB3LYP) =  -707.247154928     A.U. after   12 cycles
 SCF Done:  E(RB3LYP) =  -707.249168599     A.U. after   12 cycles
 SCF Done:  E(RB3LYP) =  -707.249478605     A.U. after   12 cycles
 SCF Done:  E(RB3LYP) =  -707.249657327     A.U. after   12 cycles
 SCF Done:  E(RB3LYP) =  -707.249790068     A.U. after   10 cycles
 SCF Done:  E(RB3LYP) =  -707.249796247     A.U. after   10 cycles
 SCF Done:  E(RB3LYP) =  -707.249800695     A.U. after   10 cycles
 SCF Done:  E(RB3LYP) =  -707.249801200     A.U. after    8 cycles
 SCF Done:  E(RB3LYP) =  -707.249801272     A.U. after    7 cycles
 Optimization completed.
    -- Stationary point found.
 Normal termination of Gaussian 16 at Thu Dec 10 16:33:38 2020.

 --------------------------------------------------------------------
 #N Geom=AllCheck Guess=TCheck SCRF=Check GenChk RB3LYP/6-31G(d) Freq
 --------------------------------------------------------------------

 Structure from the checkpoint file:  "JID_5543.chk"
 -----------------------------
 CID_9855872_JID_5543_neutraal
 -----------------------------
 Charge =  0 Multiplicity = 1

 SCF Done:  E(RB3LYP) =  -707.249801272     A.U. after    1 cycles

  Exact polarizability: 132.295 -13.696 147.772  -4.072  -2.129 113.425
 Approx polarizability: 168.460 -31.558 226.918  -6.421  -2.472 167.635

                      1                      2                      3
                      A                      A                      A
 Frequencies --     19.4827                39.4707                48.4768
 Red. masses --      4.8606                 4.9263                 7.3334
 Frc consts  --      0.0011                 0.0045                 0.0102
 IR Inten    --      0.3953                 0.4737                 1.2454

                      4                      5                      6
                      A                      A                      A
 Frequencies --     69.7928                83.5707               100.4652
 Red. masses --      4.2706                 4.4635                 3.7566
 Frc consts  --      0.0123                 0.0184                 0.0223
 IR Inten    --      3.3598                 0.4383                 0.9204

                      7                      8                      9
                      A                      A                      A
 Frequencies --    111.5491               169.6732               190.9829
 Red. masses --      2.9917                 1.2561                 2.5274
 Frc consts  --      0.0219                 0.0213                 0.0543
 IR Inten    --      2.8419                 3.1922                 3.6717

                     10                     11                     12
                      A                      A                      A
 Frequencies --    222.7893               244.1168               251.3737
 Red. masses --      2.2708                 2.7995                 2.3449
 Frc consts  --      0.0664                 0.0983                 0.0873
 IR Inten    --      1.6395                 1.2835                 5.6737

                     13                     14                     15
                      A                      A                      A
 Frequencies --    280.2049               290.9895               302.6350
 Red. masses --      2.6747                 2.0439                 1.0872
 Frc consts  --      0.1237                 0.1020                 0.0587
 IR Inten    --      2.8732                20.4913                 4.4775

                     16                     17                     18
                      A                      A                      A
 Frequencies --    317.5140               348.6205               369.6832
 Red. masses --      1.3671                 2.7968                 3.1080
 Frc consts  --      0.0812                 0.2003                 0.2503
 IR Inten    --     33.5573                 0.8106                 1.6565

                     19                     20                     21
                      A                      A                      A
 Frequencies --    394.1755               409.1515               417.7634
 Red. masses --      3.8296                 1.6255                 1.5394
 Frc consts  --      0.3506                 0.1603                 0.1583
 IR Inten    --      7.2792                34.1926                51.7297

                     22                     23                     24
                      A                      A                      A
 Frequencies --    442.5505               473.5422               527.7999
 Red. masses --      2.6169                 2.5828                 2.5871
 Frc consts  --      0.3020                 0.3412                 0.4246
 IR Inten    --     14.6120                 4.5020                15.1121

                     25                     26                     27
                      A                      A                      A
 Frequencies --    542.2079               554.6554               567.0479
 Red. masses --      2.2624                 2.9308                 3.6632
 Frc consts  --      0.3919                 0.5312                 0.6940
 IR Inten    --     61.9206                 7.0839                12.6056

                     28                     29                     30
                      A                      A                      A
 Frequencies --    633.2611               647.7433               680.9946
 Red. masses --      1.2397                 3.1873                 1.5767
 Frc consts  --      0.2929                 0.7879                 0.4308
 IR Inten    --     74.4101                35.7835               170.3209

                     31                     32                     33
                      A                      A                      A
 Frequencies --    751.0802               783.4672               806.8631
 Red. masses --      2.7977                 4.4822                 1.9660
 Frc consts  --      0.9299                 1.6210                 0.7541
 IR Inten    --     13.5620                37.4410                 2.8423

                     34                     35                     36
                      A                      A                      A
 Frequencies --    837.2556               841.9710               879.7454
 Red. masses --      2.4875                 2.3011                 2.4737
 Frc consts  --      1.0274                 0.9611                 1.1280
 IR Inten    --     15.9812                 5.0129                10.3433

                     37                     38                     39
                      A                      A                      A
 Frequencies --    904.3504               914.9009               949.0341
 Red. masses --      2.3072                 1.4776                 1.7658
 Frc consts  --      1.1118                 0.7287                 0.9370
 IR Inten    --      2.3015               131.2310                12.7778

                     40                     41                     42
                      A                      A                      A
 Frequencies --    994.0872              1019.2843              1023.8721
 Red. masses --      1.6614                 1.5355                 1.1092
 Frc consts  --      0.9673                 0.9399                 0.6851
 IR Inten    --      1.9818                12.4830                28.3646

                     43                     44                     45
                      A                      A                      A
 Frequencies --   1027.7118              1052.2532              1075.4787
 Red. masses --      1.8360                 1.9142                 1.7245
 Frc consts  --      1.1425                 1.2488                 1.1752
 IR Inten    --      9.8978                 6.5607                 6.5683

                     46                     47                     48
                      A                      A                      A
 Frequencies --   1081.3366              1089.4264              1125.3115
 Red. masses --      2.0252                 1.6590                 2.2934
 Frc consts  --      1.3952                 1.1601                 1.7111
 IR Inten    --      4.1651                 4.3691                18.9266

                     49                     50                     51
                      A                      A                      A
 Frequencies --   1150.7708              1191.3506              1222.1270
 Red. masses --      2.9301                 2.4169                 1.5280
 Frc consts  --      2.2862                 2.0211                 1.3447
 IR Inten    --     49.7517               188.5582                 5.8879

                     52                     53                     54
                      A                      A                      A
 Frequencies --   1230.3928              1242.7719              1269.0026
 Red. masses --      1.7755                 1.2553                 2.6665
 Frc consts  --      1.5836                 1.1423                 2.5299
 IR Inten    --      1.1860                 0.9379                15.2851

                     55                     56                     57
                      A                      A                      A
 Frequencies --   1309.3341              1320.6712              1342.5178
 Red. masses --      1.2529                 1.3193                 1.3689
 Frc consts  --      1.2656                 1.3557                 1.4536
 IR Inten    --      9.1385                 8.3411                 8.2975

                     58                     59                     60
                      A                      A                      A
 Frequencies --   1360.2966              1370.8077              1376.4697
 Red. masses --      1.3402                 2.7757                 1.5108
 Frc consts  --      1.4611                 3.0731                 1.6865
 IR Inten    --      2.9747                85.3232                11.4307

                     61                     62                     63
                      A                      A                      A
 Frequencies --   1394.8358              1403.8058              1419.5552
 Red. masses --      1.4068                 2.0680                 1.3480
 Frc consts  --      1.6126                 2.4011                 1.6005
 IR Inten    --     11.3116                20.4706                19.0571

                     64                     65                     66
                      A                      A                      A
 Frequencies --   1427.9078              1453.9418              1504.8373
 Red. masses --      1.2976                 1.2895                 1.0863
 Frc consts  --      1.5588                 1.6060                 1.4494
 IR Inten    --     12.8322                20.4171                 5.5246

                     67                     68                     69
                      A                      A                      A
 Frequencies --   1513.0680              1518.5355              1523.7408
 Red. masses --      1.0761                 1.1070                 1.0524
 Frc consts  --      1.4515                 1.5040                 1.4396
 IR Inten    --      6.2020                 8.4222                 5.2881

                     70                     71                     72
                      A                      A                      A
 Frequencies --   1524.3412              1532.0390              1536.3170
 Red. masses --      1.0658                 1.0663                 1.0862
 Frc consts  --      1.4591                 1.4746                 1.5105
 IR Inten    --     10.7206                 6.0227                11.5895

                     73                     74                     75
                      A                      A                      A
 Frequencies --   1657.5263              1658.6392              1749.8731
 Red. masses --      1.1182                 1.2041                 6.5868
 Frc consts  --      1.8100                 1.9518                11.8833
 IR Inten    --     76.6000                43.9402               251.1796

                     76                     77                     78
                      A                      A                      A
 Frequencies --   1752.3219              1837.7616              2996.4616
 Red. masses --      6.1708                 8.5644                 1.0579
 Frc consts  --     11.1640                17.0422                 5.5964
 IR Inten    --     35.5728               261.8214                44.1409

                     79                     80                     81
                      A                      A                      A
 Frequencies --   3029.6076              3035.5885              3040.0926
 Red. masses --      1.0885                 1.0717                 1.0471
 Frc consts  --      5.8863                 5.8187                 5.7015
 IR Inten    --     36.4247                61.5256                23.4476

                     82                     83                     84
                      A                      A                      A
 Frequencies --   3042.8957              3056.3343              3084.7418
 Red. masses --      1.0662                 1.0340                 1.1005
 Frc consts  --      5.8165                 5.6907                 6.1699
 IR Inten    --     69.4114                12.3398                49.3220

                     85                     86                     87
                      A                      A                      A
 Frequencies --   3106.5800              3109.2690              3128.3048
 Red. masses --      1.0958                 1.0968                 1.1031
 Frc consts  --      6.2308                 6.2476                 6.3603
 IR Inten    --     16.3116                19.4371                23.6046

                     88                     89                     90
                      A                      A                      A
 Frequencies --   3138.0896              3138.6369              3154.4479
 Red. masses --      1.1034                 1.1012                 1.0895
 Frc consts  --      6.4017                 6.3915                 6.3872
 IR Inten    --     16.7835                18.6113                21.7145

                     91                     92                     93
                      A                      A                      A
 Frequencies --   3170.5760              3469.3344              3546.7879
 Red. masses --      1.0883                 1.0485                 1.0468
 Frc consts  --      6.4459                 7.4358                 7.7587
 IR Inten    --     13.4074                 4.0436                10.5665

                     94                     95                     96
                      A                      A                      A
 Frequencies --   3565.5135              3660.9241              3680.9583
 Red. masses --      1.0937                 1.0992                 1.0639
 Frc consts  --      8.1917                 8.6799                 8.4931
 IR Inten    --      2.4259                 8.4672                54.6866

 - Thermochemistry -
 -------------------
 Temperature   298.150 Kelvin.  Pressure   1.00000 Atm.
 Atom     1 has atomic number  6 and mass  12.00000

 Molecular mass:   213.14773 amu.
 Principal axes and moments of inertia in atomic units:
                           1         2         3
     Eigenvalues --  2268.971795121.464776046.95472
           X            0.99990   0.01258  -0.00623
           Y           -0.01257   0.99992   0.00202
           Z            0.00625  -0.00194   0.99998
 This molecule is an asymmetric top.
 Rotational symmetry number  1.
 Warning -- assumption of classical behavior for rotation
           may cause significant error
 Rotational temperatures (Kelvin)      0.03817     0.01691     0.01432
 Rotational constants (GHZ):           0.79540     0.35239     0.29845
 Zero-point vibrational energy     776737.8 (Joules/Mol)
                                  185.64479 (Kcal/Mol)
 Warning -- explicit consideration of  27 degrees of freedom as
           vibrations may cause significant error
 Vibrational temperatures:     28.03    56.79    69.75   100.42   120.24
          (Kelvin)            144.55   160.49   244.12   274.78   320.54
                              351.23   361.67   403.15   418.67   435.42
                              456.83   501.59   531.89   567.13   588.68
                              601.07   636.73   681.32   759.39   780.12
                              798.03   815.86   911.12   931.96   979.80
                             1080.64  1127.23  1160.90  1204.62  1211.41
                             1265.76  1301.16  1316.34  1365.45  1430.27
                             1466.52  1473.12  1478.65  1513.96  1547.37
                             1555.80  1567.44  1619.07  1655.70  1714.09
                             1758.37  1770.26  1788.07  1825.81  1883.84
                             1900.15  1931.58  1957.16  1972.29  1980.43
                             2006.86  2019.76  2042.42  2054.44  2091.90
                             2165.13  2176.97  2184.83  2192.32  2193.19
                             2204.26  2210.42  2384.81  2386.41  2517.68
                             2521.20  2644.13  4311.24  4358.93  4367.53
                             4374.02  4378.05  4397.38  4438.26  4469.68
                             4473.54  4500.93  4515.01  4515.80  4538.55
                             4561.75  4991.60  5103.04  5129.98  5267.25
                             5296.08

 Zero-point correction=                           0.295844 (Hartree/Particle)
 Thermal correction to Energy=                    0.313044
 Thermal correction to Enthalpy=                  0.313989
 Thermal correction to Gibbs Free Energy=         0.250028
 Sum of electronic and zero-point Energies=           -706.953957
 Sum of electronic and thermal Energies=              -706.936757
 Sum of electronic and thermal Enthalpies=            -706.935813
 Sum of electronic and thermal Free Energies=         -706.999773

                     E (Thermal)             CV                S
                      KCal/Mol        Cal/Mol-Kelvin    Cal/Mol-Kelvin
 Total                  196.438             64.166            134.615
 Electronic               0.000              0.000              0.000
 Translational            0.889              2.981             41.974
 Rotational               0.889              2.981             32.619
 Vibrational            194.661             58.205             60.023
 Vibration     1          0.593              1.986              6.686
 Vibration     2          0.594              1.981              5.285
 Vibration     3          0.595              1.978              4.879
 Vibration     4          0.598              1.969              4.159
 Vibration     5          0.600              1.960              3.805
 Vibration     6          0.604              1.949              3.445
 Vibration     7          0.607              1.940              3.242
 Vibration     8          0.625              1.880              2.439
 Vibration     9          0.634              1.852              2.218
 Vibration    10          0.648              1.806              1.936
 Vibration    11          0.659              1.773              1.773
 Vibration    12          0.663              1.760              1.721
 Vibration    13          0.680              1.710              1.532
 Vibration    14          0.687              1.691              1.468
 Vibration    15          0.694              1.669              1.402
 Vibration    16          0.704              1.640              1.323
 Vibration    17          0.726              1.578              1.172
 Vibration    18          0.742              1.535              1.081
 Vibration    19          0.761              1.483              0.984
 Vibration    20          0.774              1.450              0.930
 Vibration    21          0.781              1.432              0.900
 Vibration    22          0.802              1.377              0.819
 Vibration    23          0.830              1.309              0.728
 Vibration    24          0.883              1.188              0.592
 Vibration    25          0.897              1.157              0.561
 Vibration    26          0.910              1.130              0.535
 Vibration    27          0.923              1.103              0.510

                           ! Non-Optimized Parameters !
 Normal termination of Gaussian 16 at Thu Dec 10 16:44:53 2020.

 ----------------------------------------------------------------------
 # B3LYP/6-311++G(d,p) empiricaldispersion=gd3bj scf=xqc pop=npa geom=c
 heck
 ----------------------------------------------------------------------

 -------------------------------------
 CID_9855872_JID_5543_Energie_neutraal
 -------------------------------------
 Structure from the checkpoint file:  "JID_5543.chk"
 Charge =  0 Multiplicity = 1

 SCF Done:  E(RB3LYP) =  -707.476386195     A.U. after   15 cycles
 Normal termination of Gaussian 16 at Thu Dec 10 16:49:55 2020.

 ----------------------------------------------------------------------
 # B3LYP/6-311++G(d,p) empiricaldispersion=gd3bj scf=xqc pop=npa geom=c
 heck
 ----------------------------------------------------------------------

 -----------------------------------
 CID_9855872_JID_5543_Energie_kation
 -----------------------------------
 Structure from the checkpoint file:  "JID_5543.chk"
 Charge =  1 Multiplicity = 2

 SCF Done:  E(UB3LYP) =  -707.182014613     A.U. after   27 cycles
 Normal termination of Gaussian 16 at Thu Dec 10 17:02:58 2020.
 Gaussian 16:  ES64L-G16RevA.03 25-Dec-2016

 ----------------------------------------------------------------------
 # B3LYP/6-311++G(d,p) empiricaldispersion=gd3bj scf=xqc pop=npa geom=c
 heck
 ----------------------------------------------------------------------

 ----------------------------------
 CID_9855872_JID_5543_Energie_anion
 ----------------------------------
 Structure from the checkpoint file:  "JID_5543.chk"
 Charge = -1 Multiplicity = 2

                         Standard orientation:
 ---------------------------------------------------------------------
 Center     Atomic      Atomic             Coordinates (Angstroms)
 Number     Number       Type             X           Y           Z
 ---------------------------------------------------------------------
      1          6           0       -1.902152   -1.959112   -1.066403
      2          6           0       -2.589333   -1.336044    0.131863
      3          7           0       -2.960046   -0.119409    0.274868
      4          6           0       -2.665238    0.862102   -0.753888
      5          6           0       -2.362490    2.217776   -0.102561
      6          6           0       -1.178343    2.146418    0.882554
      7          6           0        0.113517    1.774848    0.210019
      8          6           0        0.666433    0.563218    0.280576
      9          6           0        1.897333    0.086148   -0.459880
     10          6           0        2.675686    1.222790   -1.160707
     11          6           0        2.895267   -0.572053    0.500874
     12          8           0        3.570793   -1.541673    0.230027
     13          8           0        3.004440    0.089487    1.671843
     14          7           0        1.473031   -0.975676   -1.388750
     15          7           0       -2.745961   -2.199891    1.210405
     16          1           0       -2.317922   -1.571554   -2.000238
     17          1           0       -2.015655   -3.048041   -1.067126
     18          1           0       -0.826152   -1.739455   -1.050175
     19          1           0       -1.816476    0.579232   -1.393736
     20          1           0       -3.539396    0.978503   -1.413352
     21          1           0       -2.161481    2.959119   -0.888470
     22          1           0       -3.251267    2.554607    0.444447
     23          1           0       -1.069564    3.118126    1.382857
     24          1           0       -1.423462    1.405635    1.650242
     25          1           0        0.577704    2.550794   -0.398643
     26          1           0        0.177641   -0.208812    0.872441
     27          1           0        3.002627    1.988593   -0.450832
     28          1           0        3.555564    0.811059   -1.665459
     29          1           0        2.038727    1.697980   -1.913925
     30          1           0        3.697586   -0.374399    2.178774
     31          1           0        1.086080   -0.544203   -2.225545
     32          1           0        2.287551   -1.526045   -1.658715
     33          1           0       -2.940816   -3.168164    0.991946
     34          1           0       -3.336416   -1.817204    1.940200
 ---------------------------------------------------------------------

 SCF Done:  E(UB3LYP) =  -707.463836983     A.U. after   33 cycles
 SCF Done:  E(UB3LYP) =  -707.463836983     a.u. after    1 cycles

 The electronic state is 2-A.
 Alpha  occ. eigenvalues --  -19.08079 -19.02782 -14.21798 -14.20236 -14.17684
 Alpha  occ. eigenvalues --  -10.21585 -10.14052 -10.13510 -10.08872 -10.07583
 Alpha  occ. eigenvalues --  -10.07437 -10.07279 -10.07107 -10.07067 -10.06535
 Alpha  occ. eigenvalues --   -1.02301  -0.93354  -0.84776  -0.80902  -0.76794
 Alpha  occ. eigenvalues --   -0.71082  -0.67485  -0.64049  -0.62170  -0.59061
 Alpha  occ. eigenvalues --   -0.57382  -0.51606  -0.48970  -0.45943  -0.44422
 Alpha  occ. eigenvalues --   -0.42666  -0.41902  -0.40298  -0.38908  -0.37989
 Alpha  occ. eigenvalues --   -0.36879  -0.35605  -0.35165  -0.34301  -0.33390
 Alpha  occ. eigenvalues --   -0.32208  -0.31941  -0.31282  -0.30206  -0.29434
 Alpha  occ. eigenvalues --   -0.28677  -0.27727  -0.26981  -0.26262  -0.24208
 Alpha  occ. eigenvalues --   -0.23890  -0.23351  -0.23119  -0.20069  -0.16557
 Alpha  occ. eigenvalues --   -0.15484  -0.14390  -0.13407   0.04143
 Alpha virt. eigenvalues --    0.05790   0.06200   0.07209   0.07793   0.08390
 Alpha virt. eigenvalues --    0.08984   0.09368   0.09418   0.09834   0.10193
 Alpha virt. eigenvalues --    0.11439   0.11675   0.11942   0.12301   0.12691

  Beta  occ. eigenvalues --  -19.08036 -19.02771 -14.21761 -14.20211 -14.17675
  Beta  occ. eigenvalues --  -10.21586 -10.14049 -10.13502 -10.08862 -10.07548
  Beta  occ. eigenvalues --  -10.07428 -10.07276 -10.07104 -10.07062 -10.06502
  Beta  occ. eigenvalues --   -1.02248  -0.93310  -0.84748  -0.80864  -0.76756
  Beta  occ. eigenvalues --   -0.71062  -0.67448  -0.64012  -0.62125  -0.59008
  Beta  occ. eigenvalues --   -0.57338  -0.51557  -0.48913  -0.45899  -0.44378
  Beta  occ. eigenvalues --   -0.42634  -0.41858  -0.40270  -0.38872  -0.37954
  Beta  occ. eigenvalues --   -0.36854  -0.35573  -0.35136  -0.34273  -0.33352
  Beta  occ. eigenvalues --   -0.32170  -0.31908  -0.31257  -0.30179  -0.29398
  Beta  occ. eigenvalues --   -0.28640  -0.27695  -0.26965  -0.26242  -0.24191
  Beta  occ. eigenvalues --   -0.23865  -0.23329  -0.23094  -0.20037  -0.16537
  Beta  occ. eigenvalues --   -0.15457  -0.14361  -0.13382
  Beta virt. eigenvalues --    0.06303   0.06973   0.07145   0.07474   0.08177
  Beta virt. eigenvalues --    0.08594   0.09316   0.09549   0.09738   0.10226
  Beta virt. eigenvalues --    0.10388   0.11398   0.11904   0.12247   0.12688

 Mulliken charges and spin densities:
               1          2
     1  C    0.481992  -1.029126
     2  C   -0.319276   0.070151
     3  N   -0.046272  -0.027661
     4  C   -0.308585  -0.048522
     5  C    0.275850  -0.699247
     6  C   -0.006442  -0.288875
     7  C   -1.304762   1.307227
     8  C    1.169161  -1.408327
     9  C   -0.153075   0.021746
    10  C    0.666314  -1.165218
    11  C    0.160560  -0.276081
    12  O   -0.290703   0.026511
    13  O   -0.159990   0.036369
    14  N   -0.297618   0.106379
    15  N   -0.304306   0.146578
    16  H   -0.311696   0.467104
    17  H   -0.328795   0.440469
    18  H    0.424558  -0.079413
    19  H    0.160609  -0.069786
    20  H   -0.033177   0.203919
    21  H   -0.049401   0.166761
    22  H    0.177013  -0.021526
    23  H    0.034262   0.117293
    24  H    0.113858   0.060318
    25  H   -0.096807   0.271570
    26  H    0.193946   0.053338
    27  H   -0.122494   0.282764
    28  H   -0.154738   0.340255
    29  H   -0.252289   0.406393
    30  H   -0.292858   0.597152
    31  H    0.007249   0.206393
    32  H    0.175241   0.089550
    33  H   -0.235356   0.480996
    34  H    0.028029   0.214543
 Sum of Mulliken charges =  -1.00000   1.00000

 Dipole moment (field-independent basis, Debye):
    X=             -1.4575    Y=              3.4877    Z=             -0.3433  Tot=              3.7955
 Quadrupole moment (field-independent basis, Debye-Ang):
   XX=           -163.7140   YY=           -140.0433   ZZ=           -129.5169
   XY=             -7.9186   XZ=             -4.0094   YZ=              2.3236

 Summary of Natural Population Analysis:

                                       Natural Population
                Natural  -----------------------------------------------
    Atom  No    Charge         Core      Valence    Rydberg      Total
 -----------------------------------------------------------------------
      C    1   -0.33302      0.99961     2.32722    0.00618     3.33302
      C    2    0.23224      0.99960     1.75252    0.01564     2.76776
      N    3   -0.29416      0.99963     2.78288    0.01165     3.79416
      C    4   -0.10071      0.99961     2.08996    0.01114     3.10071
      C    5   -0.18273      0.99962     2.17499    0.00812     3.18273
      C    6   -0.20772      0.99961     2.19938    0.00873     3.20772
      C    7   -0.08362      0.99950     2.07538    0.00874     3.08362
      C    8   -0.09075      0.99948     2.07946    0.01181     3.09075
      C    9   -0.00058      0.99952     1.98547    0.01559     3.00058
      C   10   -0.29127      0.99963     2.28426    0.00738     3.29127
      C   11    0.41532      0.99965     1.55790    0.02713     2.58468
      O   12   -0.30900      0.99987     3.30265    0.00648     4.30900
      O   13   -0.33678      0.99987     3.32990    0.00700     4.33678
      N   14   -0.41971      0.99975     2.90901    0.01094     3.91971
      N   15   -0.39870      0.99971     2.88930    0.00969     3.89870
      H   16    0.10563      0.00000     0.39326    0.00111     0.39437
      H   17    0.10439      0.00000     0.39432    0.00129     0.39561
      H   18    0.12976      0.00000     0.36853    0.00171     0.37024
      H   19    0.08692      0.00000     0.41060    0.00248     0.41308
      H   20    0.09019      0.00000     0.40865    0.00116     0.40981
      H   21    0.09228      0.00000     0.40670    0.00102     0.40772
      H   22    0.09643      0.00000     0.40243    0.00114     0.40357
      H   23    0.09773      0.00000     0.40134    0.00092     0.40227
      H   24    0.10685      0.00000     0.39134    0.00181     0.39315
      H   25    0.09225      0.00000     0.40636    0.00139     0.40775
      H   26    0.10233      0.00000     0.39546    0.00220     0.39767
      H   27    0.10738      0.00000     0.39126    0.00136     0.39262
      H   28    0.10512      0.00000     0.39346    0.00142     0.39488
      H   29    0.10309      0.00000     0.39542    0.00149     0.39691
      H   30    0.24243      0.00000     0.24769    0.00988     0.25757
      H   31    0.17619      0.00000     0.32187    0.00193     0.32381
      H   32    0.18646      0.00000     0.31147    0.00207     0.31354
      H   33    0.18757      0.00000     0.30932    0.00311     0.31243
      H   34    0.18819      0.00000     0.30947    0.00234     0.31181
 =======================================================================
   * Total *    0.00000     14.99467    42.79925    0.20608    58.00000

 Normal termination of Gaussian 16 at Thu Dec 10 17:20:04 2020.
