 Gaussian 16, Revision A.03,

 -----------------------------------------------------------
 # opt freq B3LYP/6-31G(d) empiricaldispersion=gd3bj scf=xqc
 -----------------------------------------------------------

 --------------------------------
 CID_114387660_JID_10191_neutraal
 --------------------------------
 Symbolic Z-matrix:
 Charge =  0 Multiplicity = 1

 SCF Done:  E(RB3LYP) =  -932.279921898     A.U. after   15 cycles
 SCF Done:  E(RB3LYP) =  -932.288628329     A.U. after   13 cycles
 SCF Done:  E(RB3LYP) =  -932.289594706     A.U. after   12 cycles
 SCF Done:  E(RB3LYP) =  -932.289604774     A.U. after   12 cycles
 SCF Done:  E(RB3LYP) =  -932.289857694     A.U. after   12 cycles
 SCF Done:  E(RB3LYP) =  -932.289973487     A.U. after   11 cycles
 SCF Done:  E(RB3LYP) =  -932.290032575     A.U. after   11 cycles
 SCF Done:  E(RB3LYP) =  -932.290048433     A.U. after   10 cycles
 SCF Done:  E(RB3LYP) =  -932.290054207     A.U. after   10 cycles
 SCF Done:  E(RB3LYP) =  -932.290058929     A.U. after   10 cycles
 SCF Done:  E(RB3LYP) =  -932.290060252     A.U. after    9 cycles
 SCF Done:  E(RB3LYP) =  -932.290061064     A.U. after    9 cycles
 SCF Done:  E(RB3LYP) =  -932.290061472     A.U. after    9 cycles
 SCF Done:  E(RB3LYP) =  -932.290061526     A.U. after    8 cycles
 Optimization completed.
    -- Stationary point found.
 Normal termination of Gaussian 16 at Mon Dec 14 17:35:05 2020.

 --------------------------------------------------------------------
 #N Geom=AllCheck Guess=TCheck SCRF=Check GenChk RB3LYP/6-31G(d) Freq
 --------------------------------------------------------------------

 Structure from the checkpoint file:  "JID_10191.chk"
 --------------------------------
 CID_114387660_JID_10191_neutraal
 --------------------------------
 Charge =  0 Multiplicity = 1

 SCF Done:  E(RB3LYP) =  -932.290061526     A.U. after    1 cycles

  Exact polarizability: 213.374  27.031 173.321 -17.092   5.143 142.155
 Approx polarizability: 288.129  47.257 270.276 -32.834  16.508 216.940

                      1                      2                      3
                      A                      A                      A
 Frequencies --     14.2343                20.6481                35.8622
 Red. masses --      4.9272                 4.1030                 3.6331
 Frc consts  --      0.0006                 0.0010                 0.0028
 IR Inten    --      0.9309                 0.4958                 0.4859

                      4                      5                      6
                      A                      A                      A
 Frequencies --     60.1527                63.4981                72.3539
 Red. masses --      3.1726                 2.9414                 3.2193
 Frc consts  --      0.0068                 0.0070                 0.0099
 IR Inten    --      0.1814                 0.8692                 0.3090

                      7                      8                      9
                      A                      A                      A
 Frequencies --     99.0875               116.0535               128.3220
 Red. masses --      5.1716                 4.2494                 4.3529
 Frc consts  --      0.0299                 0.0337                 0.0422
 IR Inten    --      1.7098                 1.3510                 1.2859

                     10                     11                     12
                      A                      A                      A
 Frequencies --    146.3730               175.4776               200.2956
 Red. masses --      3.6200                 2.3647                 1.6570
 Frc consts  --      0.0457                 0.0429                 0.0392
 IR Inten    --      0.3991                 0.2584                 0.7631

                     13                     14                     15
                      A                      A                      A
 Frequencies --    222.1741               228.2745               251.7413
 Red. masses --      2.0227                 3.2333                 1.9266
 Frc consts  --      0.0588                 0.0993                 0.0719
 IR Inten    --      0.4559                 7.8024                 1.9170

                     16                     17                     18
                      A                      A                      A
 Frequencies --    259.6897               272.0096               326.2325
 Red. masses --      1.9134                 2.7073                 2.4429
 Frc consts  --      0.0760                 0.1180                 0.1532
 IR Inten    --      1.2370                 2.6238                 2.7998

                     19                     20                     21
                      A                      A                      A
 Frequencies --    343.2402               368.8923               389.1235
 Red. masses --      2.5944                 3.0238                 3.4804
 Frc consts  --      0.1801                 0.2424                 0.3105
 IR Inten    --      5.2584                 1.1534                14.9122

                     22                     23                     24
                      A                      A                      A
 Frequencies --    441.9330               448.9539               456.6624
 Red. masses --      6.7883                 3.7814                 4.7826
 Frc consts  --      0.7811                 0.4491                 0.5876
 IR Inten    --      1.3906                 1.7979                 5.4402

                     25                     26                     27
                      A                      A                      A
 Frequencies --    467.4948               479.1175               486.3050
 Red. masses --      5.0978                 3.8199                 2.1852
 Frc consts  --      0.6564                 0.5166                 0.3045
 IR Inten    --      0.8140                13.6933                 2.4322

                     28                     29                     30
                      A                      A                      A
 Frequencies --    556.5833               565.5995               591.3816
 Red. masses --      3.4469                 3.4990                 1.8242
 Frc consts  --      0.6291                 0.6595                 0.3759
 IR Inten    --      1.1387                22.0036                 4.9381

                     31                     32                     33
                      A                      A                      A
 Frequencies --    651.8237               657.3453               691.3073
 Red. masses --      2.5085                 5.5180                 1.8788
 Frc consts  --      0.6280                 1.4048                 0.5290
 IR Inten    --      0.4607                10.5877                36.5722

                     34                     35                     36
                      A                      A                      A
 Frequencies --    753.0322               767.5203               790.9589
 Red. masses --      3.1663                 2.8005                 2.0752
 Frc consts  --      1.0579                 0.9720                 0.7649
 IR Inten    --     19.3094                96.5513                 2.3074

                     37                     38                     39
                      A                      A                      A
 Frequencies --    801.8794               813.6438               830.6205
 Red. masses --      1.3028                 2.4135                 2.2850
 Frc consts  --      0.4936                 0.9414                 0.9288
 IR Inten    --      9.8670                55.9204                84.5091

                     40                     41                     42
                      A                      A                      A
 Frequencies --    834.6366               839.1905               880.4196
 Red. masses --      3.1642                 3.5256                 1.9780
 Frc consts  --      1.2987                 1.4629                 0.9034
 IR Inten    --     11.2933                 7.7766                 2.6886

                     43                     44                     45
                      A                      A                      A
 Frequencies --    891.3581               899.5754               969.5609
 Red. masses --      3.3325                 2.0975                 1.9530
 Frc consts  --      1.5600                 1.0001                 1.0817
 IR Inten    --     10.8355                13.9875                 3.3821

                     46                     47                     48
                      A                      A                      A
 Frequencies --    984.0415               985.0746               996.0295
 Red. masses --      2.2474                 2.6096                 2.3954
 Frc consts  --      1.2822                 1.4920                 1.4001
 IR Inten    --      2.0973                 1.3046                 5.9002

                     49                     50                     51
                      A                      A                      A
 Frequencies --   1043.1445              1055.7419              1078.1042
 Red. masses --      2.8686                 1.8599                 2.6178
 Frc consts  --      1.8391                 1.2214                 1.7927
 IR Inten    --     18.2199                 4.0725                 0.9668

                     52                     53                     54
                      A                      A                      A
 Frequencies --   1084.2694              1092.1604              1095.8193
 Red. masses --      2.0285                 1.7172                 2.2889
 Frc consts  --      1.4051                 1.2068                 1.6194
 IR Inten    --     20.4923                 2.8786                 6.4268

                     55                     56                     57
                      A                      A                      A
 Frequencies --   1105.2340              1114.5007              1142.2665
 Red. masses --      2.5118                 1.6436                 7.0876
 Frc consts  --      1.8078                 1.2029                 5.4486
 IR Inten    --      8.5956                 2.1659               127.4615

                     58                     59                     60
                      A                      A                      A
 Frequencies --   1149.6026              1158.0795              1162.6999
 Red. masses --      3.0325                 5.1918                 2.3205
 Frc consts  --      2.3613                 4.1025                 1.8483
 IR Inten    --      2.7644               107.4986                 6.3345

                     61                     62                     63
                      A                      A                      A
 Frequencies --   1190.1236              1227.4609              1246.6395
 Red. masses --      3.3366                 1.5747                 1.2687
 Frc consts  --      2.7844                 1.3979                 1.1617
 IR Inten    --      5.7077               117.9004                37.9955

                     64                     65                     66
                      A                      A                      A
 Frequencies --   1291.2210              1297.8856              1304.8524
 Red. masses --      1.5188                 1.2672                 1.1800
 Frc consts  --      1.4919                 1.2576                 1.1838
 IR Inten    --      2.0416                54.2744                 0.1835

                     67                     68                     69
                      A                      A                      A
 Frequencies --   1311.2347              1329.6435              1342.2183
 Red. masses --      1.2836                 1.8944                 1.9620
 Frc consts  --      1.3003                 1.9733                 2.0825
 IR Inten    --     40.4619               134.5274                38.7939

                     70                     71                     72
                      A                      A                      A
 Frequencies --   1358.9777              1362.3956              1375.8478
 Red. masses --      2.2290                 1.3140                 1.8639
 Frc consts  --      2.4254                 1.4370                 2.0788
 IR Inten    --     11.3996                 7.5897                29.3992

                     73                     74                     75
                      A                      A                      A
 Frequencies --   1380.6266              1385.6613              1398.4304
 Red. masses --      1.4158                 1.8838                 1.2324
 Frc consts  --      1.5901                 2.1310                 1.4200
 IR Inten    --     45.5090                 1.4867                20.8608

                     76                     77                     78
                      A                      A                      A
 Frequencies --   1408.9279              1422.4378              1432.5440
 Red. masses --      1.4603                 1.5242                 1.4354
 Frc consts  --      1.7080                 1.8170                 1.7356
 IR Inten    --    134.5026                16.4112                26.1829

                     79                     80                     81
                      A                      A                      A
 Frequencies --   1435.8629              1443.8831              1449.4244
 Red. masses --      1.2893                 1.2726                 2.7114
 Frc consts  --      1.5662                 1.5631                 3.3561
 IR Inten    --      6.4855                 2.8635                98.4080

                     82                     83                     84
                      A                      A                      A
 Frequencies --   1491.8475              1494.1735              1500.6356
 Red. masses --      1.1051                 1.0917                 1.1180
 Frc consts  --      1.4491                 1.4360                 1.4833
 IR Inten    --      5.0682                 6.9308                16.5766

                     85                     86                     87
                      A                      A                      A
 Frequencies --   1505.6826              1508.4052              1514.6255
 Red. masses --      1.1764                 1.1209                 1.0791
 Frc consts  --      1.5713                 1.5026                 1.4585
 IR Inten    --     15.5074                 8.6737                 2.8162

                     88                     89                     90
                      A                      A                      A
 Frequencies --   1520.7300              1522.8974              1526.3711
 Red. masses --      1.1125                 1.0393                 1.0737
 Frc consts  --      1.5158                 1.4202                 1.4739
 IR Inten    --      0.3413                 6.4611                19.0158

                     91                     92                     93
                      A                      A                      A
 Frequencies --   1528.2785              1536.9102              1544.0595
 Red. masses --      1.0867                 1.0885                 2.9326
 Frc consts  --      1.4955                 1.5149                 4.1194
 IR Inten    --     60.5463                 4.1379               358.0040

                     94                     95                     96
                      A                      A                      A
 Frequencies --   1587.6760              1607.2982              1797.3911
 Red. masses --      5.2787                 8.0057                 8.4948
 Frc consts  --      7.8397                12.1855                16.1692
 IR Inten    --    146.4169                71.9851               412.7958

                     97                     98                     99
                      A                      A                      A
 Frequencies --   2967.6884              2975.6308              3033.4511
 Red. masses --      1.0789                 1.0752                 1.0649
 Frc consts  --      5.5986                 5.6091                 5.7737
 IR Inten    --     11.2802                97.2699                12.5552

                    100                    101                    102
                      A                      A                      A
 Frequencies --   3047.4633              3051.1103              3053.6260
 Red. masses --      1.0591                 1.0609                 1.0372
 Frc consts  --      5.7952                 5.8189                 5.6982
 IR Inten    --     34.2383                25.6566                24.2712

                    103                    104                    105
                      A                      A                      A
 Frequencies --   3065.2440              3067.5730              3068.5471
 Red. masses --      1.0877                 1.0659                 1.0372
 Frc consts  --      6.0210                 5.9094                 5.7543
 IR Inten    --     23.2921                16.0775                23.0415

                    106                    107                    108
                      A                      A                      A
 Frequencies --   3095.7142              3098.1105              3099.7463
 Red. masses --      1.0956                 1.0895                 1.1025
 Frc consts  --      6.1861                 6.1611                 6.2413
 IR Inten    --     50.5482                 1.3776                33.2804

                    109                    110                    111
                      A                      A                      A
 Frequencies --   3101.7253              3107.3866              3124.9143
 Red. masses --      1.0799                 1.1016                 1.1020
 Frc consts  --      6.1214                 6.2669                 6.3404
 IR Inten    --     48.9953                 2.3619                42.2488

                    112                    113                    114
                      A                      A                      A
 Frequencies --   3136.2007              3136.9551              3146.2149
 Red. masses --      1.1039                 1.1030                 1.1026
 Frc consts  --      6.3970                 6.3948                 6.4306
 IR Inten    --     12.2740                42.6938                21.1482

                    115                    116                    117
                      A                      A                      A
 Frequencies --   3175.3704              3460.8815              3583.6158
 Red. masses --      1.1014                 1.0736                 1.0755
 Frc consts  --      6.5429                 7.5762                 8.1375
 IR Inten    --      1.7116                 2.3124                40.4524

 - Thermochemistry -
 -------------------
 Temperature   298.150 Kelvin.  Pressure   1.00000 Atm.
 Atom     1 has atomic number  6 and mass  12.00000

 Molecular mass:   279.16953 amu.
 Principal axes and moments of inertia in atomic units:
                           1         2         3
     Eigenvalues --  3644.861158877.12820**********
           X            0.99999  -0.00452  -0.00270
           Y            0.00459   0.99966   0.02571
           Z            0.00259  -0.02573   0.99967
 This molecule is an asymmetric top.
 Rotational symmetry number  1.
 Warning -- assumption of classical behavior for rotation
           may cause significant error
 Rotational temperatures (Kelvin)      0.02376     0.00976     0.00847
 Rotational constants (GHZ):           0.49515     0.20330     0.17646
 Zero-point vibrational energy     919855.7 (Joules/Mol)
                                  219.85078 (Kcal/Mol)
 Warning -- explicit consideration of  30 degrees of freedom as
           vibrations may cause significant error
 Vibrational temperatures:     20.48    29.71    51.60    86.55    91.36
          (Kelvin)            104.10   142.56   166.98   184.63   210.60
                              252.47   288.18   319.66   328.44   362.20
                              373.64   391.36   469.38   493.85   530.75
                              559.86   635.84   645.94   657.04   672.62
                              689.34   699.68   800.80   813.77   850.87
                              937.83   945.77   994.64  1083.45  1104.29
                             1138.01  1153.73  1170.65  1195.08  1200.86
                             1207.41  1266.73  1282.47  1294.29  1394.98
                             1415.82  1417.30  1433.06  1500.85  1518.98
                             1551.15  1560.02  1571.38  1576.64  1590.19
                             1603.52  1643.47  1654.02  1666.22  1672.87
                             1712.32  1766.04  1793.64  1857.78  1867.37
                             1877.39  1886.57  1913.06  1931.15  1955.27
                             1960.18  1979.54  1986.41  1993.66  2012.03
                             2027.13  2046.57  2061.11  2065.89  2077.43
                             2085.40  2146.44  2149.78  2159.08  2166.34
                             2170.26  2179.21  2187.99  2191.11  2196.11
                             2198.85  2211.27  2221.56  2284.31  2312.54
                             2586.04  4269.84  4281.27  4364.46  4384.62
                             4389.87  4393.49  4410.20  4413.55  4414.95
                             4454.04  4457.49  4459.84  4462.69  4470.84
                             4496.05  4512.29  4513.38  4526.70  4568.65
                             4979.44  5156.02

 Zero-point correction=                           0.350355 (Hartree/Particle)
 Thermal correction to Energy=                    0.370012
 Thermal correction to Enthalpy=                  0.370956
 Thermal correction to Gibbs Free Energy=         0.299532
 Sum of electronic and zero-point Energies=           -931.939707
 Sum of electronic and thermal Energies=              -931.920050
 Sum of electronic and thermal Enthalpies=            -931.919106
 Sum of electronic and thermal Free Energies=         -931.990530

                     E (Thermal)             CV                S
                      KCal/Mol        Cal/Mol-Kelvin    Cal/Mol-Kelvin
 Total                  232.186             73.552            150.324
 Electronic               0.000              0.000              0.000
 Translational            0.889              2.981             42.778
 Rotational               0.889              2.981             34.158
 Vibrational            230.408             67.590             73.388
 Vibration     1          0.593              1.986              7.310
 Vibration     2          0.593              1.986              6.571
 Vibration     3          0.594              1.982              5.475
 Vibration     4          0.597              1.973              4.452
 Vibration     5          0.597              1.972              4.345
 Vibration     6          0.598              1.967              4.088
 Vibration     7          0.604              1.950              3.472
 Vibration     8          0.608              1.936              3.165
 Vibration     9          0.611              1.925              2.971
 Vibration    10          0.617              1.907              2.719
 Vibration    11          0.627              1.873              2.376
 Vibration    12          0.638              1.839              2.130
 Vibration    13          0.648              1.807              1.941
 Vibration    14          0.651              1.798              1.892
 Vibration    15          0.664              1.760              1.718
 Vibration    16          0.668              1.746              1.664
 Vibration    17          0.675              1.725              1.583
 Vibration    18          0.710              1.623              1.279
 Vibration    19          0.722              1.589              1.197
 Vibration    20          0.741              1.536              1.084
 Vibration    21          0.757              1.493              1.004
 Vibration    22          0.802              1.379              0.821
 Vibration    23          0.808              1.363              0.799
 Vibration    24          0.815              1.346              0.776
 Vibration    25          0.825              1.322              0.745
 Vibration    26          0.836              1.296              0.712
 Vibration    27          0.842              1.280              0.693
 Vibration    28          0.912              1.125              0.531
 Vibration    29          0.921              1.106              0.513
 Vibration    30          0.949              1.050              0.465

                           ! Non-Optimized Parameters !
 Normal termination of Gaussian 16 at Mon Dec 14 17:56:02 2020.

 ----------------------------------------------------------------------
 # B3LYP/6-311++G(d,p) empiricaldispersion=gd3bj scf=xqc pop=npa geom=c
 heck
 ----------------------------------------------------------------------

 ----------------------------------------
 CID_114387660_JID_10191_Energie_neutraal
 ----------------------------------------
 Structure from the checkpoint file:  "JID_10191.chk"
 Charge =  0 Multiplicity = 1

 SCF Done:  E(RB3LYP) =  -932.551534044     A.U. after   15 cycles
 Normal termination of Gaussian 16 at Mon Dec 14 18:05:49 2020.

 ----------------------------------------------------------------------
 # B3LYP/6-311++G(d,p) empiricaldispersion=gd3bj scf=xqc pop=npa geom=c
 heck
 ----------------------------------------------------------------------

 --------------------------------------
 CID_114387660_JID_10191_Energie_kation
 --------------------------------------
 Structure from the checkpoint file:  "JID_10191.chk"
 Charge =  1 Multiplicity = 2

 SCF Done:  E(UB3LYP) =  -932.264198213     A.U. after   28 cycles
 Normal termination of Gaussian 16 at Mon Dec 14 18:32:10 2020.
 Gaussian 16:  ES64L-G16RevA.03 25-Dec-2016

 ----------------------------------------------------------------------
 # B3LYP/6-311++G(d,p) empiricaldispersion=gd3bj scf=xqc pop=npa geom=c
 heck
 ----------------------------------------------------------------------

 -------------------------------------
 CID_114387660_JID_10191_Energie_anion
 -------------------------------------
 Structure from the checkpoint file:  "JID_10191.chk"
 Charge = -1 Multiplicity = 2

                         Standard orientation:
 ---------------------------------------------------------------------
 Center     Atomic      Atomic             Coordinates (Angstroms)
 Number     Number       Type             X           Y           Z
 ---------------------------------------------------------------------
      1          6           0       -3.912646    1.744758    1.956269
      2          6           0       -3.811949    0.380424    1.276669
      3          6           0       -2.600097    0.211227    0.391003
      4          6           0       -2.384212   -0.963711   -0.373942
      5          7           0       -1.317579   -1.058175   -1.167093
      6          7           0       -0.436580   -0.063455   -1.232130
      7          6           0       -0.646754    1.002236   -0.454964
      8          7           0       -1.712892    1.194062    0.346529
      9          7           0        0.246819    2.062148   -0.461081
     10          6           0        1.601874    2.165410   -0.780212
     11          8           0        2.170366    3.218547   -0.543533
     12          6           0        2.327683    0.964147   -1.346517
     13          6           0        2.981814    0.171180   -0.210517
     14          6           0        3.640346   -1.122092   -0.703963
     15          7           0        4.148058   -1.959748    0.386990
     16          6           0        3.109706   -2.169608    1.401561
     17          6           0        2.464870   -0.860799    1.858183
     18          8           0        1.961811   -0.133660    0.744194
     19          6           0       -3.339545   -2.128543   -0.407179
     20          6           0       -4.428022   -1.954709   -1.480371
     21          1           0       -3.042215    1.934628    2.589903
     22          1           0       -4.813413    1.789412    2.576520
     23          1           0       -3.959389    2.549958    1.217345
     24          1           0       -3.794474   -0.417776    2.032736
     25          1           0       -4.710934    0.185899    0.677149
     26          1           0       -0.086460    2.863835    0.063338
     27          1           0        1.653759    0.315536   -1.904592
     28          1           0        3.113790    1.349465   -2.001681
     29          1           0        3.742217    0.803823    0.280880
     30          1           0        2.889497   -1.702259   -1.255549
     31          1           0        4.462344   -0.894366   -1.392430
     32          1           0        4.942619   -1.489084    0.821558
     33          1           0        2.336050   -2.811129    0.960856
     34          1           0        3.543901   -2.704923    2.254168
     35          1           0        1.610070   -1.036209    2.519826
     36          1           0        3.204424   -0.246519    2.402097
     37          1           0       -2.756711   -3.028170   -0.626978
     38          1           0       -3.802490   -2.268998    0.576027
     39          1           0       -3.969354   -1.857125   -2.469317
     40          1           0       -5.100083   -2.819175   -1.495041
     41          1           0       -5.033745   -1.059259   -1.300738
 ---------------------------------------------------------------------

 SCF Done:  E(UB3LYP) =  -932.564124132     A.U. after   33 cycles
 SCF Done:  E(UB3LYP) =  -932.564124132     a.u. after    1 cycles

 The electronic state is 2-A.
 Alpha  occ. eigenvalues --  -19.02353 -18.97977 -14.21790 -14.21623 -14.15340
 Alpha  occ. eigenvalues --  -14.15145 -14.13917 -10.16397 -10.12659 -10.12195
 Alpha  occ. eigenvalues --  -10.11558 -10.10511 -10.10119 -10.06196 -10.05143
 Alpha  occ. eigenvalues --  -10.04837 -10.04789 -10.04643 -10.04596 -10.04454
 Alpha  occ. eigenvalues --   -0.94337  -0.93123  -0.86928  -0.81915  -0.80393
 Alpha  occ. eigenvalues --   -0.75513  -0.69968  -0.68661  -0.64620  -0.63039
 Alpha  occ. eigenvalues --   -0.62167  -0.58164  -0.55080  -0.54277  -0.53380
 Alpha  occ. eigenvalues --   -0.50019  -0.48727  -0.46921  -0.43672  -0.40986
 Alpha  occ. eigenvalues --   -0.40388  -0.39493  -0.39062  -0.37486  -0.36554
 Alpha  occ. eigenvalues --   -0.35720  -0.34000  -0.33844  -0.32965  -0.31837
 Alpha  occ. eigenvalues --   -0.31515  -0.30684  -0.29496  -0.29280  -0.28809
 Alpha  occ. eigenvalues --   -0.28144  -0.27840  -0.26939  -0.25743  -0.25337
 Alpha  occ. eigenvalues --   -0.25249  -0.24555  -0.24048  -0.23219  -0.22760
 Alpha  occ. eigenvalues --   -0.22611  -0.19191  -0.18367  -0.16470  -0.16044
 Alpha  occ. eigenvalues --   -0.15129  -0.14386  -0.12884  -0.09927  -0.06319
 Alpha  occ. eigenvalues --    0.04561
 Alpha virt. eigenvalues --    0.06147   0.07646   0.08011   0.08517   0.09084
 Alpha virt. eigenvalues --    0.09786   0.09960   0.10482   0.10955   0.11352
 Alpha virt. eigenvalues --    0.11702   0.11857   0.12130   0.12300   0.12933

  Beta  occ. eigenvalues --  -19.02353 -18.97989 -14.21791 -14.21621 -14.14934
  Beta  occ. eigenvalues --  -14.14360 -14.13443 -10.16400 -10.12657 -10.12190
  Beta  occ. eigenvalues --  -10.11653 -10.10507 -10.10119 -10.06198 -10.05150
  Beta  occ. eigenvalues --  -10.04871 -10.04788 -10.04741 -10.04452 -10.04215
  Beta  occ. eigenvalues --   -0.94337  -0.93137  -0.86225  -0.81910  -0.80008
  Beta  occ. eigenvalues --   -0.74614  -0.69956  -0.68394  -0.64521  -0.63029
  Beta  occ. eigenvalues --   -0.61775  -0.58152  -0.54831  -0.53898  -0.53331
  Beta  occ. eigenvalues --   -0.49944  -0.48654  -0.46661  -0.43414  -0.40967
  Beta  occ. eigenvalues --   -0.40192  -0.39476  -0.38929  -0.37411  -0.36528
  Beta  occ. eigenvalues --   -0.35639  -0.33873  -0.33660  -0.32810  -0.31791
  Beta  occ. eigenvalues --   -0.31406  -0.30560  -0.29338  -0.29029  -0.28794
  Beta  occ. eigenvalues --   -0.27983  -0.27643  -0.26785  -0.25525  -0.25235
  Beta  occ. eigenvalues --   -0.25191  -0.24386  -0.23860  -0.23076  -0.22596
  Beta  occ. eigenvalues --   -0.22471  -0.18387  -0.17673  -0.15735  -0.14922
  Beta  occ. eigenvalues --   -0.13838  -0.13670  -0.12852  -0.08673  -0.05527
  Beta virt. eigenvalues --    0.06151   0.07554   0.07961   0.08467   0.09008
  Beta virt. eigenvalues --    0.09664   0.09906   0.10503   0.10884   0.11273
  Beta virt. eigenvalues --    0.11613   0.11772   0.12039   0.12167   0.12776

 Mulliken charges and spin densities:
               1          2
     1  C   -0.597263  -0.068629
     2  C   -0.350267  -0.026035
     3  C   -0.238498   0.249558
     4  C    0.192805  -0.149781
     5  N    0.068590   0.415111
     6  N   -0.245462   0.124943
     7  C   -0.207056  -0.003493
     8  N    0.017064   0.237200
     9  N   -0.139355  -0.003031
    10  C   -0.116856   0.004872
    11  O   -0.315778  -0.003782
    12  C   -0.412800  -0.021076
    13  C    0.105793   0.029247
    14  C   -0.538846  -0.067625
    15  N   -0.117792   0.015568
    16  C   -0.324195  -0.081072
    17  C   -0.033813  -0.053450
    18  O    0.041881   0.010549
    19  C   -0.261085   0.050227
    20  C   -0.516279  -0.070403
    21  H    0.145944   0.010191
    22  H    0.093694   0.009356
    23  H    0.149554  -0.000957
    24  H    0.056799   0.084664
    25  H    0.133429   0.002428
    26  H    0.309017  -0.002289
    27  H    0.242081  -0.000137
    28  H    0.183320  -0.000277
    29  H    0.149554   0.011661
    30  H    0.211014   0.003133
    31  H    0.137297  -0.002318
    32  H    0.197103   0.035087
    33  H    0.173112   0.002496
    34  H    0.063549   0.092234
    35  H    0.121853   0.043395
    36  H    0.068054   0.033148
    37  H    0.102232   0.056690
    38  H    0.117021   0.004813
    39  H    0.164652  -0.008184
    40  H    0.070367   0.031824
    41  H    0.099570   0.004144
 Sum of Mulliken charges =  -1.00000   1.00000

 Dipole moment (field-independent basis, Debye):
    X=              2.5195    Y=             -1.7646    Z=              2.3002  Tot=              3.8409
 Quadrupole moment (field-independent basis, Debye-Ang):
   XX=           -156.2570   YY=           -157.9478   ZZ=           -135.7456
   XY=             -5.3447   XZ=              0.9321   YZ=             -4.7445

 Summary of Natural Population Analysis:

                                       Natural Population
                Natural  -----------------------------------------------
    Atom  No    Charge         Core      Valence    Rydberg      Total
 -----------------------------------------------------------------------
      C    1   -0.28247      0.99968     2.27799    0.00481     3.28247
      C    2   -0.20678      0.99962     2.20011    0.00705     3.20678
      C    3    0.17425      0.99952     1.81347    0.01276     2.82575
      C    4    0.03379      0.99951     1.95263    0.01407     2.96621
      N    5   -0.01741      0.99967     2.50007    0.01766     3.51741
      N    6   -0.12827      0.99967     2.61184    0.01675     3.62827
      C    7    0.26436      0.99960     1.71821    0.01782     2.73564
      N    8   -0.21167      0.99964     2.70056    0.01147     3.71167
      N    9   -0.30746      0.99962     2.79699    0.01085     3.80746
      C   10    0.35360      0.99969     1.62297    0.02375     2.64640
      O   11   -0.33071      0.99987     3.32473    0.00611     4.33071
      C   12   -0.25014      0.99955     2.24177    0.00882     3.25014
      C   13    0.06272      0.99955     1.92178    0.01595     2.93728
      C   14   -0.10168      0.99960     2.09168    0.01040     3.10168
      N   15   -0.33767      0.99977     2.82348    0.01443     3.83767
      C   16   -0.10491      0.99963     2.09512    0.01015     3.10491
      C   17   -0.01716      0.99959     2.00623    0.01134     3.01716
      O   18   -0.29738      0.99988     3.28601    0.01149     4.29738
      C   19   -0.20094      0.99961     2.19178    0.00955     3.20094
      C   20   -0.28203      0.99966     2.27793    0.00443     3.28203
      H   21    0.10160      0.00000     0.39708    0.00132     0.39840
      H   22    0.08639      0.00000     0.41270    0.00091     0.41361
      H   23    0.09956      0.00000     0.39951    0.00093     0.40044
      H   24    0.09804      0.00000     0.39986    0.00210     0.40196
      H   25    0.09736      0.00000     0.40127    0.00137     0.40264
      H   26    0.19878      0.00000     0.29846    0.00276     0.30122
      H   27    0.13509      0.00000     0.36291    0.00200     0.36491
      H   28    0.10520      0.00000     0.39384    0.00096     0.39480
      H   29    0.07714      0.00000     0.42082    0.00204     0.42286
      H   30    0.10083      0.00000     0.39779    0.00138     0.39917
      H   31    0.09318      0.00000     0.40581    0.00101     0.40682
      H   32    0.16583      0.00000     0.33203    0.00214     0.33417
      H   33    0.09767      0.00000     0.40085    0.00149     0.40233
      H   34    0.09184      0.00000     0.40684    0.00133     0.40816
      H   35    0.09496      0.00000     0.40369    0.00135     0.40504
      H   36    0.07121      0.00000     0.42668    0.00211     0.42879
      H   37    0.10086      0.00000     0.39593    0.00320     0.39914
      H   38    0.09160      0.00000     0.40683    0.00156     0.40840
      H   39    0.10082      0.00000     0.39771    0.00147     0.39918
      H   40    0.08721      0.00000     0.41135    0.00145     0.41279
      H   41    0.09277      0.00000     0.40593    0.00131     0.40723
 =======================================================================
   * Total *   -0.00000     19.99293    54.73322    0.27385    75.00000

 Normal termination of Gaussian 16 at Mon Dec 14 19:04:12 2020.
