 Gaussian 16, Revision A.03,

 -----------------------------------------------------------
 # opt freq B3LYP/6-31G(d) empiricaldispersion=gd3bj scf=xqc
 -----------------------------------------------------------

 ------------------------------
 CID_88980428_JID_4610_neutraal
 ------------------------------
 Symbolic Z-matrix:
 Charge =  0 Multiplicity = 1

 SCF Done:  E(RB3LYP) =  -649.501111631     A.U. after   15 cycles
 SCF Done:  E(RB3LYP) =  -649.505680588     A.U. after   12 cycles
 SCF Done:  E(RB3LYP) =  -649.506383978     A.U. after   12 cycles
 SCF Done:  E(RB3LYP) =  -649.506738318     A.U. after   12 cycles
 SCF Done:  E(RB3LYP) =  -649.506884747     A.U. after   12 cycles
 SCF Done:  E(RB3LYP) =  -649.506943343     A.U. after   12 cycles
 SCF Done:  E(RB3LYP) =  -649.506960312     A.U. after   10 cycles
 SCF Done:  E(RB3LYP) =  -649.506969072     A.U. after   10 cycles
 SCF Done:  E(RB3LYP) =  -649.506973014     A.U. after    9 cycles
 SCF Done:  E(RB3LYP) =  -649.506973567     A.U. after    8 cycles
 SCF Done:  E(RB3LYP) =  -649.506973791     A.U. after    8 cycles
 SCF Done:  E(RB3LYP) =  -649.506973804     A.U. after    6 cycles
 Optimization completed.
    -- Stationary point found.
 Normal termination of Gaussian 16 at Thu Dec 10 10:10:03 2020.

 --------------------------------------------------------------------
 #N Geom=AllCheck Guess=TCheck SCRF=Check GenChk RB3LYP/6-31G(d) Freq
 --------------------------------------------------------------------

 Structure from the checkpoint file:  "JID_4610.chk"
 ------------------------------
 CID_88980428_JID_4610_neutraal
 ------------------------------
 Charge =  0 Multiplicity = 1

 SCF Done:  E(RB3LYP) =  -649.506973804     A.U. after    1 cycles

  Exact polarizability: 189.800  -0.962 119.823  -8.774   5.095  72.491
 Approx polarizability: 263.010  -6.520 191.799 -25.830  12.398 112.418

                      1                      2                      3
                      A                      A                      A
 Frequencies --     25.1765                40.9949                48.8170
 Red. masses --      3.0285                 3.3445                 6.1150
 Frc consts  --      0.0011                 0.0033                 0.0086
 IR Inten    --      0.2095                 1.8397                 1.2633

                      4                      5                      6
                      A                      A                      A
 Frequencies --     86.3266               105.5757               151.8889
 Red. masses --      3.5954                 5.3719                 5.0454
 Frc consts  --      0.0158                 0.0353                 0.0686
 IR Inten    --      0.4860                 0.9303                 3.6620

                      7                      8                      9
                      A                      A                      A
 Frequencies --    187.3066               199.9472               252.4672
 Red. masses --      1.0440                 5.1279                 1.0436
 Frc consts  --      0.0216                 0.1208                 0.0392
 IR Inten    --      0.3446                 0.5313                 0.0710

                     10                     11                     12
                      A                      A                      A
 Frequencies --    280.8938               299.4637               339.4636
 Red. masses --      1.0657                 3.6010                 4.3221
 Frc consts  --      0.0495                 0.1903                 0.2934
 IR Inten    --      0.6009                 3.4182                 0.7004

                     13                     14                     15
                      A                      A                      A
 Frequencies --    354.2558               367.8252               397.4867
 Red. masses --      3.0237                 3.6593                 3.1612
 Frc consts  --      0.2236                 0.2917                 0.2943
 IR Inten    --      1.8619                 2.8347                 0.2335

                     16                     17                     18
                      A                      A                      A
 Frequencies --    439.7983               465.0329               515.3304
 Red. masses --      4.0018                 4.7318                 2.7239
 Frc consts  --      0.4561                 0.6029                 0.4262
 IR Inten    --      1.1273                 9.7960                 3.1056

                     19                     20                     21
                      A                      A                      A
 Frequencies --    539.9938               550.0861               570.8365
 Red. masses --      3.8147                 1.9616                 3.2084
 Frc consts  --      0.6554                 0.3497                 0.6160
 IR Inten    --     23.2284                 6.9309                 9.0952

                     22                     23                     24
                      A                      A                      A
 Frequencies --    644.4237               657.7776               687.2650
 Red. masses --      3.6025                 7.5163                 1.3545
 Frc consts  --      0.8814                 1.9161                 0.3769
 IR Inten    --     12.8198                 0.8045                85.2313

                     25                     26                     27
                      A                      A                      A
 Frequencies --    763.0435               780.0001               821.2839
 Red. masses --      4.7832                 5.1392                 4.1893
 Frc consts  --      1.6408                 1.8422                 1.6649
 IR Inten    --      6.5075                 0.6391                 0.5538

                     28                     29                     30
                      A                      A                      A
 Frequencies --    842.6648               862.2081               937.5387
 Red. masses --      1.6180                 3.6625                 1.3492
 Frc consts  --      0.6769                 1.6042                 0.6987
 IR Inten    --     34.2032                12.9968                 0.3365

                     31                     32                     33
                      A                      A                      A
 Frequencies --    941.7443               950.4301               959.6098
 Red. masses --      1.7161                 1.2685                 3.9286
 Frc consts  --      0.8967                 0.6751                 2.1315
 IR Inten    --     18.1610                 0.4351                 4.4904

                     34                     35                     36
                      A                      A                      A
 Frequencies --    964.5075               976.2590              1035.9186
 Red. masses --      1.6749                 1.7264                 1.7673
 Frc consts  --      0.9180                 0.9695                 1.1174
 IR Inten    --     20.9977                30.0788                41.2507

                     37                     38                     39
                      A                      A                      A
 Frequencies --   1043.6428              1073.2152              1157.7067
 Red. masses --      2.4599                 1.7270                 1.8987
 Frc consts  --      1.5786                 1.1720                 1.4994
 IR Inten    --     15.9657                 6.5656                17.5643

                     40                     41                     42
                      A                      A                      A
 Frequencies --   1161.9887              1169.5131              1213.6501
 Red. masses --      1.4602                 1.6434                 1.9949
 Frc consts  --      1.1616                 1.3244                 1.7313
 IR Inten    --     48.3330                82.5161                 7.3016

                     43                     44                     45
                      A                      A                      A
 Frequencies --   1253.0920              1266.1856              1313.9132
 Red. masses --      2.1424                 3.1530                 3.5506
 Frc consts  --      1.9821                 2.9783                 3.6115
 IR Inten    --    100.1012               238.1755                35.7986

                     46                     47                     48
                      A                      A                      A
 Frequencies --   1338.7649              1357.4721              1382.0996
 Red. masses --      2.0460                 2.6467                 1.3273
 Frc consts  --      2.1606                 2.8735                 1.4938
 IR Inten    --    312.3883                62.8000                 2.7328

                     49                     50                     51
                      A                      A                      A
 Frequencies --   1408.5752              1418.3889              1429.3729
 Red. masses --      1.5808                 1.9991                 1.3426
 Frc consts  --      1.8480                 2.3696                 1.6162
 IR Inten    --     30.4829                20.5320                18.7926

                     52                     53                     54
                      A                      A                      A
 Frequencies --   1432.7487              1443.1295              1477.6093
 Red. masses --      1.4172                 1.2505                 1.0699
 Frc consts  --      1.7140                 1.5344                 1.3763
 IR Inten    --     99.0219                15.8339                 2.4721

                     55                     56                     57
                      A                      A                      A
 Frequencies --   1500.9568              1513.8327              1518.3087
 Red. masses --      1.0463                 1.0710                 1.9090
 Frc consts  --      1.3888                 1.4461                 2.5928
 IR Inten    --      8.3341                 5.5939                97.8021

                     58                     59                     60
                      A                      A                      A
 Frequencies --   1519.9514              1526.0528              1538.6366
 Red. masses --      1.1028                 1.0777                 1.3829
 Frc consts  --      1.5010                 1.4787                 1.9288
 IR Inten    --     12.2452                37.7889                83.6410

                     61                     62                     63
                      A                      A                      A
 Frequencies --   1544.0250              1628.3046              1664.3101
 Red. masses --      1.7242                 5.3986                 6.1887
 Frc consts  --      2.4219                 8.4334                10.0999
 IR Inten    --    247.1718                55.5589                45.4622

                     64                     65                     66
                      A                      A                      A
 Frequencies --   1795.7837              3054.7611              3059.6559
 Red. masses --      7.4225                 1.0348                 1.0355
 Frc consts  --     14.1028                 5.6893                 5.7112
 IR Inten    --    451.8939                13.7731                 6.3677

                     67                     68                     69
                      A                      A                      A
 Frequencies --   3083.8648              3084.4233              3122.8095
 Red. masses --      1.0345                 1.0874                 1.1022
 Frc consts  --      5.7965                 6.0949                 6.3328
 IR Inten    --      2.4199                20.6712                 0.0281

                     70                     71                     72
                      A                      A                      A
 Frequencies --   3130.6819              3133.3067              3137.2935
 Red. masses --      1.1016                 1.1034                 1.1026
 Frc consts  --      6.3614                 6.3824                 6.3942
 IR Inten    --     66.7254                23.4458                38.5722

                     73                     74                     75
                      A                      A                      A
 Frequencies --   3152.2954              3179.6215              3189.4438
 Red. masses --      1.0995                 1.1065                 1.0907
 Frc consts  --      6.4373                 6.5912                 6.5371
 IR Inten    --      3.8384                19.7241                33.5095

                     76                     77                     78
                      A                      A                      A
 Frequencies --   3192.5840              3223.1222              3592.5925
 Red. masses --      1.0904                 1.0940                 1.0758
 Frc consts  --      6.5482                 6.6962                 8.1806
 IR Inten    --      1.4579                 7.0418                25.8634

 - Thermochemistry -
 -------------------
 Temperature   298.150 Kelvin.  Pressure   1.00000 Atm.
 Atom     1 has atomic number  6 and mass  12.00000

 Molecular mass:   194.10553 amu.
 Principal axes and moments of inertia in atomic units:
                           1         2         3
     Eigenvalues --   989.380685894.462946392.20359
           X            0.99990   0.00527   0.01299
           Y           -0.00532   0.99998   0.00374
           Z           -0.01297  -0.00381   0.99991
 This molecule is an asymmetric top.
 Rotational symmetry number  1.
 Warning -- assumption of classical behavior for rotation
           may cause significant error
 Rotational temperatures (Kelvin)      0.08754     0.01469     0.01355
 Rotational constants (GHZ):           1.82411     0.30618     0.28233
 Zero-point vibrational energy     612914.7 (Joules/Mol)
                                  146.49012 (Kcal/Mol)
 Warning -- explicit consideration of  21 degrees of freedom as
           vibrations may cause significant error
 Vibrational temperatures:     36.22    58.98    70.24   124.20   151.90
          (Kelvin)            218.53   269.49   287.68   363.24   404.14
                              430.86   488.41   509.70   529.22   571.89
                              632.77   669.08   741.45   776.93   791.45
                              821.31   927.18   946.40   988.82  1097.85
                             1122.25  1181.64  1212.41  1240.53  1348.91
                             1354.96  1367.46  1380.66  1387.71  1404.62
                             1490.46  1501.57  1544.12  1665.68  1671.84
                             1682.67  1746.17  1802.92  1821.76  1890.43
                             1926.18  1953.10  1988.53  2026.63  2040.75
                             2056.55  2061.41  2076.34  2125.95  2159.54
                             2178.07  2184.51  2186.87  2195.65  2213.75
                             2221.51  2342.77  2394.57  2583.73  4395.12
                             4402.16  4436.99  4437.80  4493.03  4504.35
                             4508.13  4513.87  4535.45  4574.77  4588.90
                             4593.42  4637.35  5168.94

 Zero-point correction=                           0.233447 (Hartree/Particle)
 Thermal correction to Energy=                    0.247487
 Thermal correction to Enthalpy=                  0.248431
 Thermal correction to Gibbs Free Energy=         0.191208
 Sum of electronic and zero-point Energies=           -649.273527
 Sum of electronic and thermal Energies=              -649.259487
 Sum of electronic and thermal Enthalpies=            -649.258543
 Sum of electronic and thermal Free Energies=         -649.315766

                     E (Thermal)             CV                S
                      KCal/Mol        Cal/Mol-Kelvin    Cal/Mol-Kelvin
 Total                  155.300             52.352            120.436
 Electronic               0.000              0.000              0.000
 Translational            0.889              2.981             41.695
 Rotational               0.889              2.981             31.989
 Vibrational            153.523             46.390             46.752
 Vibration     1          0.593              1.985              6.177
 Vibration     2          0.594              1.981              5.210
 Vibration     3          0.595              1.978              4.865
 Vibration     4          0.601              1.959              3.742
 Vibration     5          0.605              1.945              3.349
 Vibration     6          0.619              1.901              2.648
 Vibration     7          0.632              1.857              2.254
 Vibration     8          0.638              1.840              2.134
 Vibration     9          0.664              1.759              1.713
 Vibration    10          0.681              1.709              1.528
 Vibration    11          0.692              1.675              1.420
 Vibration    12          0.719              1.597              1.215
 Vibration    13          0.730              1.567              1.147
 Vibration    14          0.740              1.538              1.089
 Vibration    15          0.764              1.476              0.972
 Vibration    16          0.800              1.383              0.827
 Vibration    17          0.822              1.328              0.752
 Vibration    18          0.870              1.216              0.621
 Vibration    19          0.895              1.162              0.565
 Vibration    20          0.905              1.139              0.544
 Vibration    21          0.927              1.094              0.503

 Optimization completed.
    -- Stationary point found.
 Normal termination of Gaussian 16 at Thu Dec 10 10:17:03 2020.

 ----------------------------------------------------------------------
 # B3LYP/6-311++G(d,p) empiricaldispersion=gd3bj scf=xqc pop=npa geom=c
 heck
 ----------------------------------------------------------------------

 --------------------------------------
 CID_88980428_JID_4610_Energie_neutraal
 --------------------------------------
 Structure from the checkpoint file:  "JID_4610.chk"
 Charge =  0 Multiplicity = 1

 SCF Done:  E(RB3LYP) =  -649.690963723     A.U. after   15 cycles
 Normal termination of Gaussian 16 at Thu Dec 10 10:19:43 2020.

 ----------------------------------------------------------------------
 # B3LYP/6-311++G(d,p) empiricaldispersion=gd3bj scf=xqc pop=npa geom=c
 heck
 ----------------------------------------------------------------------

 ------------------------------------
 CID_88980428_JID_4610_Energie_kation
 ------------------------------------
 Structure from the checkpoint file:  "JID_4610.chk"
 Charge =  1 Multiplicity = 2

 SCF Done:  E(UB3LYP) =  -649.390701849     A.U. after   23 cycles
 Normal termination of Gaussian 16 at Thu Dec 10 10:25:15 2020.
 Gaussian 16:  ES64L-G16RevA.03 25-Dec-2016

 ----------------------------------------------------------------------
 # B3LYP/6-311++G(d,p) empiricaldispersion=gd3bj scf=xqc pop=npa geom=c
 heck
 ----------------------------------------------------------------------

 -----------------------------------
 CID_88980428_JID_4610_Energie_anion
 -----------------------------------
 Structure from the checkpoint file:  "JID_4610.chk"
 Charge = -1 Multiplicity = 2

                         Standard orientation:
 ---------------------------------------------------------------------
 Center     Atomic      Atomic             Coordinates (Angstroms)
 Number     Number       Type             X           Y           Z
 ---------------------------------------------------------------------
      1          6           0        3.793440    0.858968    0.997777
      2          6           0        3.644367   -0.318596    0.038294
      3          6           0        3.315380   -1.622364    0.759517
      4          8           0        2.695149   -0.034893   -1.024421
      5          6           0        1.386822    0.188171   -0.672121
      6          6           0        0.462550   -0.855675   -0.653007
      7          7           0       -0.837007   -0.695932   -0.379966
      8          6           0       -1.280393    0.534981   -0.116896
      9          6           0       -0.434424    1.661353   -0.131212
     10          6           0        0.909649    1.479337   -0.413633
     11          7           0       -2.631474    0.728809    0.179173
     12          6           0       -3.727485   -0.130968    0.257647
     13          8           0       -4.810817    0.353389    0.548548
     14          6           0       -3.535089   -1.602032   -0.016304
     15          1           0        2.878646    1.017175    1.578822
     16          1           0        4.023594    1.778213    0.449938
     17          1           0        4.609351    0.665108    1.702484
     18          1           0        4.577371   -0.444289   -0.519632
     19          1           0        2.383478   -1.538048    1.328516
     20          1           0        3.213686   -2.444531    0.044501
     21          1           0        4.117521   -1.873191    1.462124
     22          1           0        0.791487   -1.866753   -0.881098
     23          1           0       -0.831147    2.652822    0.068038
     24          1           0        1.592729    2.321384   -0.450226
     25          1           0       -2.908543    1.682269    0.380284
     26          1           0       -3.131397   -1.765805   -1.018609
     27          1           0       -2.812019   -2.039170    0.676878
     28          1           0       -4.508951   -2.082344    0.090130
 ---------------------------------------------------------------------

 SCF Done:  E(UB3LYP) =  -649.684024253     A.U. after   33 cycles
 SCF Done:  E(UB3LYP) =  -649.684024252     a.u. after    1 cycles

 The electronic state is 2-A.
 Alpha  occ. eigenvalues --  -19.02277 -18.99292 -14.24570 -14.18071 -10.17843
 Alpha  occ. eigenvalues --  -10.13486 -10.12207 -10.10730 -10.08253 -10.07140
 Alpha  occ. eigenvalues --  -10.06562 -10.05775 -10.05660 -10.05513  -0.94681
 Alpha  occ. eigenvalues --   -0.93785  -0.85832  -0.79712  -0.69339  -0.67470
 Alpha  occ. eigenvalues --   -0.64568  -0.62842  -0.58930  -0.54172  -0.53261
 Alpha  occ. eigenvalues --   -0.48226  -0.46845  -0.43683  -0.39166  -0.39007
 Alpha  occ. eigenvalues --   -0.37717  -0.36314  -0.35445  -0.33477  -0.33296
 Alpha  occ. eigenvalues --   -0.31954  -0.31122  -0.30399  -0.30217  -0.29499
 Alpha  occ. eigenvalues --   -0.28535  -0.28159  -0.27414  -0.26396  -0.25310
 Alpha  occ. eigenvalues --   -0.23020  -0.19719  -0.17927  -0.17450  -0.16595
 Alpha  occ. eigenvalues --   -0.14167  -0.11262   0.04573
 Alpha virt. eigenvalues --    0.06512   0.07295   0.07986   0.08506   0.09010
 Alpha virt. eigenvalues --    0.09265   0.09614   0.10882   0.11069   0.11799
 Alpha virt. eigenvalues --    0.12243   0.12569   0.13420   0.13538   0.14329

  Beta  occ. eigenvalues --  -19.02282 -18.99248 -14.24590 -14.17791 -10.17787
  Beta  occ. eigenvalues --  -10.13471 -10.12196 -10.10765 -10.08161 -10.07141
  Beta  occ. eigenvalues --  -10.06538 -10.05638 -10.05506 -10.05471  -0.94597
  Beta  occ. eigenvalues --   -0.93780  -0.85648  -0.79483  -0.69117  -0.67277
  Beta  occ. eigenvalues --   -0.64471  -0.62715  -0.58864  -0.53985  -0.53060
  Beta  occ. eigenvalues --   -0.48123  -0.46658  -0.43573  -0.39079  -0.38943
  Beta  occ. eigenvalues --   -0.37643  -0.36223  -0.35262  -0.33377  -0.33217
  Beta  occ. eigenvalues --   -0.31885  -0.31073  -0.30345  -0.29862  -0.29345
  Beta  occ. eigenvalues --   -0.28481  -0.28051  -0.27296  -0.26156  -0.25257
  Beta  occ. eigenvalues --   -0.22894  -0.19385  -0.17806  -0.16560  -0.16228
  Beta  occ. eigenvalues --   -0.13928  -0.10841
  Beta virt. eigenvalues --    0.07037   0.07749   0.08129   0.08560   0.08990
  Beta virt. eigenvalues --    0.09370   0.09735   0.09987   0.11160   0.11304
  Beta virt. eigenvalues --    0.11893   0.12464   0.12676   0.13550   0.13800

 Mulliken charges and spin densities:
               1          2
     1  C    0.715792  -1.328831
     2  C   -0.780518   0.958338
     3  C    0.712751  -1.304982
     4  O   -0.109037  -0.002561
     5  C    0.150666  -0.822352
     6  C   -0.183633   0.212274
     7  N   -0.183147   0.175572
     8  C   -0.132904  -0.493072
     9  C    0.231208   0.240259
    10  C    0.017731   0.221844
    11  N   -0.084052  -0.026175
    12  C    0.127275   0.002733
    13  O   -0.365145   0.020587
    14  C   -0.328726  -0.047908
    15  H    0.073495   0.080826
    16  H   -0.076914   0.230861
    17  H   -0.318357   0.452737
    18  H   -0.497985   0.695936
    19  H   -0.037679   0.207245
    20  H    0.059209   0.085569
    21  H   -0.484864   0.626596
    22  H    0.138671   0.037374
    23  H   -0.211862   0.362487
    24  H   -0.171891   0.337687
    25  H    0.280204   0.026050
    26  H    0.165541   0.009067
    27  H    0.141572   0.032449
    28  H    0.152598   0.009390
 Sum of Mulliken charges =  -1.00000   1.00000

 Dipole moment (field-independent basis, Debye):
    X=             -4.3267    Y=             -0.5464    Z=             -1.2614  Tot=              4.5398
 Quadrupole moment (field-independent basis, Debye-Ang):
   XX=           -186.2406   YY=           -108.0174   ZZ=           -107.9275
   XY=              6.2197   XZ=             -1.3859   YZ=              2.7884

 Summary of Natural Population Analysis:

                                       Natural Population
                Natural  -----------------------------------------------
    Atom  No    Charge         Core      Valence    Rydberg      Total
 -----------------------------------------------------------------------
      C    1   -0.30155      0.99964     2.29577    0.00614     3.30155
      C    2    0.06801      0.99954     1.91842    0.01403     2.93199
      C    3   -0.30175      0.99964     2.29546    0.00664     3.30175
      O    4   -0.29926      0.99986     3.28868    0.01071     4.29926
      C    5    0.11345      0.99935     1.87273    0.01447     2.88655
      C    6    0.03186      0.99953     1.95575    0.01285     2.96814
      N    7   -0.22637      0.99967     2.71609    0.01061     3.72637
      C    8    0.18883      0.99953     1.79662    0.01502     2.81117
      C    9   -0.13354      0.99953     2.12533    0.00867     3.13354
      C   10   -0.05031      0.99952     2.04124    0.00955     3.05031
      N   11   -0.31233      0.99964     2.80412    0.00857     3.81233
      C   12    0.35343      0.99972     1.62570    0.02115     2.64657
      O   13   -0.32164      0.99988     3.31582    0.00594     4.32164
      C   14   -0.33279      0.99962     2.32850    0.00467     3.33279
      H   15    0.10145      0.00000     0.39726    0.00129     0.39855
      H   16    0.10265      0.00000     0.39597    0.00138     0.39735
      H   17    0.10300      0.00000     0.39592    0.00108     0.39700
      H   18    0.08901      0.00000     0.40908    0.00190     0.41099
      H   19    0.10235      0.00000     0.39643    0.00122     0.39765
      H   20    0.10117      0.00000     0.39776    0.00106     0.39883
      H   21    0.10418      0.00000     0.39419    0.00163     0.39582
      H   22    0.08838      0.00000     0.41012    0.00150     0.41162
      H   23    0.09775      0.00000     0.40116    0.00109     0.40225
      H   24    0.10122      0.00000     0.39723    0.00155     0.39878
      H   25    0.19487      0.00000     0.30252    0.00261     0.30513
      H   26    0.11761      0.00000     0.38125    0.00113     0.38239
      H   27    0.11837      0.00000     0.38027    0.00136     0.38163
      H   28    0.10195      0.00000     0.39688    0.00117     0.39805
 =======================================================================
   * Total *    0.00000     13.99467    37.83630    0.16903    52.00000

 Normal termination of Gaussian 16 at Thu Dec 10 10:33:41 2020.
