 Gaussian 16, Revision A.03,

 -----------------------------------------------------------
 # opt freq B3LYP/6-31G(d) empiricaldispersion=gd3bj scf=xqc
 -----------------------------------------------------------

 -------------------------------
 CID_131410592_JID_2179_neutraal
 -------------------------------
 Symbolic Z-matrix:
 Charge =  0 Multiplicity = 1

 SCF Done:  E(RB3LYP) =  -549.732118573     A.U. after   15 cycles
 SCF Done:  E(RB3LYP) =  -549.735622249     A.U. after   12 cycles
 SCF Done:  E(RB3LYP) =  -549.736105561     A.U. after   11 cycles
 SCF Done:  E(RB3LYP) =  -549.736224776     A.U. after   11 cycles
 SCF Done:  E(RB3LYP) =  -549.736286025     A.U. after   11 cycles
 SCF Done:  E(RB3LYP) =  -549.736342460     A.U. after   10 cycles
 SCF Done:  E(RB3LYP) =  -549.736426565     A.U. after   12 cycles
 SCF Done:  E(RB3LYP) =  -549.736616886     A.U. after   12 cycles
 SCF Done:  E(RB3LYP) =  -549.734712425     A.U. after   16 cycles
 SCF Done:  E(RB3LYP) =  -549.737191256     A.U. after   12 cycles
 SCF Done:  E(RB3LYP) =  -549.737683874     A.U. after   10 cycles
 SCF Done:  E(RB3LYP) =  -549.737684578     A.U. after    9 cycles
 SCF Done:  E(RB3LYP) =  -549.737685455     A.U. after    9 cycles
 SCF Done:  E(RB3LYP) =  -549.737685607     A.U. after    8 cycles
 SCF Done:  E(RB3LYP) =  -549.737685617     A.U. after    7 cycles
 Optimization completed.
    -- Stationary point found.
 Normal termination of Gaussian 16 at Wed Dec  9 16:56:01 2020.

 --------------------------------------------------------------------
 #N Geom=AllCheck Guess=TCheck SCRF=Check GenChk RB3LYP/6-31G(d) Freq
 --------------------------------------------------------------------

 Structure from the checkpoint file:  "JID_2179.chk"
 -------------------------------
 CID_131410592_JID_2179_neutraal
 -------------------------------
 Charge =  0 Multiplicity = 1

 SCF Done:  E(RB3LYP) =  -549.737685617     A.U. after    1 cycles

  Exact polarizability: 109.588   0.693 116.002  -3.422   0.133  60.893
 Approx polarizability: 147.844  -9.421 196.473 -10.375   4.700  95.006

                      1                      2                      3
                      A                      A                      A
 Frequencies --     20.4269                35.3468               113.3399
 Red. masses --      3.2842                 2.0367                 7.0769
 Frc consts  --      0.0008                 0.0015                 0.0536
 IR Inten    --      1.2569                 0.5330                 3.8359

                      4                      5                      6
                      A                      A                      A
 Frequencies --    134.6627               173.9516               189.3553
 Red. masses --      4.9619                 7.5114                 4.6640
 Frc consts  --      0.0530                 0.1339                 0.0985
 IR Inten    --      1.3422                 1.4898                 0.5911

                      7                      8                      9
                      A                      A                      A
 Frequencies --    269.6786               342.6613               384.8695
 Red. masses --      2.5913                 6.3476                 5.5256
 Frc consts  --      0.1110                 0.4391                 0.4822
 IR Inten    --      3.7135                 0.7352                 0.8930

                     10                     11                     12
                      A                      A                      A
 Frequencies --    476.2724               528.1466               586.2040
 Red. masses --      3.2042                 4.8320                 7.2162
 Frc consts  --      0.4282                 0.7941                 1.4610
 IR Inten    --      6.4280                 9.7638                 6.8656

                     13                     14                     15
                      A                      A                      A
 Frequencies --    605.5074               615.7859               662.3711
 Red. masses --      3.2386                 5.6828                 3.6428
 Frc consts  --      0.6996                 1.2696                 0.9417
 IR Inten    --     33.9072                29.8846                 7.9409

                     16                     17                     18
                      A                      A                      A
 Frequencies --    720.8203               785.4826               827.1878
 Red. masses --      7.5646                 2.2684                 1.4589
 Frc consts  --      2.3158                 0.8246                 0.5881
 IR Inten    --      2.6649                25.5004                 8.7059

                     19                     20                     21
                      A                      A                      A
 Frequencies --    853.7333               863.7425               932.8760
 Red. masses --      1.5033                 2.8499                 3.0055
 Frc consts  --      0.6456                 1.2527                 1.5410
 IR Inten    --     16.7324                30.4697                 6.3678

                     22                     23                     24
                      A                      A                      A
 Frequencies --    946.6869               956.7477              1000.5288
 Red. masses --      2.6598                10.7473                 1.9249
 Frc consts  --      1.4045                 5.7962                 1.1353
 IR Inten    --      0.4627                 6.5002                14.0911

                     25                     26                     27
                      A                      A                      A
 Frequencies --   1016.8788              1089.6894              1094.3299
 Red. masses --      1.5579                 2.3122                 3.0707
 Frc consts  --      0.9492                 1.6177                 2.1666
 IR Inten    --      3.4680                 6.8394                23.4871

                     28                     29                     30
                      A                      A                      A
 Frequencies --   1107.7923              1137.9187              1150.3551
 Red. masses --      4.7296                 3.2578                 2.8287
 Frc consts  --      3.4197                 2.4854                 2.2055
 IR Inten    --     18.6685                39.1800                 9.8626

                     31                     32                     33
                      A                      A                      A
 Frequencies --   1199.1289              1220.7560              1241.9650
 Red. masses --      3.3256                 1.2405                 1.3651
 Frc consts  --      2.8174                 1.0892                 1.2406
 IR Inten    --     25.2920                 0.8998                 4.8753

                     34                     35                     36
                      A                      A                      A
 Frequencies --   1268.3932              1292.7109              1307.8545
 Red. masses --      1.1910                 1.1920                 2.0373
 Frc consts  --      1.1290                 1.1736                 2.0531
 IR Inten    --      7.5088                 8.8499                 5.0665

                     37                     38                     39
                      A                      A                      A
 Frequencies --   1319.9815              1343.5818              1349.2227
 Red. masses --      1.3558                 1.4117                 1.4949
 Frc consts  --      1.3918                 1.5015                 1.6034
 IR Inten    --      2.7501                 7.5015                 6.1589

                     40                     41                     42
                      A                      A                      A
 Frequencies --   1393.1673              1425.9903              1455.4723
 Red. masses --      2.3467                 1.6346                 1.3697
 Frc consts  --      2.6836                 1.9584                 1.7095
 IR Inten    --      5.0974                 1.4232                 6.6608

                     43                     44                     45
                      A                      A                      A
 Frequencies --   1525.7358              1542.2894              1562.5886
 Red. masses --      1.0861                 1.0912                 1.0981
 Frc consts  --      1.4897                 1.5293                 1.5797
 IR Inten    --      3.4921                 2.4645                 1.9056

                     46                     47                     48
                      A                      A                      A
 Frequencies --   1579.7346              1631.3531              2361.6392
 Red. masses --      6.7272                11.7008                12.6587
 Frc consts  --      9.8912                18.3468                41.5975
 IR Inten    --     28.4611                22.7822                25.6546

                     49                     50                     51
                      A                      A                      A
 Frequencies --   2942.6273              2979.6268              3046.1397
 Red. masses --      1.0731                 1.0744                 1.0830
 Frc consts  --      5.4747                 5.6202                 5.9208
 IR Inten    --     68.3408                80.5416                 9.1617

                     52                     53                     54
                      A                      A                      A
 Frequencies --   3090.2236              3106.4948              3111.0243
 Red. masses --      1.0897                 1.0633                 1.0882
 Frc consts  --      6.1313                 6.0460                 6.2055
 IR Inten    --     34.5423                25.3021                17.5433

                     55                     56                     57
                      A                      A                      A
 Frequencies --   3150.9036              3303.9715              3523.9782
 Red. masses --      1.1064                 1.0998                 1.0751
 Frc consts  --      6.4719                 7.0738                 7.8664
 IR Inten    --     16.6343                 0.1698                 0.6635

 - Thermochemistry -
 -------------------
 Temperature   298.150 Kelvin.  Pressure   1.00000 Atm.
 Atom     1 has atomic number  6 and mass  12.00000

 Molecular mass:   163.07456 amu.
 Principal axes and moments of inertia in atomic units:
                           1         2         3
     Eigenvalues --  1187.617362443.481463513.60293
           X            0.99959   0.02820   0.00529
           Y           -0.02817   0.99958  -0.00631
           Z           -0.00546   0.00616   0.99997
 This molecule is an asymmetric top.
 Rotational symmetry number  1.
 Warning -- assumption of classical behavior for rotation
           may cause significant error
 Rotational temperatures (Kelvin)      0.07293     0.03545     0.02465
 Rotational constants (GHZ):           1.51963     0.73859     0.51364
 Zero-point vibrational energy     442019.6 (Joules/Mol)
                                  105.64522 (Kcal/Mol)
 Warning -- explicit consideration of  14 degrees of freedom as
           vibrations may cause significant error
 Vibrational temperatures:     29.39    50.86   163.07   193.75   250.28
          (Kelvin)            272.44   388.01   493.01   553.74   685.25
                              759.89   843.42   871.19   885.98   953.00
                             1037.10  1130.13  1190.14  1228.33  1242.73
                             1342.20  1362.07  1376.55  1439.54  1463.06
                             1567.82  1574.50  1593.87  1637.21  1655.10
                             1725.28  1756.40  1786.91  1824.93  1859.92
                             1881.71  1899.16  1933.11  1941.23  2004.46
                             2051.68  2094.10  2195.19  2219.01  2248.22
                             2272.89  2347.15  3397.87  4233.78  4287.02
                             4382.72  4446.14  4469.55  4476.07  4533.45
                             4753.68  5070.22

 Zero-point correction=                           0.168356 (Hartree/Particle)
 Thermal correction to Energy=                    0.178577
 Thermal correction to Enthalpy=                  0.179521
 Thermal correction to Gibbs Free Energy=         0.130243
 Sum of electronic and zero-point Energies=           -549.569329
 Sum of electronic and thermal Energies=              -549.559109
 Sum of electronic and thermal Enthalpies=            -549.558165
 Sum of electronic and thermal Free Energies=         -549.607443

                     E (Thermal)             CV                S
                      KCal/Mol        Cal/Mol-Kelvin    Cal/Mol-Kelvin
 Total                  112.059             37.417            103.714
 Electronic               0.000              0.000              0.000
 Translational            0.889              2.981             41.176
 Rotational               0.889              2.981             30.701
 Vibrational            110.281             31.455             31.838
 Vibration     1          0.593              1.986              6.592
 Vibration     2          0.594              1.982              5.504
 Vibration     3          0.607              1.938              3.211
 Vibration     4          0.613              1.919              2.878
 Vibration     5          0.627              1.875              2.392
 Vibration     6          0.633              1.855              2.234
 Vibration     7          0.674              1.729              1.598
 Vibration     8          0.722              1.590              1.200
 Vibration     9          0.754              1.502              1.020
 Vibration    10          0.833              1.303              0.720
 Vibration    11          0.883              1.188              0.591
 Vibration    12          0.943              1.061              0.474
 Vibration    13          0.964              1.020              0.440
 Vibration    14          0.975              0.998              0.423

                           ! Non-Optimized Parameters !
 Normal termination of Gaussian 16 at Wed Dec  9 17:00:15 2020.

 ----------------------------------------------------------------------
 # B3LYP/6-311++G(d,p) empiricaldispersion=gd3bj scf=xqc pop=npa geom=c
 heck
 ----------------------------------------------------------------------

 ---------------------------------------
 CID_131410592_JID_2179_Energie_neutraal
 ---------------------------------------
 Structure from the checkpoint file:  "JID_2179.chk"
 Charge =  0 Multiplicity = 1

 SCF Done:  E(RB3LYP) =  -549.889152229     A.U. after   14 cycles
 Normal termination of Gaussian 16 at Wed Dec  9 17:02:08 2020.

 ----------------------------------------------------------------------
 # B3LYP/6-311++G(d,p) empiricaldispersion=gd3bj scf=xqc pop=npa geom=c
 heck
 ----------------------------------------------------------------------

 -------------------------------------
 CID_131410592_JID_2179_Energie_kation
 -------------------------------------
 Structure from the checkpoint file:  "JID_2179.chk"
 Charge =  1 Multiplicity = 2

 SCF Done:  E(UB3LYP) =  -549.564858568     A.U. after   23 cycles
 Normal termination of Gaussian 16 at Wed Dec  9 17:06:33 2020.
 Gaussian 16:  ES64L-G16RevA.03 25-Dec-2016

 ----------------------------------------------------------------------
 # B3LYP/6-311++G(d,p) empiricaldispersion=gd3bj scf=xqc pop=npa geom=c
 heck
 ----------------------------------------------------------------------

 ------------------------------------
 CID_131410592_JID_2179_Energie_anion
 ------------------------------------
 Structure from the checkpoint file:  "JID_2179.chk"
 Charge = -1 Multiplicity = 2

                         Standard orientation:
 ---------------------------------------------------------------------
 Center     Atomic      Atomic             Coordinates (Angstroms)
 Number     Number       Type             X           Y           Z
 ---------------------------------------------------------------------
      1          6           0        1.440458    1.114845   -0.283041
      2          6           0        2.885144    0.863229    0.223814
      3          7           0        3.092524   -0.579816    0.033638
      4          6           0        1.803688   -1.209580    0.293313
      5          6           0        0.868428   -0.305132   -0.536346
      6          6           0       -0.571982   -0.480254   -0.220196
      7          6           0       -1.649846    0.332010    0.027265
      8          7           0       -2.796406   -0.445428    0.234787
      9          6           0       -2.375279   -1.656795    0.105731
     10          8           0       -1.044350   -1.766713   -0.172004
     11          6           0       -1.693891    1.752514    0.067076
     12          7           0       -1.718642    2.914853    0.094564
     13          1           0        0.861040    1.647140    0.473587
     14          1           0        1.414481    1.719013   -1.192381
     15          1           0        3.632811    1.430147   -0.339851
     16          1           0        2.961023    1.170749    1.280191
     17          1           0        3.826392   -0.942617    0.636525
     18          1           0        1.490863   -1.186675    1.354783
     19          1           0        1.792871   -2.249987   -0.044039
     20          1           0        1.024798   -0.568381   -1.590519
     21          1           0       -2.932131   -2.577965    0.191117
 ---------------------------------------------------------------------

 SCF Done:  E(UB3LYP) =  -549.885354159     A.U. after   33 cycles
 SCF Done:  E(UB3LYP) =  -549.885354159     a.u. after    1 cycles

 The electronic state is 2-A.
 Alpha  occ. eigenvalues --  -19.07758 -14.20813 -14.18585 -14.18492 -10.14275
 Alpha  occ. eigenvalues --  -10.11285 -10.10144 -10.08728 -10.08300 -10.07815
 Alpha  occ. eigenvalues --  -10.07613 -10.06002  -1.01909  -0.81839  -0.81014
 Alpha  occ. eigenvalues --   -0.78118  -0.69600  -0.63920  -0.61569  -0.55029
 Alpha  occ. eigenvalues --   -0.50891  -0.48034  -0.47227  -0.43912  -0.39898
 Alpha  occ. eigenvalues --   -0.38619  -0.36241  -0.35490  -0.32550  -0.31156
 Alpha  occ. eigenvalues --   -0.29134  -0.27684  -0.26867  -0.25592  -0.24861
 Alpha  occ. eigenvalues --   -0.24683  -0.23738  -0.22483  -0.21126  -0.20311
 Alpha  occ. eigenvalues --   -0.18960  -0.13412  -0.11882   0.04728
 Alpha virt. eigenvalues --    0.07086   0.08024   0.08958   0.09371   0.10437
 Alpha virt. eigenvalues --    0.10647   0.11649   0.11902   0.12657   0.13527
 Alpha virt. eigenvalues --    0.13919   0.14876   0.15509   0.16195   0.16574

  Beta  occ. eigenvalues --  -19.07522 -14.20861 -14.18550 -14.18381 -10.14181
  Beta  occ. eigenvalues --  -10.10886 -10.10117 -10.08695 -10.08281 -10.07741
  Beta  occ. eigenvalues --  -10.07641 -10.05994  -1.01530  -0.81748  -0.80961
  Beta  occ. eigenvalues --   -0.77955  -0.69220  -0.63782  -0.61469  -0.54762
  Beta  occ. eigenvalues --   -0.50577  -0.47935  -0.46997  -0.43787  -0.39780
  Beta  occ. eigenvalues --   -0.38303  -0.35535  -0.35376  -0.32429  -0.30947
  Beta  occ. eigenvalues --   -0.28974  -0.27494  -0.26786  -0.25016  -0.24678
  Beta  occ. eigenvalues --   -0.24519  -0.23686  -0.22320  -0.21031  -0.19830
  Beta  occ. eigenvalues --   -0.18945  -0.12215  -0.11752
  Beta virt. eigenvalues --    0.07519   0.08155   0.09372   0.09610   0.10048
  Beta virt. eigenvalues --    0.10954   0.11053   0.12071   0.12315   0.12883
  Beta virt. eigenvalues --    0.13552   0.13946   0.14900   0.15487   0.16239

 Mulliken charges and spin densities:
               1          2
     1  C   -0.461984   0.067865
     2  C    0.546600  -0.961216
     3  N   -0.365878   0.281363
     4  C    1.257516  -1.874866
     5  C   -0.752456   0.992562
     6  C    0.194023   0.195832
     7  C    1.067323  -0.318341
     8  N   -0.119334  -0.008204
     9  C    0.131358   0.210856
    10  O   -0.037838   0.064095
    11  C   -1.112386  -0.317943
    12  N   -0.283929   0.057934
    13  H    0.147025  -0.016060
    14  H    0.094790   0.045990
    15  H   -0.042810   0.196732
    16  H   -0.232734   0.366500
    17  H   -0.201248   0.436586
    18  H   -0.347358   0.502400
    19  H   -0.273527   0.457491
    20  H   -0.184639   0.429089
    21  H   -0.022516   0.191334
 Sum of Mulliken charges =  -1.00000   1.00000

 Dipole moment (field-independent basis, Debye):
    X=             -1.3805    Y=             -1.4587    Z=             -1.3760  Tot=              2.4346
 Quadrupole moment (field-independent basis, Debye-Ang):
   XX=           -121.2254   YY=           -107.3896   ZZ=            -90.4800
   XY=             16.4895   XZ=             -0.1274   YZ=              0.0610

 Summary of Natural Population Analysis:

                                       Natural Population
                Natural  -----------------------------------------------
    Atom  No    Charge         Core      Valence    Rydberg      Total
 -----------------------------------------------------------------------
      C    1   -0.19096      0.99963     2.18330    0.00804     3.19096
      C    2   -0.08618      0.99965     2.07557    0.01097     3.08618
      N    3   -0.34234      0.99975     2.83079    0.01180     3.84234
      C    4   -0.07535      0.99961     2.06382    0.01192     3.07535
      C    5   -0.14305      0.99957     2.13149    0.01200     3.14305
      C    6    0.25250      0.99943     1.73322    0.01485     2.74750
      C    7   -0.04518      0.99935     2.03372    0.01211     3.04518
      N    8   -0.24606      0.99970     2.73676    0.00960     3.74606
      C    9    0.18543      0.99965     1.79494    0.01998     2.81457
      O   10   -0.21761      0.99986     3.21050    0.00725     4.21761
      C   11    0.15312      0.99963     1.83008    0.01718     2.84688
      N   12   -0.18037      0.99979     2.67034    0.01025     3.68037
      H   13    0.10678      0.00000     0.39165    0.00157     0.39322
      H   14    0.10099      0.00000     0.39801    0.00100     0.39901
      H   15    0.09038      0.00000     0.40846    0.00116     0.40962
      H   16    0.08042      0.00000     0.41798    0.00160     0.41958
      H   17    0.17709      0.00000     0.31892    0.00398     0.32291
      H   18    0.08093      0.00000     0.41689    0.00218     0.41907
      H   19    0.09923      0.00000     0.39875    0.00202     0.40077
      H   20    0.11462      0.00000     0.38364    0.00174     0.38538
      H   21    0.08562      0.00000     0.41345    0.00093     0.41438
 =======================================================================
   * Total *   -0.00000     11.99562    30.84226    0.16212    43.00000

 Normal termination of Gaussian 16 at Wed Dec  9 17:14:27 2020.
